<event>
 8    1  0.1078274E+005  0.1043930E+01  0.7957747E-01            NaN
         13   -1    0    0    0    0  0.00000000000E+00  0.00000000000E+00  0.74505805969E-08  0.10566000000E+00  0.10566000000E+00 0. -1.
     999900   -1    0    0    0    0 -0.00000000000E+00 -0.00000000000E+00 -0.74505805969E-08  0.93827000000E+00  0.93827000000E+00 0. -1.
     999902    2    1    2    0    0  0.14067446622E-01 -0.15786501737E-01 -0.10028445565E-01  0.10205275127E+01  0.10202591474E+01 0.  0.
     999903    2    3    3    0    0 -0.11466204504E+00 -0.12201256751E-01 -0.56379628046E-01  0.12994760717E+00  0.20284548635E-01 0.  0.
         14    1    1    2    0    0 -0.14067446622E-01  0.15786501737E-01  0.10028445565E-01  0.23402487304E-01  0.00000000000E+00 0. -1.
     999901    1    3    3    0    0  0.12872949166E+00 -0.35852449864E-02  0.46351182481E-01  0.89057990552E+00  0.88000000000E+00 0. -1.
        -11    1    4    4    0    0 -0.95917461497E-01 -0.83588173191E-02 -0.38308043052E-01  0.10362333970E+00  0.51100000000E-03 0. -1.
         11    1    4    4    0    0 -0.18744583539E-01 -0.38424394316E-02 -0.18071584994E-01  0.26324267474E-01  0.51100000000E-03 0.  1.
</event>
<event>
 8    1  0.1078274E+005  0.1043930E+01  0.7957747E-01            NaN
         13   -1    0    0    0    0  0.00000000000E+00  0.00000000000E+00  0.74505805969E-08  0.10566000000E+00  0.10566000000E+00 0.  1.
     999900   -1    0    0    0    0 -0.00000000000E+00 -0.00000000000E+00 -0.74505805969E-08  0.93827000000E+00  0.93827000000E+00 0.  1.
     999902    2    1    2    0    0  0.92955232035E-02  0.77722923351E-03  0.21056641013E-01  0.10208997380E+01  0.10206399375E+01 0.  0.
     999903    2    3    3    0    0 -0.48746673723E-01 -0.80250874321E-01 -0.85967600865E-01  0.12882987609E+00  0.19755190344E-01 0.  0.
         14    1    1    2    0    0 -0.92955232035E-02 -0.77722923351E-03 -0.21056641013E-01  0.23030261997E-01  0.00000000000E+00 0. -1.
     999901    1    3    3    0    0  0.58042196927E-01  0.81028103555E-01  0.10702424188E+00  0.89206986192E+00  0.88000000000E+00 0.  1.
        -11    1    4    4    0    0 -0.21514128429E-01 -0.53912056623E-01 -0.50949045661E-01  0.77236221723E-01  0.51100000000E-03 0. -1.
         11    1    4    4    0    0 -0.27232545294E-01 -0.26338817699E-01 -0.35018555205E-01  0.51593654363E-01  0.51100000000E-03 0.  1.
</event>
<event>
 8    1  0.1078274E+005  0.1043930E+01  0.7957747E-01            NaN
         13   -1    0    0    0    0  0.00000000000E+00  0.00000000000E+00  0.74505805969E-08  0.10566000000E+00  0.10566000000E+00 0. -1.
     999900   -1    0    0    0    0 -0.00000000000E+00 -0.00000000000E+00 -0.74505805969E-08  0.93827000000E+00  0.93827000000E+00 0. -1.
     999902    2    1    2    0    0  0.40127154581E-02 -0.62939507878E-02  0.22447671073E-01  0.10202738457E+01  0.10199995620E+01 0.  0.
     999903    2    3    3    0    0  0.48649750819E-01 -0.38496529985E-01 -0.11088946086E+00  0.12852934089E+00  0.19352980741E-01 0.  0.
         14    1    1    2    0    0 -0.40127154581E-02  0.62939507878E-02 -0.22447671073E-01  0.23656154347E-01  0.00000000000E+00 0.  1.
     999901    1    3    3    0    0 -0.44637035361E-01  0.32202579197E-01  0.13333713193E+00  0.89174450477E+00  0.88000000000E+00 0. -1.
        -11    1    4    4    0    0  0.24447160794E-01 -0.27531225631E-01 -0.50025760691E-01  0.62116583207E-01  0.51100000000E-03 0.  1.
         11    1    4    4    0    0  0.24202590025E-01 -0.10965304354E-01 -0.60863700166E-01  0.66412757678E-01  0.51100000000E-03 0. -1.
</event>
<event>
 8    1  0.1078274E+005  0.1043930E+01  0.7957747E-01            NaN
         13   -1    0    0    0    0  0.00000000000E+00  0.00000000000E+00  0.74505805969E-08  0.10566000000E+00  0.10566000000E+00 0.  1.
     999900   -1    0    0    0    0 -0.00000000000E+00 -0.00000000000E+00 -0.74505805969E-08  0.93827000000E+00  0.93827000000E+00 0.  1.
     999902    2    1    2    0    0 -0.19260063428E-01 -0.19924310388E-01  0.93328757651E-02  0.10146890910E+01  0.10142676770E+01 0.  0.
     999903    2    3    3    0    0 -0.97403977339E-01  0.26792609857E-01 -0.72938963702E-01  0.12617482694E+00  0.19864938510E-01 0.  0.
         14    1    1    2    0    0  0.19260063428E-01  0.19924310388E-01 -0.93328757651E-02  0.29240908976E-01  0.00000000000E+00 0.  1.
     999901    1    3    3    0    0  0.78143913911E-01 -0.46716920245E-01  0.82271839467E-01  0.88851426409E+00  0.88000000000E+00 0. -1.
        -11    1    4    4    0    0 -0.62168987397E-01  0.16583400716E-01 -0.57775401313E-01  0.86476877205E-01  0.51100000000E-03 0.  1.
         11    1    4    4    0    0 -0.35234989943E-01  0.10209209141E-01 -0.15163562389E-01  0.39697949731E-01  0.51100000000E-03 0. -1.
</event>
<event>
 8    1  0.1078274E+005  0.1043930E+01  0.7957747E-01            NaN
         13   -1    0    0    0    0  0.00000000000E+00  0.00000000000E+00  0.74505805969E-08  0.10566000000E+00  0.10566000000E+00 0.  1.
     999900   -1    0    0    0    0 -0.00000000000E+00 -0.00000000000E+00 -0.74505805969E-08  0.93827000000E+00  0.93827000000E+00 0. -1.
     999902    2    1    2    0    0  0.30492063866E-02 -0.89444933323E-02  0.21443786783E-01  0.10204963146E+01  0.10202272249E+01 0.  0.
     999903    2    3    3    0    0 -0.78940096235E-01  0.31290833285E-01 -0.94136361618E-01  0.12825201062E+00  0.19397644401E-01 0.  0.
         14    1    1    2    0    0 -0.30492063866E-02  0.89444933323E-02 -0.21443786783E-01  0.23433685415E-01  0.00000000000E+00 0. -1.
     999901    1    3    3    0    0  0.81989302622E-01 -0.40235326617E-01  0.11558014840E+00  0.89224430396E+00  0.88000000000E+00 0. -1.
        -11    1    4    4    0    0 -0.16085681707E-01  0.12272435836E-01 -0.13829706711E-01  0.24512930181E-01  0.51100000000E-03 0.  1.
         11    1    4    4    0    0 -0.62854414528E-01  0.19018397449E-01 -0.80306654906E-01  0.10373908044E+00  0.51100000000E-03 0. -1.
</event>
<event>
 8    1  0.1078274E+005  0.1043930E+01  0.7957747E-01            NaN
         13   -1    0    0    0    0  0.00000000000E+00  0.00000000000E+00  0.74505805969E-08  0.10566000000E+00  0.10566000000E+00 0.  1.
     999900   -1    0    0    0    0 -0.00000000000E+00 -0.00000000000E+00 -0.74505805969E-08  0.93827000000E+00  0.93827000000E+00 0.  1.
     999902    2    1    2    0    0  0.18596905923E-01 -0.31802219842E-02  0.13818221911E-01  0.10205440645E+01  0.10202760830E+01 0.  0.
     999903    2    3    3    0    0  0.75013079386E-01 -0.35045986134E-01 -0.99560472619E-01  0.13090765568E+00  0.19218308560E-01 0.  0.
         14    1    1    2    0    0 -0.18596905923E-01  0.31802219842E-02 -0.13818221911E-01  0.23385935486E-01  0.00000000000E+00 0. -1.
     999901    1    3    3    0    0 -0.56416173463E-01  0.31865764150E-01  0.11337869453E+00  0.88963640884E+00  0.88000000000E+00 0.  1.
        -11    1    4    4    0    0  0.29905096066E-01 -0.16408910189E-01 -0.55535939242E-01  0.65177210533E-01  0.51100000000E-03 0.  1.
         11    1    4    4    0    0  0.45107983320E-01 -0.18637075945E-01 -0.44024533377E-01  0.65730445146E-01  0.51100000000E-03 0. -1.
</event>
<event>
 7    1  0.1078274E+005  0.1043930E+01  0.7957747E-01            NaN
         13   -1    0    0    0    0  0.00000000000E+00  0.00000000000E+00  0.74505805969E-08  0.10566000000E+00  0.10566000000E+00 0. -1.
     999900   -1    0    0    0    0 -0.00000000000E+00 -0.00000000000E+00 -0.74505805969E-08  0.93827000000E+00  0.93827000000E+00 0.  1.
     999903    2    1    2    0    0  0.42042602813E-01  0.17633505642E-01 -0.10330359556E+00  0.11460236300E+00  0.19584375811E-01 0.  0.
         14    1    1    2    0    0  0.29468578061E-02  0.31413474862E-01  0.30390892214E-01  0.43807495973E-01  0.00000000000E+00 0. -1.
     999901    1    1    2    0    0 -0.44989460620E-01 -0.49046980504E-01  0.72912703346E-01  0.88552014103E+00  0.88000000000E+00 0. -1.
        -11    1    3    3    0    0  0.34015814983E-01  0.65145534809E-02 -0.84499517600E-01  0.91323297529E-01  0.51100000000E-03 0. -1.
         11    1    3    3    0    0  0.80267878307E-02  0.11118952161E-01 -0.18804077960E-01  0.23279065466E-01  0.51100000000E-03 0.  1.
</event>
<event>
 8    1  0.1078274E+005  0.1043930E+01  0.7957747E-01            NaN
         13   -1    0    0    0    0  0.00000000000E+00  0.00000000000E+00  0.74505805969E-08  0.10566000000E+00  0.10566000000E+00 0. -1.
     999900   -1    0    0    0    0 -0.00000000000E+00 -0.00000000000E+00 -0.74505805969E-08  0.93827000000E+00  0.93827000000E+00 0. -1.
     999902    2    1    2    0    0 -0.44175536917E-03  0.19758209353E-01 -0.13897606437E-01  0.10197695892E+01  0.10194833445E+01 0.  0.
     999903    2    3    3    0    0 -0.73130062233E-01 -0.72885798613E-01  0.71900947523E-01  0.12778982822E+00  0.22363995610E-01 0.  0.
         14    1    1    2    0    0  0.44175536917E-03 -0.19758209353E-01  0.13897606437E-01  0.24160410785E-01  0.00000000000E+00 0.  1.
     999901    1    3    3    0    0  0.72688306863E-01  0.92644007966E-01 -0.85798553960E-01  0.89197976100E+00  0.88000000000E+00 0. -1.
        -11    1    4    4    0    0 -0.37464998261E-01 -0.23653762176E-01  0.36730162546E-01  0.57554257197E-01  0.51100000000E-03 0. -1.
         11    1    4    4    0    0 -0.35665063971E-01 -0.49232036437E-01  0.35170784978E-01  0.70235571022E-01  0.51100000000E-03 0.  1.
</event>
<event>
 7    1  0.1078274E+005  0.1043930E+01  0.7957747E-01            NaN
         13   -1    0    0    0    0  0.00000000000E+00  0.00000000000E+00  0.74505805969E-08  0.10566000000E+00  0.10566000000E+00 0.  1.
     999900   -1    0    0    0    0 -0.00000000000E+00 -0.00000000000E+00 -0.74505805969E-08  0.93827000000E+00  0.93827000000E+00 0. -1.
     999902    2    1    2    0    0 -0.10434337341E-02  0.37657168673E-02 -0.22811895798E-01  0.10207858438E+01  0.10205234377E+01 0.  0.
         14    1    1    2    0    0  0.10434337341E-02 -0.37657168673E-02  0.22811895798E-01  0.23144156225E-01  0.00000000000E+00 0.  1.
     999901    1    3    3    0    0 -0.10341909703E+00  0.26934310238E-01 -0.88734848547E-01  0.89089552701E+00  0.88000000000E+00 0. -1.
        -11    1    3    3    0    0  0.93123137783E-01 -0.22961652989E-01  0.42898073897E-01  0.10506979663E+00  0.51100000000E-03 0.  1.
         11    1    3    3    0    0  0.92525255136E-02 -0.20694038166E-03  0.23024878852E-01  0.24820520137E-01  0.51100000000E-03 0. -1.
</event>
<event>
 8    1  0.1078274E+005  0.1043930E+01  0.7957747E-01            NaN
         13   -1    0    0    0    0  0.00000000000E+00  0.00000000000E+00  0.74505805969E-08  0.10566000000E+00  0.10566000000E+00 0.  1.
     999900   -1    0    0    0    0 -0.00000000000E+00 -0.00000000000E+00 -0.74505805969E-08  0.93827000000E+00  0.93827000000E+00 0. -1.
     999902    2    1    2    0    0 -0.32675142545E-02  0.18298875989E-01  0.14293792453E-01  0.10204813750E+01  0.10202119381E+01 0.  0.
     999903    2    3    3    0    0 -0.32589694163E-01  0.87943950134E-01  0.93122242899E-01  0.13373217078E+00  0.20403794917E-01 0.  0.
         14    1    1    2    0    0  0.32675142545E-02 -0.18298875989E-01 -0.14293792453E-01  0.23448625003E-01  0.00000000000E+00 0. -1.
     999901    1    3    3    0    0  0.29322179909E-01 -0.69645074145E-01 -0.78828450446E-01  0.88674920422E+00  0.88000000000E+00 0.  1.
        -11    1    4    4    0    0 -0.18520425377E-01  0.36023590955E-01  0.52556730414E-01  0.66356433706E-01  0.51100000000E-03 0. -1.
         11    1    4    4    0    0 -0.14069268787E-01  0.51920359179E-01  0.40565512485E-01  0.67375737069E-01  0.51100000000E-03 0.  1.
</event>
<event>
 8    1  0.1078274E+005  0.1043930E+01  0.7957747E-01            NaN
         13   -1    0    0    0    0  0.00000000000E+00  0.00000000000E+00  0.74505805969E-08  0.10566000000E+00  0.10566000000E+00 0.  1.
     999900   -1    0    0    0    0 -0.00000000000E+00 -0.00000000000E+00 -0.74505805969E-08  0.93827000000E+00  0.93827000000E+00 0. -1.
     999902    2    1    2    0    0 -0.15438205252E-01  0.96840387799E-02 -0.14751299634E-01  0.10204838995E+01  0.10202145213E+01 0.  0.
     999903    2    3    3    0    0  0.12304447868E+00  0.71405284079E-03  0.30383673544E-01  0.12846647802E+00  0.20976528582E-01 0.  0.
         14    1    1    2    0    0  0.15438205252E-01 -0.96840387799E-02  0.14751299634E-01  0.23446100515E-01  0.00000000000E+00 0.  1.
     999901    1    3    3    0    0 -0.13848268393E+00  0.89699859391E-02 -0.45134973177E-01  0.89201742147E+00  0.88000000000E+00 0.  1.
        -11    1    4    4    0    0  0.39644940553E-01  0.66723039380E-02  0.17567962165E-01  0.43876364559E-01  0.51100000000E-03 0. -1.
         11    1    4    4    0    0  0.83399538126E-01 -0.59582510972E-02  0.12815711379E-01  0.84590113459E-01  0.51100000000E-03 0.  1.
</event>
<event>
 8    1  0.1078274E+005  0.1043930E+01  0.7957747E-01            NaN
         13   -1    0    0    0    0  0.00000000000E+00  0.00000000000E+00  0.74505805969E-08  0.10566000000E+00  0.10566000000E+00 0. -1.
     999900   -1    0    0    0    0 -0.00000000000E+00 -0.00000000000E+00 -0.74505805969E-08  0.93827000000E+00  0.93827000000E+00 0. -1.
     999902    2    1    2    0    0 -0.70704020426E-02 -0.84134501873E-02  0.22024667928E-01  0.10193157211E+01  0.10190184868E+01 0.  0.
     999903    2    3    3    0    0  0.41508187592E-01 -0.88181523944E-01 -0.81122753793E-01  0.12838238151E+00  0.20055520356E-01 0.  0.
         14    1    1    2    0    0  0.70704020426E-02  0.84134501873E-02 -0.22024667928E-01  0.24614278914E-01  0.00000000000E+00 0.  1.
     999901    1    3    3    0    0 -0.48578589635E-01  0.79768073757E-01  0.10314742172E+00  0.89093333958E+00  0.88000000000E+00 0.  1.
        -11    1    4    4    0    0  0.22754834772E-01 -0.58880866063E-01 -0.40986146075E-01  0.75265292033E-01  0.51100000000E-03 0.  1.
         11    1    4    4    0    0  0.18753352820E-01 -0.29300657881E-01 -0.40136607718E-01  0.53117089476E-01  0.51100000000E-03 0. -1.
</event>
<event>
 8    1  0.1078274E+005  0.1043930E+01  0.7957747E-01            NaN
         13   -1    0    0    0    0  0.00000000000E+00  0.00000000000E+00  0.74505805969E-08  0.10566000000E+00  0.10566000000E+00 0.  1.
     999900   -1    0    0    0    0 -0.00000000000E+00 -0.00000000000E+00 -0.74505805969E-08  0.93827000000E+00  0.93827000000E+00 0.  1.
     999902    2    1    2    0    0  0.98934739575E-02  0.27403129783E-02  0.21458529311E-01  0.10201422170E+01  0.10198648362E+01 0.  0.
     999903    2    3    3    0    0  0.88212220480E-02 -0.25971337237E-01  0.12881337177E+00  0.13315260552E+00  0.19606307548E-01 0.  0.
         14    1    1    2    0    0 -0.98934739575E-02 -0.27403129783E-02 -0.21458529311E-01  0.23787783049E-01  0.00000000000E+00 0. -1.
     999901    1    3    3    0    0  0.10722519095E-02  0.28711650215E-01 -0.10735484245E+00  0.88698961143E+00  0.88000000000E+00 0.  1.
        -11    1    4    4    0    0  0.12100165007E-01 -0.11752622870E-01  0.44663761601E-01  0.47745689427E-01  0.51100000000E-03 0.  1.
         11    1    4    4    0    0 -0.32789429587E-02 -0.14218714366E-01  0.84149610165E-01  0.85406916097E-01  0.51100000000E-03 0. -1.
</event>
<event>
 8    1  0.1078274E+005  0.1043930E+01  0.7957747E-01            NaN
         13   -1    0    0    0    0  0.00000000000E+00  0.00000000000E+00  0.74505805969E-08  0.10566000000E+00  0.10566000000E+00 0. -1.
     999900   -1    0    0    0    0 -0.00000000000E+00 -0.00000000000E+00 -0.74505805969E-08  0.93827000000E+00  0.93827000000E+00 0. -1.
     999902    2    1    2    0    0 -0.21019128131E-02  0.15774558986E-01 -0.17387474255E-01  0.10203592764E+01  0.10200869933E+01 0.  0.
     999903    2    3    3    0    0  0.44264951457E-01  0.35255090021E-01  0.11405573828E+00  0.12917652564E+00  0.21807247451E-01 0.  0.
         14    1    1    2    0    0  0.21019128131E-02 -0.15774558986E-01  0.17387474255E-01  0.23570723570E-01  0.00000000000E+00 0. -1.
     999901    1    3    3    0    0 -0.46366864270E-01 -0.19480531035E-01 -0.13144321253E+00  0.89118275079E+00  0.88000000000E+00 0. -1.
        -11    1    4    4    0    0  0.26352103256E-01  0.15509721382E-01  0.39230565877E-01  0.49742167457E-01  0.51100000000E-03 0. -1.
         11    1    4    4    0    0  0.17912848201E-01  0.19745368639E-01  0.74825172401E-01  0.79434358179E-01  0.51100000000E-03 0.  1.
</event>
<event>
 8    1  0.1078274E+005  0.1043930E+01  0.7957747E-01            NaN
         13   -1    0    0    0    0  0.00000000000E+00  0.00000000000E+00  0.74505805969E-08  0.10566000000E+00  0.10566000000E+00 0. -1.
     999900   -1    0    0    0    0 -0.00000000000E+00 -0.00000000000E+00 -0.74505805969E-08  0.93827000000E+00  0.93827000000E+00 0.  1.
     999902    2    1    2    0    0 -0.84430922348E-02 -0.23709841629E-02 -0.21103318815E-01  0.10210770475E+01  0.10208212770E+01 0.  0.
     999903    2    3    3    0    0  0.70706179604E-01  0.10476038626E+00 -0.32968463601E-01  0.13097451442E+00  0.96592686217E-02 0.  0.
         14    1    1    2    0    0  0.84430922348E-02  0.23709841629E-02  0.21103318815E-01  0.22852952488E-01  0.00000000000E+00 0. -1.
     999901    1    3    3    0    0 -0.79149271839E-01 -0.10713137043E+00  0.11865144785E-01  0.89010253310E+00  0.88000000000E+00 0.  1.
        -11    1    4    4    0    0  0.90498630805E-02  0.16795359917E-01 -0.20737650576E-02  0.19197545651E-01  0.51100000000E-03 0. -1.
         11    1    4    4    0    0  0.61656316524E-01  0.87965026346E-01 -0.30894698543E-01  0.11177696877E+00  0.51100000000E-03 0.  1.
</event>
<event>
 8    1  0.1078274E+005  0.1043930E+01  0.7957747E-01            NaN
         13   -1    0    0    0    0  0.00000000000E+00  0.00000000000E+00  0.74505805969E-08  0.10566000000E+00  0.10566000000E+00 0. -1.
     999900   -1    0    0    0    0 -0.00000000000E+00 -0.00000000000E+00 -0.74505805969E-08  0.93827000000E+00  0.93827000000E+00 0.  1.
     999902    2    1    2    0    0 -0.13999218404E-01  0.13837621760E-01  0.86457666528E-02  0.10224309960E+01  0.10222049376E+01 0.  0.
     999903    2    3    3    0    0  0.32575165748E-01  0.12579854287E+00 -0.23605815232E-01  0.13353022221E+00  0.19663949733E-01 0.  0.
         14    1    1    2    0    0  0.13999218404E-01 -0.13837621760E-01 -0.86457666528E-02  0.21499003998E-01  0.00000000000E+00 0.  1.
     999901    1    3    3    0    0 -0.46574384153E-01 -0.11196092111E+00  0.32251581885E-01  0.88890077379E+00  0.88000000000E+00 0.  1.
        -11    1    4    4    0    0  0.23737330965E-01  0.66076705750E-01 -0.51663399637E-02  0.70402728028E-01  0.51100000000E-03 0.  1.
         11    1    4    4    0    0  0.88378347829E-02  0.59721837118E-01 -0.18439475269E-01  0.63127494181E-01  0.51100000000E-03 0. -1.
</event>
<event>
 7    1  0.1078274E+005  0.1043930E+01  0.7957747E-01            NaN
         13   -1    0    0    0    0  0.00000000000E+00  0.00000000000E+00  0.74505805969E-08  0.10566000000E+00  0.10566000000E+00 0.  1.
     999900   -1    0    0    0    0 -0.00000000000E+00 -0.00000000000E+00 -0.74505805969E-08  0.93827000000E+00  0.93827000000E+00 0.  1.
     999903    2    1    2    0    0  0.54554709642E-01 -0.61822419508E-01 -0.74629887593E-01  0.11297574708E+00  0.19891490851E-01 0.  0.
         14    1    1    2    0    0  0.11308616660E-01 -0.38089881189E-01  0.63080001243E-02  0.40230768391E-01  0.00000000000E+00 0. -1.
     999901    1    1    2    0    0 -0.65863326302E-01  0.99912300698E-01  0.68321887469E-01  0.89072348453E+00  0.88000000000E+00 0.  1.
        -11    1    3    3    0    0  0.44916180662E-01 -0.38456171597E-01 -0.57182738591E-01  0.82258538359E-01  0.51100000000E-03 0.  1.
         11    1    3    3    0    0  0.96385289801E-02 -0.23366247912E-01 -0.17447149003E-01  0.30717208722E-01  0.51100000000E-03 0. -1.
</event>
<event>
 8    1  0.1078274E+005  0.1043930E+01  0.7957747E-01            NaN
         13   -1    0    0    0    0  0.00000000000E+00  0.00000000000E+00  0.74505805969E-08  0.10566000000E+00  0.10566000000E+00 0. -1.
     999900   -1    0    0    0    0 -0.00000000000E+00 -0.00000000000E+00 -0.74505805969E-08  0.93827000000E+00  0.93827000000E+00 0.  1.
     999902    2    1    2    0    0 -0.20641096505E-01  0.13078648506E-01  0.54020057281E-03  0.10194882789E+01  0.10191952478E+01 0.  0.
     999903    2    3    3    0    0  0.76567656158E-01  0.57223639320E-01 -0.84122282786E-01  0.12900186248E+00  0.20682630302E-01 0.  0.
         14    1    1    2    0    0  0.20641096505E-01 -0.13078648506E-01 -0.54020057281E-03  0.24441721060E-01  0.00000000000E+00 0.  1.
     999901    1    3    3    0    0 -0.97208752663E-01 -0.44144990814E-01  0.84662483358E-01  0.89048641646E+00  0.88000000000E+00 0. -1.
        -11    1    4    4    0    0  0.31654898243E-01  0.26920082460E-01 -0.49807846621E-01  0.64867604615E-01  0.51100000000E-03 0. -1.
         11    1    4    4    0    0  0.44912757915E-01  0.30303556860E-01 -0.34314436164E-01  0.64134257867E-01  0.51100000000E-03 0.  1.
</event>
<event>
 8    1  0.1078274E+005  0.1043930E+01  0.7957747E-01            NaN
         13   -1    0    0    0    0  0.00000000000E+00  0.00000000000E+00  0.74505805969E-08  0.10566000000E+00  0.10566000000E+00 0.  1.
     999900   -1    0    0    0    0 -0.00000000000E+00 -0.00000000000E+00 -0.74505805969E-08  0.93827000000E+00  0.93827000000E+00 0.  1.
     999902    2    1    2    0    0  0.97043696166E-02 -0.15413201361E-01  0.15370556511E-01  0.10200973423E+01  0.10198189017E+01 0.  0.
     999903    2    3    3    0    0 -0.94171445007E-01  0.31249524536E-01 -0.77837528801E-01  0.12787800714E+00  0.21196933330E-01 0.  0.
         14    1    1    2    0    0 -0.97043696166E-02  0.15413201361E-01 -0.15370556511E-01  0.23832657705E-01  0.00000000000E+00 0. -1.
     999901    1    3    3    0    0  0.10387581462E+00 -0.46662725897E-01  0.93208085311E-01  0.89221933515E+00  0.88000000000E+00 0. -1.
        -11    1    4    4    0    0 -0.41674754974E-01  0.18334001188E-01 -0.23552233767E-01  0.51262946054E-01  0.51100000000E-03 0. -1.
         11    1    4    4    0    0 -0.52496690033E-01  0.12915523348E-01 -0.54285295033E-01  0.76615061089E-01  0.51100000000E-03 0.  1.
</event>
<event>
 8    1  0.1078274E+005  0.1043930E+01  0.7957747E-01            NaN
         13   -1    0    0    0    0  0.00000000000E+00  0.00000000000E+00  0.74505805969E-08  0.10566000000E+00  0.10566000000E+00 0. -1.
     999900   -1    0    0    0    0 -0.00000000000E+00 -0.00000000000E+00 -0.74505805969E-08  0.93827000000E+00  0.93827000000E+00 0. -1.
     999902    2    1    2    0    0 -0.56428213490E-02  0.15093133348E-01  0.17387299831E-01  0.10202242559E+01  0.10199488076E+01 0.  0.
     999903    2    3    3    0    0 -0.25474752688E-01 -0.77916125256E-01  0.10064449358E+00  0.13119344206E+00  0.19039946223E-01 0.  0.
         14    1    1    2    0    0  0.56428213490E-02 -0.15093133348E-01 -0.17387299831E-01  0.23705744081E-01  0.00000000000E+00 0.  1.
     999901    1    3    3    0    0  0.19831931339E-01  0.93009258604E-01 -0.83257193745E-01  0.88903081386E+00  0.88000000000E+00 0. -1.
        -11    1    4    4    0    0 -0.55716304689E-02 -0.21110046944E-01  0.14931215027E-01  0.26455234855E-01  0.51100000000E-03 0.  1.
         11    1    4    4    0    0 -0.19903122219E-01 -0.56806078312E-01  0.85713278548E-01  0.10473820720E+00  0.51100000000E-03 0. -1.
</event>
<event>
 8    1  0.1078274E+005  0.1043930E+01  0.7957747E-01            NaN
         13   -1    0    0    0    0  0.00000000000E+00  0.00000000000E+00  0.74505805969E-08  0.10566000000E+00  0.10566000000E+00 0. -1.
     999900   -1    0    0    0    0 -0.00000000000E+00 -0.00000000000E+00 -0.74505805969E-08  0.93827000000E+00  0.93827000000E+00 0. -1.
     999902    2    1    2    0    0 -0.18541416426E-01 -0.98073756321E-02 -0.96795079809E-03  0.10229322461E+01  0.10227167127E+01 0.  0.
     999903    2    3    3    0    0 -0.30837361788E-01 -0.12254222491E+00  0.42420196240E-01  0.13459510976E+00  0.18677011322E-01 0.  0.
         14    1    1    2    0    0  0.18541416426E-01  0.98073756321E-02  0.96795079809E-03  0.20997753895E-01  0.00000000000E+00 0. -1.
     999901    1    3    3    0    0  0.12295945361E-01  0.11273484928E+00 -0.43388147038E-01  0.88833713635E+00  0.88000000000E+00 0. -1.
        -11    1    4    4    0    0 -0.11658211249E-01 -0.64873822455E-01  0.30637458918E-01  0.72687287330E-01  0.51100000000E-03 0.  1.
         11    1    4    4    0    0 -0.19179150539E-01 -0.57668402460E-01  0.11782737322E-01  0.61907822425E-01  0.51100000000E-03 0. -1.
</event>
<event>
 8    1  0.1078274E+005  0.1043930E+01  0.7957747E-01            NaN
         13   -1    0    0    0    0  0.00000000000E+00  0.00000000000E+00  0.74505805969E-08  0.10566000000E+00  0.10566000000E+00 0.  1.
     999900   -1    0    0    0    0 -0.00000000000E+00 -0.00000000000E+00 -0.74505805969E-08  0.93827000000E+00  0.93827000000E+00 0.  1.
     999902    2    1    2    0    0  0.21065250162E-02  0.16221443808E-01 -0.17344857036E-01  0.10200885078E+01  0.10198098582E+01 0.  0.
     999903    2    3    3    0    0 -0.83482285596E-01  0.70554231046E-01 -0.72357985965E-01  0.13256164020E+00  0.19741296662E-01 0.  0.
         14    1    1    2    0    0 -0.21065250162E-02 -0.16221443808E-01  0.17344857036E-01  0.23841492244E-01  0.00000000000E+00 0.  1.
     999901    1    3    3    0    0  0.85588810612E-01 -0.54332787239E-01  0.55013128929E-01  0.88752686755E+00  0.88000000000E+00 0.  1.
        -11    1    4    4    0    0 -0.47945677390E-01  0.37448153431E-01 -0.51467230028E-01  0.79688700978E-01  0.51100000000E-03 0. -1.
         11    1    4    4    0    0 -0.35536608206E-01  0.33106077615E-01 -0.20890755937E-01  0.52872939227E-01  0.51100000000E-03 0.  1.
</event>
<event>
 8    1  0.1078274E+005  0.1043930E+01  0.7957747E-01            NaN
         13   -1    0    0    0    0  0.00000000000E+00  0.00000000000E+00  0.74505805969E-08  0.10566000000E+00  0.10566000000E+00 0.  1.
     999900   -1    0    0    0    0 -0.00000000000E+00 -0.00000000000E+00 -0.74505805969E-08  0.93827000000E+00  0.93827000000E+00 0.  1.
     999902    2    1    2    0    0  0.21230038368E-01 -0.12208193482E-01 -0.28552254715E-02  0.10192742333E+01  0.10189759840E+01 0.  0.
     999903    2    3    3    0    0 -0.10248175170E+00  0.13185921729E-01  0.71987803888E-01  0.12711340303E+00  0.17297264455E-01 0.  0.
         14    1    1    2    0    0 -0.21230038368E-01  0.12208193482E-01  0.28552254715E-02  0.24655766662E-01  0.00000000000E+00 0.  1.
     999901    1    3    3    0    0  0.12371179007E+00 -0.25394115211E-01 -0.74843029359E-01  0.89216083031E+00  0.88000000000E+00 0. -1.
        -11    1    4    4    0    0 -0.28036504406E-01  0.10859372363E-01  0.17117892615E-01  0.34601371591E-01  0.51100000000E-03 0.  1.
         11    1    4    4    0    0 -0.74445247297E-01  0.23265493664E-02  0.54869911273E-01  0.92512031440E-01  0.51100000000E-03 0. -1.
</event>
<event>
 8    1  0.1078274E+005  0.1043930E+01  0.7957747E-01            NaN
         13   -1    0    0    0    0  0.00000000000E+00  0.00000000000E+00  0.74505805969E-08  0.10566000000E+00  0.10566000000E+00 0.  1.
     999900   -1    0    0    0    0 -0.00000000000E+00 -0.00000000000E+00 -0.74505805969E-08  0.93827000000E+00  0.93827000000E+00 0. -1.
     999902    2    1    2    0    0  0.21864225725E-01 -0.89503106535E-02 -0.70117792451E-03  0.10202943473E+01  0.10200205444E+01 0.  0.
     999903    2    3    3    0    0  0.40373249628E-01 -0.31180334111E-01 -0.11992041422E+00  0.13178436751E+00  0.19595949933E-01 0.  0.
         14    1    1    2    0    0 -0.21864225725E-01  0.89503106535E-02  0.70117792451E-03  0.23635652685E-01  0.00000000000E+00 0. -1.
     999901    1    3    3    0    0 -0.18509023903E-01  0.22230023458E-01  0.11921923629E+00  0.88850997980E+00  0.88000000000E+00 0.  1.
        -11    1    4    4    0    0  0.71474118199E-02 -0.15663325522E-01 -0.28761084123E-01  0.33524414135E-01  0.51100000000E-03 0. -1.
         11    1    4    4    0    0  0.33225837808E-01 -0.15517008590E-01 -0.91159330093E-01  0.98259953377E-01  0.51100000000E-03 0.  1.
</event>
<event>
 8    1  0.1078274E+005  0.1043930E+01  0.7957747E-01            NaN
         13   -1    0    0    0    0  0.00000000000E+00  0.00000000000E+00  0.74505805969E-08  0.10566000000E+00  0.10566000000E+00 0. -1.
     999900   -1    0    0    0    0 -0.00000000000E+00 -0.00000000000E+00 -0.74505805969E-08  0.93827000000E+00  0.93827000000E+00 0. -1.
     999902    2    1    2    0    0  0.14315355870E-01  0.13066555137E-01 -0.14209442158E-01  0.10198972614E+01  0.10196140698E+01 0.  0.
     999903    2    3    3    0    0 -0.11997753561E+00 -0.65087840405E-02  0.39353012968E-01  0.12788453102E+00  0.19204695352E-01 0.  0.
         14    1    1    2    0    0 -0.14315355870E-01 -0.13066555137E-01  0.14209442158E-01  0.24032738573E-01  0.00000000000E+00 0.  1.
     999901    1    3    3    0    0  0.13429289148E+00  0.19575339178E-01 -0.53562455126E-01  0.89201273041E+00  0.88000000000E+00 0. -1.
        -11    1    4    4    0    0 -0.74297066499E-01 -0.10198430221E-01  0.31690700980E-01  0.81416360266E-01  0.51100000000E-03 0.  1.
         11    1    4    4    0    0 -0.45680469114E-01  0.36896461804E-02  0.76623119878E-02  0.46468170756E-01  0.51100000000E-03 0. -1.
</event>
<event>
 8    1  0.1078274E+005  0.1043930E+01  0.7957747E-01            NaN
         13   -1    0    0    0    0  0.00000000000E+00  0.00000000000E+00  0.74505805969E-08  0.10566000000E+00  0.10566000000E+00 0.  1.
     999900   -1    0    0    0    0 -0.00000000000E+00 -0.00000000000E+00 -0.74505805969E-08  0.93827000000E+00  0.93827000000E+00 0. -1.
     999902    2    1    2    0    0 -0.50604297563E-02 -0.12184319745E-01  0.18943195971E-01  0.10208451506E+01  0.10205841030E+01 0.  0.
     999903    2    3    3    0    0  0.29892147479E-01 -0.12338442226E+00  0.34396012379E-01  0.13302425935E+00  0.19877418600E-01 0.  0.
         14    1    1    2    0    0  0.50604297563E-02  0.12184319745E-01 -0.18943195971E-01  0.23084849373E-01  0.00000000000E+00 0. -1.
     999901    1    3    3    0    0 -0.34952577235E-01  0.11120010252E+00 -0.15452816407E-01  0.88782089128E+00  0.88000000000E+00 0.  1.
        -11    1    4    4    0    0  0.17606918659E-01 -0.51632137587E-01  0.23559878263E-01  0.59423986749E-01  0.51100000000E-03 0. -1.
         11    1    4    4    0    0  0.12285228820E-01 -0.71752284674E-01  0.10836134116E-01  0.73600272599E-01  0.51100000000E-03 0.  1.
</event>
<event>
 8    1  0.1078274E+005  0.1043930E+01  0.7957747E-01            NaN
         13   -1    0    0    0    0  0.00000000000E+00  0.00000000000E+00  0.74505805969E-08  0.10566000000E+00  0.10566000000E+00 0.  1.
     999900   -1    0    0    0    0 -0.00000000000E+00 -0.00000000000E+00 -0.74505805969E-08  0.93827000000E+00  0.93827000000E+00 0. -1.
     999902    2    1    2    0    0 -0.11110575096E-02  0.22164740235E-01  0.29775205113E-02  0.10215385778E+01  0.10212931461E+01 0.  0.
     999903    2    3    3    0    0 -0.71310204146E-01 -0.29270608764E-01 -0.10381857615E+00  0.13082037235E+00  0.19843369525E-01 0.  0.
         14    1    1    2    0    0  0.11110575096E-02 -0.22164740235E-01 -0.29775205113E-02  0.22391422171E-01  0.00000000000E+00 0. -1.
     999901    1    3    3    0    0  0.70199146637E-01  0.51435348998E-01  0.10679609666E+00  0.89071820548E+00  0.88000000000E+00 0.  1.
        -11    1    4    4    0    0 -0.51634423830E-01 -0.11115157718E-01 -0.68957962024E-01  0.86862662306E-01  0.51100000000E-03 0.  1.
         11    1    4    4    0    0 -0.19675780316E-01 -0.18155451046E-01 -0.34860614127E-01  0.43957710041E-01  0.51100000000E-03 0. -1.
</event>
<event>
 8    1  0.1078274E+005  0.1043930E+01  0.7957747E-01            NaN
         13   -1    0    0    0    0  0.00000000000E+00  0.00000000000E+00  0.74505805969E-08  0.10566000000E+00  0.10566000000E+00 0.  1.
     999900   -1    0    0    0    0 -0.00000000000E+00 -0.00000000000E+00 -0.74505805969E-08  0.93827000000E+00  0.93827000000E+00 0. -1.
     999902    2    1    2    0    0  0.10013493646E-01 -0.96020599738E-02  0.22948526075E-01  0.10171138769E+01  0.10167603130E+01 0.  0.
     999903    2    3    3    0    0  0.12565970126E+00  0.20365796412E-01  0.55917086883E-02  0.12887214352E+00  0.19277862573E-01 0.  0.
         14    1    1    2    0    0 -0.10013493646E-01  0.96020599738E-02 -0.22948526075E-01  0.26816123130E-01  0.00000000000E+00 0. -1.
     999901    1    3    3    0    0 -0.11564620761E+00 -0.29967856386E-01  0.17356817386E-01  0.88824173335E+00  0.88000000000E+00 0.  1.
        -11    1    4    4    0    0  0.75747178116E-01  0.47965918911E-02  0.92249102410E-02  0.76459154954E-01  0.51100000000E-03 0. -1.
         11    1    4    4    0    0  0.49912523144E-01  0.15569204521E-01 -0.36332015526E-02  0.52412988567E-01  0.51100000000E-03 0.  1.
</event>
<event>
 8    1  0.1078274E+005  0.1043930E+01  0.7957747E-01            NaN
         13   -1    0    0    0    0  0.00000000000E+00  0.00000000000E+00  0.74505805969E-08  0.10566000000E+00  0.10566000000E+00 0.  1.
     999900   -1    0    0    0    0 -0.00000000000E+00 -0.00000000000E+00 -0.74505805969E-08  0.93827000000E+00  0.93827000000E+00 0. -1.
     999902    2    1    2    0    0 -0.18168078540E-01  0.10549274561E-01  0.87396522980E-02  0.10211759280E+01  0.10209223908E+01 0.  0.
     999903    2    3    3    0    0 -0.11504556288E+00 -0.63138769088E-01  0.17843815267E-02  0.13277086802E+00  0.20073207940E-01 0.  0.
         14    1    1    2    0    0  0.18168078540E-01 -0.10549274561E-01 -0.87396522980E-02  0.22754072029E-01  0.00000000000E+00 0.  1.
     999901    1    3    3    0    0  0.96877484343E-01  0.73688043650E-01  0.69552707713E-02  0.88840505995E+00  0.88000000000E+00 0.  1.
        -11    1    4    4    0    0 -0.56213776828E-01 -0.37080916587E-01  0.93148761212E-02  0.67985374297E-01  0.51100000000E-03 0. -1.
         11    1    4    4    0    0 -0.58831786055E-01 -0.26057852502E-01 -0.75304945945E-02  0.64785493726E-01  0.51100000000E-03 0.  1.
</event>
<event>
 8    1  0.1078274E+005  0.1043930E+01  0.7957747E-01            NaN
         13   -1    0    0    0    0  0.00000000000E+00  0.00000000000E+00  0.74505805969E-08  0.10566000000E+00  0.10566000000E+00 0. -1.
     999900   -1    0    0    0    0 -0.00000000000E+00 -0.00000000000E+00 -0.74505805969E-08  0.93827000000E+00  0.93827000000E+00 0. -1.
     999902    2    1    2    0    0 -0.83909042917E-02 -0.18952634796E-01 -0.10639566340E-01  0.10206317165E+01  0.10203657632E+01 0.  0.
     999903    2    3    3    0    0  0.49068035896E-02 -0.85326825028E-01  0.97732130748E-01  0.13140351922E+00  0.20262568760E-01 0.  0.
         14    1    1    2    0    0  0.83909042917E-02  0.18952634796E-01  0.10639566340E-01  0.23298283466E-01  0.00000000000E+00 0. -1.
     999901    1    3    3    0    0 -0.13297707881E-01  0.66374190231E-01 -0.10837169709E+00  0.88922819731E+00  0.88000000000E+00 0. -1.
        -11    1    4    4    0    0  0.12007465214E-01 -0.34930890535E-01  0.41093568938E-01  0.55256573034E-01  0.51100000000E-03 0. -1.
         11    1    4    4    0    0 -0.71006616243E-02 -0.50395934493E-01  0.56638561810E-01  0.76146946188E-01  0.51100000000E-03 0.  1.
</event>
<event>
 8    1  0.1078274E+005  0.1043930E+01  0.7957747E-01            NaN
         13   -1    0    0    0    0  0.00000000000E+00  0.00000000000E+00  0.74505805969E-08  0.10566000000E+00  0.10566000000E+00 0. -1.
     999900   -1    0    0    0    0 -0.00000000000E+00 -0.00000000000E+00 -0.74505805969E-08  0.93827000000E+00  0.93827000000E+00 0.  1.
     999902    2    1    2    0    0  0.33195379685E-03 -0.12519585258E-01  0.21868762072E-01  0.10187289492E+01  0.10184171930E+01 0.  0.
     999903    2    3    3    0    0 -0.68900722973E-02 -0.12606363499E+00 -0.24375557740E-01  0.13020042064E+00  0.20456504025E-01 0.  0.
         14    1    1    2    0    0 -0.33195379685E-03  0.12519585258E-01 -0.21868762072E-01  0.25201050830E-01  0.00000000000E+00 0.  1.
     999901    1    3    3    0    0  0.72220260941E-02  0.11354404973E+00  0.46244319812E-01  0.88852852853E+00  0.88000000000E+00 0. -1.
        -11    1    4    4    0    0  0.29689342886E-03 -0.18774477050E-01  0.35187220445E-02  0.19110511768E-01  0.51100000000E-03 0. -1.
         11    1    4    4    0    0 -0.71869657261E-02 -0.10728915794E+00 -0.27894279785E-01  0.11108990888E+00  0.51100000000E-03 0.  1.
</event>
<event>
 8    1  0.1078274E+005  0.1043930E+01  0.7957747E-01            NaN
         13   -1    0    0    0    0  0.00000000000E+00  0.00000000000E+00  0.74505805969E-08  0.10566000000E+00  0.10566000000E+00 0.  1.
     999900   -1    0    0    0    0 -0.00000000000E+00 -0.00000000000E+00 -0.74505805969E-08  0.93827000000E+00  0.93827000000E+00 0. -1.
     999902    2    1    2    0    0  0.11095917362E-01 -0.23756570746E-01  0.44023655585E-02  0.10173428817E+01  0.10169954101E+01 0.  0.
     999903    2    3    3    0    0 -0.54059960241E-01 -0.10149990291E+00  0.56827952608E-01  0.12996598533E+00  0.20905299627E-01 0.  0.
         14    1    1    2    0    0 -0.11095917362E-01  0.23756570746E-01 -0.44023655585E-02  0.26587118277E-01  0.00000000000E+00 0. -1.
     999901    1    3    3    0    0  0.65155877603E-01  0.77743332162E-01 -0.52425587049E-01  0.88737689640E+00  0.88000000000E+00 0.  1.
        -11    1    4    4    0    0 -0.44979694006E-01 -0.87639610411E-01  0.56118905412E-01  0.11337313108E+00  0.51100000000E-03 0.  1.
         11    1    4    4    0    0 -0.90802662350E-02 -0.13860292498E-01  0.70904719581E-03  0.16592854243E-01  0.51100000000E-03 0. -1.
</event>
<event>
 8    1  0.1078274E+005  0.1043930E+01  0.7957747E-01            NaN
         13   -1    0    0    0    0  0.00000000000E+00  0.00000000000E+00  0.74505805969E-08  0.10566000000E+00  0.10566000000E+00 0.  1.
     999900   -1    0    0    0    0 -0.00000000000E+00 -0.00000000000E+00 -0.74505805969E-08  0.93827000000E+00  0.93827000000E+00 0. -1.
     999902    2    1    2    0    0  0.14090205723E-02 -0.23811821055E-01 -0.11249778161E-01  0.10175568002E+01  0.10172149703E+01 0.  0.
     999903    2    3    3    0    0 -0.55938103481E-01 -0.11580618987E+00  0.11836182682E-01  0.13060436732E+00  0.19423195140E-01 0.  0.
         14    1    1    2    0    0 -0.14090205723E-02  0.23811821055E-01  0.11249778161E-01  0.26373199836E-01  0.00000000000E+00 0. -1.
     999901    1    3    3    0    0  0.57347124053E-01  0.91994368820E-01 -0.23085960844E-01  0.88695243284E+00  0.88000000000E+00 0. -1.
        -11    1    4    4    0    0 -0.51045516657E-01 -0.10796304110E+00  0.15930757553E-01  0.12048117352E+00  0.51100000000E-03 0. -1.
         11    1    4    4    0    0 -0.48925868236E-02 -0.78431487733E-02 -0.40945748709E-02  0.10123193808E-01  0.51100000000E-03 0.  1.
</event>
<event>
 8    1  0.1078274E+005  0.1043930E+01  0.7957747E-01            NaN
         13   -1    0    0    0    0  0.00000000000E+00  0.00000000000E+00  0.74505805969E-08  0.10566000000E+00  0.10566000000E+00 0.  1.
     999900   -1    0    0    0    0 -0.00000000000E+00 -0.00000000000E+00 -0.74505805969E-08  0.93827000000E+00  0.93827000000E+00 0.  1.
     999902    2    1    2    0    0  0.11987505189E-01 -0.14087568492E-01 -0.78083985223E-02  0.10238518787E+01  0.10236549900E+01 0.  0.
     999903    2    3    3    0    0  0.10953466420E+00 -0.73735653620E-01 -0.27771508515E-01  0.13623041207E+00  0.18779755351E-01 0.  0.
         14    1    1    2    0    0 -0.11987505189E-01  0.14087568492E-01  0.78083985223E-02  0.20078121281E-01  0.00000000000E+00 0. -1.
     999901    1    3    3    0    0 -0.97547159015E-01  0.59648085128E-01  0.19963109993E-01  0.88762146665E+00  0.88000000000E+00 0.  1.
        -11    1    4    4    0    0  0.86984222129E-01 -0.50567304960E-01 -0.25605027573E-01  0.10382285774E+00  0.51100000000E-03 0.  1.
         11    1    4    4    0    0  0.22550442076E-01 -0.23168348660E-01 -0.21664809416E-02  0.32407554337E-01  0.51100000000E-03 0. -1.
</event>
<event>
 8    1  0.1078274E+005  0.1043930E+01  0.7957747E-01            NaN
         13   -1    0    0    0    0  0.00000000000E+00  0.00000000000E+00  0.74505805969E-08  0.10566000000E+00  0.10566000000E+00 0.  1.
     999900   -1    0    0    0    0 -0.00000000000E+00 -0.00000000000E+00 -0.74505805969E-08  0.93827000000E+00  0.93827000000E+00 0.  1.
     999902    2    1    2    0    0 -0.94780671565E-02  0.14376366716E-01  0.12200813397E-01  0.10228261254E+01  0.10226083851E+01 0.  0.
     999903    2    3    3    0    0  0.22441616171E-01  0.26648392106E-01 -0.12524237731E+00  0.13150121297E+00  0.19828086118E-01 0.  0.
         14    1    1    2    0    0  0.94780671565E-02 -0.14376366716E-01 -0.12200813397E-01  0.21103874633E-01  0.00000000000E+00 0.  1.
     999901    1    3    3    0    0 -0.31919683327E-01 -0.12272025390E-01  0.13744319071E+00  0.89132491240E+00  0.88000000000E+00 0. -1.
        -11    1    4    4    0    0  0.19986503896E-01  0.15020156270E-01 -0.57206615249E-01  0.62433351517E-01  0.51100000000E-03 0. -1.
         11    1    4    4    0    0  0.24551122741E-02  0.11628235836E-01 -0.68035762063E-01  0.69067861451E-01  0.51100000000E-03 0.  1.
</event>
<event>
 8    1  0.1078274E+005  0.1043930E+01  0.7957747E-01            NaN
         13   -1    0    0    0    0  0.00000000000E+00  0.00000000000E+00  0.74505805969E-08  0.10566000000E+00  0.10566000000E+00 0. -1.
     999900   -1    0    0    0    0 -0.00000000000E+00 -0.00000000000E+00 -0.74505805969E-08  0.93827000000E+00  0.93827000000E+00 0.  1.
     999902    2    1    2    0    0  0.10559732844E-01 -0.77964682550E-02  0.18415649542E-01  0.10213152034E+01  0.10210647951E+01 0.  0.
     999903    2    3    3    0    0  0.65541877498E-01  0.10997211536E+00 -0.18086690704E-01  0.13102036669E+00  0.21203873300E-01 0.  0.
         14    1    1    2    0    0 -0.10559732844E-01  0.77964682550E-02 -0.18415649542E-01  0.22614796551E-01  0.00000000000E+00 0.  1.
     999901    1    3    3    0    0 -0.54982144654E-01 -0.11776858362E+00  0.36502340246E-01  0.89029483676E+00  0.88000000000E+00 0. -1.
        -11    1    4    4    0    0  0.51285208326E-01  0.71003394826E-01 -0.59840297210E-02  0.87793646710E-01  0.51100000000E-03 0.  1.
         11    1    4    4    0    0  0.14256669172E-01  0.38968720539E-01 -0.12102660983E-01  0.43226719979E-01  0.51100000000E-03 0. -1.
</event>
<event>
 8    1  0.1118690E+005  0.1043930E+01  0.7957747E-01            NaN
         13   -1    0    0    0    0  0.00000000000E+00  0.00000000000E+00  0.74505805969E-08  0.10566000000E+00  0.10566000000E+00 0. -1.
     999900   -1    0    0    0    0 -0.00000000000E+00 -0.00000000000E+00 -0.74505805969E-08  0.93827000000E+00  0.93827000000E+00 0.  1.
     999902    2    1    2    0    0 -0.18642838280E-01 -0.96095934181E-02 -0.11118079028E-01  0.10201916052E+01  0.10199153886E+01 0.  0.
     999903    2    3    3    0    0  0.51865890337E-01  0.56276049947E-02 -0.11814504328E+00  0.13077695272E+00  0.20557713737E-01 0.  0.
         14    1    1    2    0    0  0.18642838280E-01  0.96095934181E-02  0.11118079028E-01  0.23738394766E-01  0.00000000000E+00 0. -1.
     999901    1    3    3    0    0 -0.70508728617E-01 -0.15237198413E-01  0.10702696425E+00  0.88941465251E+00  0.88000000000E+00 0. -1.
        -11    1    4    4    0    0  0.12270623727E-01  0.36440037772E-02 -0.52906161956E-01  0.54435007707E-01  0.51100000000E-03 0.  1.
         11    1    4    4    0    0  0.39595266610E-01  0.19836012175E-02 -0.65238881320E-01  0.76341945015E-01  0.51100000000E-03 0. -1.
</event>
<event>
 8    1  0.1078274E+005  0.1043930E+01  0.7957747E-01            NaN
         13   -1    0    0    0    0  0.00000000000E+00  0.00000000000E+00  0.74505805969E-08  0.10566000000E+00  0.10566000000E+00 0.  1.
     999900   -1    0    0    0    0 -0.00000000000E+00 -0.00000000000E+00 -0.74505805969E-08  0.93827000000E+00  0.93827000000E+00 0.  1.
     999902    2    1    2    0    0 -0.23375052016E-01 -0.58159147475E-03  0.62972232524E-04  0.10205476291E+01  0.10202797302E+01 0.  0.
     999903    2    3    3    0    0 -0.24466394898E-01  0.12169090646E+00  0.38023160366E-01  0.13128235330E+00  0.19545187903E-01 0.  0.
         14    1    1    2    0    0  0.23375052016E-01  0.58159147475E-03 -0.62972232524E-04  0.23382370943E-01  0.00000000000E+00 0.  1.
     999901    1    3    3    0    0  0.10913428823E-02 -0.12227249793E+00 -0.37960188134E-01  0.88926527575E+00  0.88000000000E+00 0.  1.
        -11    1    4    4    0    0 -0.25420369045E-01  0.95648090721E-01  0.35293710167E-01  0.10507454268E+00  0.51100000000E-03 0. -1.
         11    1    4    4    0    0  0.95397414643E-03  0.26042815738E-01  0.27294501988E-02  0.26207810623E-01  0.51100000000E-03 0.  1.
</event>
<event>
 8    1  0.1078274E+005  0.1043930E+01  0.7957747E-01            NaN
         13   -1    0    0    0    0  0.00000000000E+00  0.00000000000E+00  0.74505805969E-08  0.10566000000E+00  0.10566000000E+00 0.  1.
     999900   -1    0    0    0    0 -0.00000000000E+00 -0.00000000000E+00 -0.74505805969E-08  0.93827000000E+00  0.93827000000E+00 0. -1.
     999902    2    1    2    0    0  0.75526012756E-02  0.74925303964E-02 -0.21540129081E-01  0.10199059088E+01  0.10196229234E+01 0.  0.
     999903    2    3    3    0    0 -0.57058246039E-01 -0.79219724972E-01  0.79536273813E-01  0.12754386564E+00  0.20248717133E-01 0.  0.
         14    1    1    2    0    0 -0.75526012756E-02 -0.74925303964E-02  0.21540129081E-01  0.24024091212E-01  0.00000000000E+00 0.  1.
     999901    1    3    3    0    0  0.64610847315E-01  0.86712255369E-01 -0.10107640289E+00  0.89236204314E+00  0.88000000000E+00 0. -1.
        -11    1    4    4    0    0 -0.16466797056E-01 -0.31189227872E-01  0.39673837692E-01  0.53086701336E-01  0.51100000000E-03 0.  1.
         11    1    4    4    0    0 -0.40591448983E-01 -0.48030497100E-01  0.39862436121E-01  0.74457164308E-01  0.51100000000E-03 0. -1.
</event>
<event>
 8    1  0.1078274E+005  0.1043930E+01  0.7957747E-01            NaN
         13   -1    0    0    0    0  0.00000000000E+00  0.00000000000E+00  0.74505805969E-08  0.10566000000E+00  0.10566000000E+00 0.  1.
     999900   -1    0    0    0    0 -0.00000000000E+00 -0.00000000000E+00 -0.74505805969E-08  0.93827000000E+00  0.93827000000E+00 0.  1.
     999902    2    1    2    0    0 -0.76458973398E-02  0.16391711534E-01  0.15133979462E-01  0.10203464191E+01  0.10200738354E+01 0.  0.
     999903    2    3    3    0    0  0.87223394703E-01 -0.10613092784E-01 -0.91657845074E-01  0.12841932802E+00  0.19230312651E-01 0.  0.
         14    1    1    2    0    0  0.76458973398E-02 -0.16391711534E-01 -0.15133979462E-01  0.23583580888E-01  0.00000000000E+00 0. -1.
     999901    1    3    3    0    0 -0.94869292043E-01  0.27004804318E-01  0.10679182454E+00  0.89192709109E+00  0.88000000000E+00 0. -1.
        -11    1    4    4    0    0  0.10204036031E-01 -0.47214686544E-02 -0.49556433461E-02  0.12297729041E-01  0.51100000000E-03 0. -1.
         11    1    4    4    0    0  0.77019358672E-01 -0.58916241300E-02 -0.86702201728E-01  0.11612159898E+00  0.51100000000E-03 0.  1.
</event>
<event>
 8    1  0.1078274E+005  0.1043930E+01  0.7957747E-01            NaN
         13   -1    0    0    0    0  0.00000000000E+00  0.00000000000E+00  0.74505805969E-08  0.10566000000E+00  0.10566000000E+00 0.  1.
     999900   -1    0    0    0    0 -0.00000000000E+00 -0.00000000000E+00 -0.74505805969E-08  0.93827000000E+00  0.93827000000E+00 0. -1.
     999902    2    1    2    0    0  0.43529872664E-02  0.20435782298E-01  0.89230851625E-02  0.10212101597E+01  0.10209573934E+01 0.  0.
     999903    2    3    3    0    0 -0.95262582358E-01 -0.56047709397E-01 -0.62715280303E-01  0.12941139221E+00  0.24449881895E-01 0.  0.
         14    1    1    2    0    0 -0.43529872664E-02 -0.20435782298E-01 -0.89230851625E-02  0.22719840341E-01  0.00000000000E+00 0. -1.
     999901    1    3    3    0    0  0.99615569624E-01  0.76483491696E-01  0.71638365466E-01  0.89179876745E+00  0.88000000000E+00 0. -1.
        -11    1    4    4    0    0 -0.24771723465E-01 -0.27638008828E-01 -0.22864032888E-01  0.43594987513E-01  0.51100000000E-03 0. -1.
         11    1    4    4    0    0 -0.70490858893E-01 -0.28409700570E-01 -0.39851247415E-01  0.85816404699E-01  0.51100000000E-03 0.  1.
</event>
<event>
 8    1  0.1078274E+005  0.1043930E+01  0.7957747E-01            NaN
         13   -1    0    0    0    0  0.00000000000E+00  0.00000000000E+00  0.74505805969E-08  0.10566000000E+00  0.10566000000E+00 0. -1.
     999900   -1    0    0    0    0 -0.00000000000E+00 -0.00000000000E+00 -0.74505805969E-08  0.93827000000E+00  0.93827000000E+00 0.  1.
     999902    2    1    2    0    0  0.12762560308E-01 -0.19349768839E-01  0.30050528449E-02  0.10205563644E+01  0.10202886680E+01 0.  0.
     999903    2    3    3    0    0 -0.10985462510E+00  0.35656918656E-01  0.53765630600E-01  0.12890769697E+00  0.19672234297E-01 0.  0.
         14    1    1    2    0    0 -0.12762560308E-01  0.19349768839E-01 -0.30050528449E-02  0.23373635625E-01  0.00000000000E+00 0. -1.
     999901    1    3    3    0    0  0.12261718540E+00 -0.55006687495E-01 -0.50760577755E-01  0.89164866740E+00  0.88000000000E+00 0.  1.
        -11    1    4    4    0    0 -0.23479544196E-01  0.12654548883E-01  0.52004900742E-02  0.27179639826E-01  0.51100000000E-03 0. -1.
         11    1    4    4    0    0 -0.86375080899E-01  0.23002369773E-01  0.48565140526E-01  0.10172805715E+00  0.51100000000E-03 0.  1.
</event>
<event>
 8    1  0.1078274E+005  0.1043930E+01  0.7957747E-01            NaN
         13   -1    0    0    0    0  0.00000000000E+00  0.00000000000E+00  0.74505805969E-08  0.10566000000E+00  0.10566000000E+00 0.  1.
     999900   -1    0    0    0    0 -0.00000000000E+00 -0.00000000000E+00 -0.74505805969E-08  0.93827000000E+00  0.93827000000E+00 0. -1.
     999902    2    1    2    0    0 -0.57824085818E-02 -0.19385362195E-01 -0.12653651410E-01  0.10200690819E+01  0.10197899728E+01 0.  0.
     999903    2    3    3    0    0  0.62334374597E-01 -0.91401578029E-01  0.67044331318E-01  0.13092454929E+00  0.20161163736E-01 0.  0.
         14    1    1    2    0    0  0.57824085818E-02  0.19385362195E-01  0.12653651410E-01  0.23860918055E-01  0.00000000000E+00 0. -1.
     999901    1    3    3    0    0 -0.68116783179E-01  0.72016215835E-01 -0.79697982728E-01  0.88914453265E+00  0.88000000000E+00 0. -1.
        -11    1    4    4    0    0  0.50162922521E-01 -0.58817001430E-01  0.41285313166E-01  0.87638442804E-01  0.51100000000E-03 0. -1.
         11    1    4    4    0    0  0.12171452076E-01 -0.32584576599E-01  0.25759018152E-01  0.43286106489E-01  0.51100000000E-03 0.  1.
</event>
<event>
 8    1  0.1078274E+005  0.1043930E+01  0.7957747E-01            NaN
         13   -1    0    0    0    0  0.00000000000E+00  0.00000000000E+00  0.74505805969E-08  0.10566000000E+00  0.10566000000E+00 0. -1.
     999900   -1    0    0    0    0 -0.00000000000E+00 -0.00000000000E+00 -0.74505805969E-08  0.93827000000E+00  0.93827000000E+00 0. -1.
     999902    2    1    2    0    0 -0.88838881643E-02  0.57358969926E-02  0.21584781799E-01  0.10198940522E+01  0.10196107840E+01 0.  0.
     999903    2    3    3    0    0  0.40163249881E-01 -0.93309644599E-01 -0.74750528878E-01  0.12776394217E+00  0.20401150368E-01 0.  0.
         14    1    1    2    0    0  0.88838881643E-02 -0.57358969926E-02 -0.21584781799E-01  0.24035947840E-01  0.00000000000E+00 0.  1.
     999901    1    3    3    0    0 -0.49047138046E-01  0.99045541591E-01  0.96335310677E-01  0.89213010999E+00  0.88000000000E+00 0.  1.
        -11    1    4    4    0    0  0.14974760681E-01 -0.37607174118E-01 -0.17836600250E-01  0.44237409871E-01  0.51100000000E-03 0.  1.
         11    1    4    4    0    0  0.25188489200E-01 -0.55702470481E-01 -0.56913928628E-01  0.83526532304E-01  0.51100000000E-03 0. -1.
</event>
<event>
 8    1  0.1078274E+005  0.1043930E+01  0.7957747E-01            NaN
         13   -1    0    0    0    0  0.00000000000E+00  0.00000000000E+00  0.74505805969E-08  0.10566000000E+00  0.10566000000E+00 0.  1.
     999900   -1    0    0    0    0 -0.00000000000E+00 -0.00000000000E+00 -0.74505805969E-08  0.93827000000E+00  0.93827000000E+00 0.  1.
     999902    2    1    2    0    0  0.13764985703E-01 -0.16989716662E-01 -0.10669027403E-01  0.10195999065E+01  0.10193095780E+01 0.  0.
     999903    2    3    3    0    0 -0.80520098336E-01 -0.10041506576E+00  0.66366073304E-02  0.13047170937E+00  0.20301495582E-01 0.  0.
         14    1    1    2    0    0 -0.13764985703E-01  0.16989716662E-01  0.10669027403E-01  0.24330093493E-01  0.00000000000E+00 0.  1.
     999901    1    3    3    0    0  0.94285084039E-01  0.83425349096E-01 -0.17305634733E-01  0.88912819713E+00  0.88000000000E+00 0.  1.
        -11    1    4    4    0    0 -0.21890559899E-01 -0.42731919723E-01  0.39598289913E-02  0.48178365918E-01  0.51100000000E-03 0. -1.
         11    1    4    4    0    0 -0.58629538437E-01 -0.57683146035E-01  0.26767783391E-02  0.82293343456E-01  0.51100000000E-03 0.  1.
</event>
<event>
 8    1  0.1078274E+005  0.1043930E+01  0.7957747E-01            NaN
         13   -1    0    0    0    0  0.00000000000E+00  0.00000000000E+00  0.74505805969E-08  0.10566000000E+00  0.10566000000E+00 0.  1.
     999900   -1    0    0    0    0 -0.00000000000E+00 -0.00000000000E+00 -0.74505805969E-08  0.93827000000E+00  0.93827000000E+00 0.  1.
     999902    2    1    2    0    0  0.81254845712E-02 -0.72837905345E-02  0.17006808573E-01  0.10237233515E+01  0.10235239088E+01 0.  0.
     999903    2    3    3    0    0 -0.39106308734E-01  0.11174254281E+00  0.58207826548E-01  0.13350111288E+00  0.20462082269E-01 0.  0.
         14    1    1    2    0    0 -0.81254845712E-02  0.72837905345E-02 -0.17006808573E-01  0.20206648458E-01  0.00000000000E+00 0. -1.
     999901    1    3    3    0    0  0.47231793305E-01 -0.11902633335E+00 -0.41201017974E-01  0.89022223866E+00  0.88000000000E+00 0.  1.
        -11    1    4    4    0    0 -0.10484429416E-01  0.53360326856E-01  0.19186564815E-01  0.57668302670E-01  0.51100000000E-03 0. -1.
         11    1    4    4    0    0 -0.28621879318E-01  0.58382215958E-01  0.39021261732E-01  0.75832810208E-01  0.51100000000E-03 0.  1.
</event>
<event>
 8    1  0.1078274E+005  0.1043930E+01  0.7957747E-01            NaN
         13   -1    0    0    0    0  0.00000000000E+00  0.00000000000E+00  0.74505805969E-08  0.10566000000E+00  0.10566000000E+00 0.  1.
     999900   -1    0    0    0    0 -0.00000000000E+00 -0.00000000000E+00 -0.74505805969E-08  0.93827000000E+00  0.93827000000E+00 0.  1.
     999902    2    1    2    0    0 -0.53489095828E-02  0.58926735942E-02 -0.24133196464E-01  0.10185184749E+01  0.10182014232E+01 0.  0.
     999903    2    3    3    0    0  0.53876665444E-01  0.98910642444E-01 -0.63635279268E-01  0.13075700593E+00  0.19024604159E-01 0.  0.
         14    1    1    2    0    0  0.53489095828E-02 -0.58926735942E-02  0.24133196464E-01  0.25411525089E-01  0.00000000000E+00 0.  1.
     999901    1    3    3    0    0 -0.59225575027E-01 -0.93017968850E-01  0.39502082804E-01  0.88776146898E+00  0.88000000000E+00 0. -1.
        -11    1    4    4    0    0  0.51903607022E-01  0.85023790382E-01 -0.51191201528E-01  0.11199923923E+00  0.51100000000E-03 0. -1.
         11    1    4    4    0    0  0.19730584227E-02  0.13886852062E-01 -0.12444077740E-01  0.18757766699E-01  0.51100000000E-03 0.  1.
</event>
<event>
 8    1  0.1078274E+005  0.1043930E+01  0.7957747E-01            NaN
         13   -1    0    0    0    0  0.00000000000E+00  0.00000000000E+00  0.74505805969E-08  0.10566000000E+00  0.10566000000E+00 0.  1.
     999900   -1    0    0    0    0 -0.00000000000E+00 -0.00000000000E+00 -0.74505805969E-08  0.93827000000E+00  0.93827000000E+00 0. -1.
     999902    2    1    2    0    0  0.92365640390E-02  0.14910208257E-01  0.85061826576E-02  0.10244368328E+01  0.10242513562E+01 0.  0.
     999903    2    3    3    0    0  0.62407134562E-01 -0.29772113834E-01  0.11463050478E+00  0.13534404164E+00  0.19920536543E-01 0.  0.
         14    1    1    2    0    0 -0.92365640390E-02 -0.14910208257E-01 -0.85061826576E-02  0.19493167237E-01  0.00000000000E+00 0. -1.
     999901    1    3    3    0    0 -0.53170570523E-01  0.44682322091E-01 -0.10612432212E+00  0.88909279112E+00  0.88000000000E+00 0. -1.
        -11    1    4    4    0    0  0.37706279247E-01 -0.14264480626E-01  0.83255751001E-01  0.92504162598E-01  0.51100000000E-03 0. -1.
         11    1    4    4    0    0  0.24700855316E-01 -0.15507633208E-01  0.31374753777E-01  0.42839879045E-01  0.51100000000E-03 0.  1.
</event>
<event>
 8    1  0.1078274E+005  0.1043930E+01  0.7957747E-01            NaN
         13   -1    0    0    0    0  0.00000000000E+00  0.00000000000E+00  0.74505805969E-08  0.10566000000E+00  0.10566000000E+00 0. -1.
     999900   -1    0    0    0    0 -0.00000000000E+00 -0.00000000000E+00 -0.74505805969E-08  0.93827000000E+00  0.93827000000E+00 0.  1.
     999902    2    1    2    0    0 -0.16047688344E-01  0.14240409451E-01 -0.10370936955E-01  0.10200998952E+01  0.10198215149E+01 0.  0.
     999903    2    3    3    0    0 -0.78704895665E-01  0.10461236602E+00 -0.12897326048E-01  0.13325188181E+00  0.21248888470E-01 0.  0.
         14    1    1    2    0    0  0.16047688344E-01 -0.14240409451E-01  0.10370936955E-01  0.23830104822E-01  0.00000000000E+00 0. -1.
     999901    1    3    3    0    0  0.62657207321E-01 -0.90371956574E-01  0.25263890932E-02  0.88684801336E+00  0.88000000000E+00 0. -1.
        -11    1    4    4    0    0 -0.42993611431E-01  0.43058271038E-01  0.42011515665E-03  0.60851482696E-01  0.51100000000E-03 0.  1.
         11    1    4    4    0    0 -0.35711284234E-01  0.61554094987E-01 -0.13317441205E-01  0.72400399119E-01  0.51100000000E-03 0. -1.
</event>
<event>
 8    1  0.1078274E+005  0.1043930E+01  0.7957747E-01            NaN
         13   -1    0    0    0    0  0.00000000000E+00  0.00000000000E+00  0.74505805969E-08  0.10566000000E+00  0.10566000000E+00 0.  1.
     999900   -1    0    0    0    0 -0.00000000000E+00 -0.00000000000E+00 -0.74505805969E-08  0.93827000000E+00  0.93827000000E+00 0.  1.
     999902    2    1    2    0    0 -0.10073823350E-02 -0.13426252601E-01  0.22102642902E-01  0.10180493914E+01  0.10177203729E+01 0.  0.
     999903    2    3    3    0    0 -0.82956503242E-01 -0.52905874161E-01 -0.77590493483E-01  0.12776122436E+00  0.24936575949E-01 0.  0.
         14    1    1    2    0    0  0.10073823350E-02  0.13426252601E-01 -0.22102642902E-01  0.25880608596E-01  0.00000000000E+00 0. -1.
     999901    1    3    3    0    0  0.81949120907E-01  0.39479621559E-01  0.99693136385E-01  0.89028816704E+00  0.88000000000E+00 0. -1.
        -11    1    4    4    0    0 -0.48309308497E-01 -0.16367448815E-01 -0.35732658383E-01  0.62279745217E-01  0.51100000000E-03 0. -1.
         11    1    4    4    0    0 -0.34647194745E-01 -0.36538425346E-01 -0.41857835101E-01  0.65481479143E-01  0.51100000000E-03 0.  1.
</event>
<event>
 8    1  0.1078274E+005  0.1043930E+01  0.7957747E-01            NaN
         13   -1    0    0    0    0  0.00000000000E+00  0.00000000000E+00  0.74505805969E-08  0.10566000000E+00  0.10566000000E+00 0.  1.
     999900   -1    0    0    0    0 -0.00000000000E+00 -0.00000000000E+00 -0.74505805969E-08  0.93827000000E+00  0.93827000000E+00 0. -1.
     999902    2    1    2    0    0  0.46255679001E-02  0.13572608201E-01 -0.18146290911E-01  0.10208021068E+01  0.10205400736E+01 0.  0.
     999903    2    3    3    0    0  0.31379848061E-01 -0.93953180842E-01 -0.84035175207E-01  0.13140965577E+00  0.19866854353E-01 0.  0.
         14    1    1    2    0    0 -0.46255679001E-02 -0.13572608201E-01  0.18146290911E-01  0.23127893237E-01  0.00000000000E+00 0.  1.
     999901    1    3    3    0    0 -0.26754280161E-01  0.10752578904E+00  0.65888884297E-01  0.88939245100E+00  0.88000000000E+00 0.  1.
        -11    1    4    4    0    0  0.83034007717E-02 -0.26453852923E-01 -0.35851015880E-01  0.45324488519E-01  0.51100000000E-03 0. -1.
         11    1    4    4    0    0  0.23076447289E-01 -0.67499327919E-01 -0.48184159327E-01  0.86085167247E-01  0.51100000000E-03 0.  1.
</event>
<event>
 8    1  0.1078274E+005  0.1043930E+01  0.7957747E-01            NaN
         13   -1    0    0    0    0  0.00000000000E+00  0.00000000000E+00  0.74505805969E-08  0.10566000000E+00  0.10566000000E+00 0.  1.
     999900   -1    0    0    0    0 -0.00000000000E+00 -0.00000000000E+00 -0.74505805969E-08  0.93827000000E+00  0.93827000000E+00 0.  1.
     999902    2    1    2    0    0  0.34553758306E-02 -0.21783253596E-01 -0.83423389203E-02  0.10203494067E+01  0.10200768929E+01 0.  0.
     999903    2    3    3    0    0  0.88121624854E-01  0.86161477026E-01  0.32904407999E-01  0.12876557293E+00  0.17568489308E-01 0.  0.
         14    1    1    2    0    0 -0.34553758306E-02  0.21783253596E-01  0.83423389203E-02  0.23580593250E-01  0.00000000000E+00 0.  1.
     999901    1    3    3    0    0 -0.84666249023E-01 -0.10794473062E+00 -0.41246746920E-01  0.89158383382E+00  0.88000000000E+00 0. -1.
        -11    1    4    4    0    0  0.46426971936E-01  0.42194971781E-01  0.25487941959E-01  0.67718355511E-01  0.51100000000E-03 0. -1.
         11    1    4    4    0    0  0.41694652918E-01  0.43966505245E-01  0.74164660403E-02  0.61047217422E-01  0.51100000000E-03 0.  1.
</event>
<event>
 8    1  0.1078274E+005  0.1043930E+01  0.7957747E-01            NaN
         13   -1    0    0    0    0  0.00000000000E+00  0.00000000000E+00  0.74505805969E-08  0.10566000000E+00  0.10566000000E+00 0.  1.
     999900   -1    0    0    0    0 -0.00000000000E+00 -0.00000000000E+00 -0.74505805969E-08  0.93827000000E+00  0.93827000000E+00 0. -1.
     999902    2    1    2    0    0 -0.13047240823E-01  0.18287667674E-01  0.95807130512E-02  0.10195074828E+01  0.10192149176E+01 0.  0.
     999903    2    3    3    0    0 -0.41340080394E-01  0.11896840336E+00  0.36292849916E-01  0.13291251693E+00  0.22047289119E-01 0.  0.
         14    1    1    2    0    0  0.13047240823E-01 -0.18287667674E-01 -0.95807130512E-02  0.24422517164E-01  0.00000000000E+00 0. -1.
     999901    1    3    3    0    0  0.28292839572E-01 -0.10068073569E+00 -0.26712136864E-01  0.88659496590E+00  0.88000000000E+00 0.  1.
        -11    1    4    4    0    0 -0.18087070029E-01  0.53122717909E-01  0.48545412821E-02  0.56329325865E-01  0.51100000000E-03 0.  1.
         11    1    4    4    0    0 -0.23253010365E-01  0.65845685450E-01  0.31438308634E-01  0.76583191068E-01  0.51100000000E-03 0. -1.
</event>
<event>
 8    1  0.1078274E+005  0.1043930E+01  0.7957747E-01            NaN
         13   -1    0    0    0    0  0.00000000000E+00  0.00000000000E+00  0.74505805969E-08  0.10566000000E+00  0.10566000000E+00 0. -1.
     999900   -1    0    0    0    0 -0.00000000000E+00 -0.00000000000E+00 -0.74505805969E-08  0.93827000000E+00  0.93827000000E+00 0.  1.
     999902    2    1    2    0    0  0.30883993579E-01 -0.89871532983E-02  0.13461483981E-01  0.10090616543E+01  0.10084590327E+01 0.  0.
     999903    2    3    3    0    0 -0.22086496335E-01 -0.87983592474E-01  0.78300902257E-01  0.12156491603E+00  0.20446800484E-01 0.  0.
         14    1    1    2    0    0 -0.30883993579E-01  0.89871532983E-02 -0.13461483981E-01  0.34868345742E-01  0.00000000000E+00 0.  1.
     999901    1    3    3    0    0  0.52970489914E-01  0.78996439175E-01 -0.64839418277E-01  0.88749673823E+00  0.88000000000E+00 0. -1.
        -11    1    4    4    0    0  0.12236659383E-02 -0.32091649935E-01  0.31937640231E-01  0.45295091769E-01  0.51100000000E-03 0. -1.
         11    1    4    4    0    0 -0.23310162273E-01 -0.55891942539E-01  0.46363262027E-01  0.76269824261E-01  0.51100000000E-03 0.  1.
</event>
<event>
 8    1  0.1078274E+005  0.1043930E+01  0.7957747E-01            NaN
         13   -1    0    0    0    0  0.00000000000E+00  0.00000000000E+00  0.74505805969E-08  0.10566000000E+00  0.10566000000E+00 0. -1.
     999900   -1    0    0    0    0 -0.00000000000E+00 -0.00000000000E+00 -0.74505805969E-08  0.93827000000E+00  0.93827000000E+00 0. -1.
     999902    2    1    2    0    0 -0.14219284783E-01  0.86937210237E-03 -0.18151119402E-01  0.10208560536E+01  0.10205952553E+01 0.  0.
     999903    2    3    3    0    0 -0.79062837603E-01 -0.80378856565E-01 -0.68176844687E-01  0.13332659819E+00  0.20401146067E-01 0.  0.
         14    1    1    2    0    0  0.14219284783E-01 -0.86937210237E-03  0.18151119402E-01  0.23073946415E-01  0.00000000000E+00 0.  1.
     999901    1    3    3    0    0  0.64843552820E-01  0.81248228667E-01  0.50025725285E-01  0.88752945540E+00  0.88000000000E+00 0.  1.
        -11    1    4    4    0    0 -0.57192506421E-01 -0.47098351149E-01 -0.37410052729E-01  0.83000064084E-01  0.51100000000E-03 0. -1.
         11    1    4    4    0    0 -0.21870331182E-01 -0.33280505416E-01 -0.30766791959E-01  0.50326534106E-01  0.51100000000E-03 0.  1.
</event>
<event>
 8    1  0.1078274E+005  0.1043930E+01  0.7957747E-01            NaN
         13   -1    0    0    0    0  0.00000000000E+00  0.00000000000E+00  0.74505805969E-08  0.10566000000E+00  0.10566000000E+00 0. -1.
     999900   -1    0    0    0    0 -0.00000000000E+00 -0.00000000000E+00 -0.74505805969E-08  0.93827000000E+00  0.93827000000E+00 0.  1.
     999902    2    1    2    0    0 -0.50419513149E-02  0.13935964064E-01 -0.19428063375E-01  0.10194947383E+01  0.10192018639E+01 0.  0.
     999903    2    3    3    0    0 -0.14047813744E-01 -0.87249699142E-01 -0.93940181046E-01  0.13052246671E+00  0.20037605366E-01 0.  0.
         14    1    1    2    0    0  0.50419513149E-02 -0.13935964064E-01  0.19428063375E-01  0.24435261692E-01  0.00000000000E+00 0. -1.
     999901    1    3    3    0    0  0.90058624289E-02  0.10118566321E+00  0.74512117671E-01  0.88897227160E+00  0.88000000000E+00 0.  1.
        -11    1    4    4    0    0 -0.12424480448E-01 -0.25160004086E-01 -0.23465636604E-01  0.36582656304E-01  0.51100000000E-03 0.  1.
         11    1    4    4    0    0 -0.16233332954E-02 -0.62089695056E-01 -0.70474544442E-01  0.93939810403E-01  0.51100000000E-03 0. -1.
</event>
<event>
 8    1  0.1078274E+005  0.1043930E+01  0.7957747E-01            NaN
         13   -1    0    0    0    0  0.00000000000E+00  0.00000000000E+00  0.74505805969E-08  0.10566000000E+00  0.10566000000E+00 0. -1.
     999900   -1    0    0    0    0 -0.00000000000E+00 -0.00000000000E+00 -0.74505805969E-08  0.93827000000E+00  0.93827000000E+00 0. -1.
     999902    2    1    2    0    0  0.23042208030E-01  0.15156933501E-02 -0.60407800156E-02  0.10200609468E+01  0.10197816450E+01 0.  0.
     999903    2    3    3    0    0 -0.13796438438E-01  0.59612394002E-01 -0.11399319341E+00  0.13079943518E+00  0.19237070127E-01 0.  0.
         14    1    1    2    0    0 -0.23042208030E-01 -0.15156933501E-02  0.60407800156E-02  0.23869053195E-01  0.00000000000E+00 0.  1.
     999901    1    3    3    0    0  0.36838646468E-01 -0.58096700652E-01  0.10795241340E+00  0.88926151163E+00  0.88000000000E+00 0.  1.
        -11    1    4    4    0    0 -0.41383734055E-02  0.50477282131E-01 -0.86018788114E-01  0.99822718733E-01  0.51100000000E-03 0. -1.
         11    1    4    4    0    0 -0.96580650320E-02  0.91351118712E-02 -0.27974405297E-01  0.30976716446E-01  0.51100000000E-03 0.  1.
</event>
<event>
 8    1  0.1078274E+005  0.1043930E+01  0.7957747E-01            NaN
         13   -1    0    0    0    0  0.00000000000E+00  0.00000000000E+00  0.74505805969E-08  0.10566000000E+00  0.10566000000E+00 0.  1.
     999900   -1    0    0    0    0 -0.00000000000E+00 -0.00000000000E+00 -0.74505805969E-08  0.93827000000E+00  0.93827000000E+00 0.  1.
     999902    2    1    2    0    0 -0.81044570666E-02  0.22437758842E-01  0.19855993021E-02  0.10199909555E+01  0.10197099938E+01 0.  0.
     999903    2    3    3    0    0 -0.93357010738E-01 -0.26102173886E-02  0.89905854402E-01  0.13115724200E+00  0.19920210472E-01 0.  0.
         14    1    1    2    0    0  0.81044570666E-02 -0.22437758842E-01 -0.19855993021E-02  0.23939044484E-01  0.00000000000E+00 0.  1.
     999901    1    3    3    0    0  0.85252553671E-01  0.25047976231E-01 -0.87920255100E-01  0.88883371351E+00  0.88000000000E+00 0.  1.
        -11    1    4    4    0    0 -0.60181892869E-01  0.15897832029E-02  0.44991151871E-01  0.75158848498E-01  0.51100000000E-03 0.  1.
         11    1    4    4    0    0 -0.33175117869E-01 -0.42000005915E-02  0.44914702532E-01  0.55998393504E-01  0.51100000000E-03 0. -1.
</event>
<event>
 8    1  0.1078274E+005  0.1043930E+01  0.7957747E-01            NaN
         13   -1    0    0    0    0  0.00000000000E+00  0.00000000000E+00  0.74505805969E-08  0.10566000000E+00  0.10566000000E+00 0.  1.
     999900   -1    0    0    0    0 -0.00000000000E+00 -0.00000000000E+00 -0.74505805969E-08  0.93827000000E+00  0.93827000000E+00 0.  1.
     999902    2    1    2    0    0 -0.62398787758E-02 -0.10982785049E-01  0.20353914733E-01  0.10199750527E+01  0.10196937132E+01 0.  0.
     999903    2    3    3    0    0  0.54772893388E-02 -0.11599307720E+00 -0.55312457649E-01  0.13043030769E+00  0.21637988244E-01 0.  0.
         14    1    1    2    0    0  0.62398787758E-02  0.10982785049E-01 -0.20353914733E-01  0.23954947287E-01  0.00000000000E+00 0. -1.
     999901    1    3    3    0    0 -0.11717168115E-01  0.10501029216E+00  0.75666372382E-01  0.88954474502E+00  0.88000000000E+00 0. -1.
        -11    1    4    4    0    0  0.65307619789E-02 -0.57928706762E-01 -0.16532665903E-01  0.60596832277E-01  0.51100000000E-03 0.  1.
         11    1    4    4    0    0 -0.10534726401E-02 -0.58064370442E-01 -0.38779791746E-01  0.69833475414E-01  0.51100000000E-03 0. -1.
</event>
<event>
 8    1  0.1078274E+005  0.1043930E+01  0.7957747E-01            NaN
         13   -1    0    0    0    0  0.00000000000E+00  0.00000000000E+00  0.74505805969E-08  0.10566000000E+00  0.10566000000E+00 0.  1.
     999900   -1    0    0    0    0 -0.00000000000E+00 -0.00000000000E+00 -0.74505805969E-08  0.93827000000E+00  0.93827000000E+00 0.  1.
     999902    2    1    2    0    0 -0.14758973893E-01 -0.17817742417E-01 -0.56724766650E-02  0.10201082401E+01  0.10198300570E+01 0.  0.
     999903    2    3    3    0    0  0.65501681958E-01  0.10735004465E+00  0.65513139348E-02  0.12755114449E+00  0.20294637718E-01 0.  0.
         14    1    1    2    0    0  0.14758973893E-01  0.17817742417E-01  0.56724766650E-02  0.23821759942E-01  0.00000000000E+00 0.  1.
     999901    1    3    3    0    0 -0.80260655851E-01 -0.12516778707E+00 -0.12223790600E-01  0.89255709557E+00  0.88000000000E+00 0.  1.
        -11    1    4    4    0    0  0.11157398374E-01  0.18780064317E-01  0.89418667645E-02  0.23609245148E-01  0.51100000000E-03 0. -1.
         11    1    4    4    0    0  0.54344283584E-01  0.88569980334E-01 -0.23905528297E-02  0.10394189934E+00  0.51100000000E-03 0.  1.
</event>
<event>
 8    1  0.1078274E+005  0.1043930E+01  0.7957747E-01            NaN
         13   -1    0    0    0    0  0.00000000000E+00  0.00000000000E+00  0.74505805969E-08  0.10566000000E+00  0.10566000000E+00 0. -1.
     999900   -1    0    0    0    0 -0.00000000000E+00 -0.00000000000E+00 -0.74505805969E-08  0.93827000000E+00  0.93827000000E+00 0. -1.
     999902    2    1    2    0    0 -0.10421196467E-02  0.29000983234E-02  0.21856506815E-01  0.10218573139E+01  0.10216188949E+01 0.  0.
     999903    2    3    3    0    0 -0.11708532507E+00  0.17558713366E-01 -0.52394358420E-01  0.13101833204E+00  0.20083644506E-01 0.  0.
         14    1    1    2    0    0  0.10421196467E-02 -0.29000983234E-02 -0.21856506815E-01  0.22072686148E-01  0.00000000000E+00 0.  1.
     999901    1    3    3    0    0  0.11604320542E+00 -0.14658615042E-01  0.74250865236E-01  0.89083898181E+00  0.88000000000E+00 0.  1.
        -11    1    4    4    0    0 -0.13842067062E-01  0.88229066796E-02 -0.84802721326E-02  0.18483036528E-01  0.51100000000E-03 0.  1.
         11    1    4    4    0    0 -0.10324325800E+00  0.87358066861E-02 -0.43914086288E-01  0.11253529552E+00  0.51100000000E-03 0. -1.
</event>
<event>
 8    1  0.1078274E+005  0.1043930E+01  0.7957747E-01            NaN
         13   -1    0    0    0    0  0.00000000000E+00  0.00000000000E+00  0.74505805969E-08  0.10566000000E+00  0.10566000000E+00 0.  1.
     999900   -1    0    0    0    0 -0.00000000000E+00 -0.00000000000E+00 -0.74505805969E-08  0.93827000000E+00  0.93827000000E+00 0. -1.
     999902    2    1    2    0    0 -0.85571345906E-02  0.84024786792E-02 -0.25413849491E-01  0.10158285775E+01  0.10154398106E+01 0.  0.
     999903    2    3    3    0    0 -0.16009783508E-02 -0.98800044074E-01  0.72315830101E-01  0.12392507417E+00  0.19074403869E-01 0.  0.
         14    1    1    2    0    0  0.85571345906E-02 -0.84024786792E-02  0.25413849491E-01  0.28101422496E-01  0.00000000000E+00 0.  1.
     999901    1    3    3    0    0 -0.69561562397E-02  0.10720252275E+00 -0.97729679592E-01  0.89190350334E+00  0.88000000000E+00 0. -1.
        -11    1    4    4    0    0  0.20447092630E-02 -0.68661599085E-01  0.39598913919E-01  0.79290170446E-01  0.51100000000E-03 0. -1.
         11    1    4    4    0    0 -0.36456876138E-02 -0.30138444990E-01  0.32716916182E-01  0.44634903719E-01  0.51100000000E-03 0.  1.
</event>
<event>
 8    1  0.1078274E+005  0.1043930E+01  0.7957747E-01            NaN
         13   -1    0    0    0    0  0.00000000000E+00  0.00000000000E+00  0.74505805969E-08  0.10566000000E+00  0.10566000000E+00 0.  1.
     999900   -1    0    0    0    0 -0.00000000000E+00 -0.00000000000E+00 -0.74505805969E-08  0.93827000000E+00  0.93827000000E+00 0.  1.
     999902    2    1    2    0    0 -0.19026308371E-01  0.36510450722E-02 -0.14093769939E-01  0.10199724356E+01  0.10196910339E+01 0.  0.
     999903    2    3    3    0    0 -0.64310313999E-01  0.98062503919E-01 -0.59103924635E-01  0.13262240391E+00  0.18529893451E-01 0.  0.
         14    1    1    2    0    0  0.19026308371E-01 -0.36510450722E-02  0.14093769939E-01  0.23957564388E-01  0.00000000000E+00 0.  1.
     999901    1    3    3    0    0  0.45284005628E-01 -0.94411458847E-01  0.45010154696E-01  0.88735003170E+00  0.88000000000E+00 0.  1.
        -11    1    4    4    0    0 -0.69917924354E-02  0.14274383960E-01 -0.15260053001E-01  0.22040270813E-01  0.51100000000E-03 0. -1.
         11    1    4    4    0    0 -0.57318521563E-01  0.83788119959E-01 -0.43843871633E-01  0.11058213310E+00  0.51100000000E-03 0.  1.
</event>
<event>
 8    1  0.1078274E+005  0.1043930E+01  0.7957747E-01            NaN
         13   -1    0    0    0    0  0.00000000000E+00  0.00000000000E+00  0.74505805969E-08  0.10566000000E+00  0.10566000000E+00 0.  1.
     999900   -1    0    0    0    0 -0.00000000000E+00 -0.00000000000E+00 -0.74505805969E-08  0.93827000000E+00  0.93827000000E+00 0.  1.
     999902    2    1    2    0    0  0.88697999129E-02 -0.21480269568E-01  0.86577407054E-02  0.10191301652E+01  0.10188283770E+01 0.  0.
     999903    2    3    3    0    0  0.22223899420E-01 -0.12816123998E+00  0.14801366883E-01  0.13256550002E+00  0.20864472081E-01 0.  0.
         14    1    1    2    0    0 -0.88697999129E-02  0.21480269568E-01 -0.86577407054E-02  0.24799834785E-01  0.00000000000E+00 0. -1.
     999901    1    3    3    0    0 -0.13354099507E-01  0.10668097042E+00 -0.61436261771E-02  0.88656466519E+00  0.88000000000E+00 0.  1.
        -11    1    4    4    0    0  0.21993067870E-01 -0.99804362479E-01  0.41995608431E-02  0.10228637855E+00  0.51100000000E-03 0.  1.
         11    1    4    4    0    0  0.23083155015E-03 -0.28356877506E-01  0.10601806039E-01  0.30279121476E-01  0.51100000000E-03 0. -1.
</event>
<event>
 8    1  0.1078274E+005  0.1043930E+01  0.7957747E-01            NaN
         13   -1    0    0    0    0  0.00000000000E+00  0.00000000000E+00  0.74505805969E-08  0.10566000000E+00  0.10566000000E+00 0.  1.
     999900   -1    0    0    0    0 -0.00000000000E+00 -0.00000000000E+00 -0.74505805969E-08  0.93827000000E+00  0.93827000000E+00 0. -1.
     999902    2    1    2    0    0  0.82693553826E-02 -0.22394922912E-02 -0.23771669274E-01  0.10186616438E+01  0.10183481992E+01 0.  0.
     999903    2    3    3    0    0  0.57371005433E-01 -0.64891196465E-03 -0.11752851786E+00  0.13231868049E+00  0.20085500871E-01 0.  0.
         14    1    1    2    0    0 -0.82693553826E-02  0.22394922912E-02  0.23771669274E-01  0.25268356184E-01  0.00000000000E+00 0. -1.
     999901    1    3    3    0    0 -0.49101650051E-01 -0.15905803265E-02  0.93756848585E-01  0.88634296333E+00  0.88000000000E+00 0.  1.
        -11    1    4    4    0    0  0.28313330326E-01 -0.10207470336E-01 -0.61959702126E-01  0.68884707544E-01  0.51100000000E-03 0. -1.
         11    1    4    4    0    0  0.29057675107E-01  0.95585583712E-02 -0.55568815732E-01  0.63433972945E-01  0.51100000000E-03 0.  1.
</event>
<event>
 8    1  0.1078274E+005  0.1043930E+01  0.7957747E-01            NaN
         13   -1    0    0    0    0  0.00000000000E+00  0.00000000000E+00  0.74505805969E-08  0.10566000000E+00  0.10566000000E+00 0.  1.
     999900   -1    0    0    0    0 -0.00000000000E+00 -0.00000000000E+00 -0.74505805969E-08  0.93827000000E+00  0.93827000000E+00 0. -1.
     999902    2    1    2    0    0 -0.19240473407E-01  0.88657909956E-02 -0.85638289325E-02  0.10210796776E+01  0.10208239666E+01 0.  0.
     999903    2    3    3    0    0  0.11041872709E+00 -0.52314107584E-01 -0.36780787994E-01  0.12903108867E+00  0.19160749803E-01 0.  0.
         14    1    1    2    0    0  0.19240473407E-01 -0.88657909956E-02  0.85638289325E-02  0.22850322380E-01  0.00000000000E+00 0.  1.
     999901    1    3    3    0    0 -0.12965920050E+00  0.61179898580E-01  0.28216959061E-01  0.89204858895E+00  0.88000000000E+00 0. -1.
        -11    1    4    4    0    0  0.40257190434E-01 -0.25030185671E-01 -0.63442884399E-02  0.47829516966E-01  0.51100000000E-03 0. -1.
         11    1    4    4    0    0  0.70161536661E-01 -0.27283921913E-01 -0.30436499554E-01  0.81201571707E-01  0.51100000000E-03 0.  1.
</event>
<event>
 8    1  0.1078274E+005  0.1043930E+01  0.7957747E-01            NaN
         13   -1    0    0    0    0  0.00000000000E+00  0.00000000000E+00  0.74505805969E-08  0.10566000000E+00  0.10566000000E+00 0. -1.
     999900   -1    0    0    0    0 -0.00000000000E+00 -0.00000000000E+00 -0.74505805969E-08  0.93827000000E+00  0.93827000000E+00 0. -1.
     999902    2    1    2    0    0  0.66628915985E-02  0.63939030288E-02 -0.22265079148E-01  0.10198258537E+01  0.10195409565E+01 0.  0.
     999903    2    3    3    0    0  0.35751477623E-02  0.21847772641E-01 -0.12719673116E+00  0.13345177472E+00  0.33767749536E-01 0.  0.
         14    1    1    2    0    0 -0.66628915985E-02 -0.63939030288E-02  0.22265079148E-01  0.24104146321E-01  0.00000000000E+00 0. -1.
     999901    1    3    3    0    0  0.30877438362E-02 -0.15453869612E-01  0.10493165201E+00  0.88637407895E+00  0.88000000000E+00 0.  1.
        -11    1    4    4    0    0  0.83487411223E-02  0.49422310811E-02 -0.69935728358E-02  0.11970727146E-01  0.51100000000E-03 0. -1.
         11    1    4    4    0    0 -0.47735933600E-02  0.16905541560E-01 -0.12020315832E+00  0.12148104758E+00  0.51100000000E-03 0.  1.
</event>
<event>
 8    1  0.1078274E+005  0.1043930E+01  0.7957747E-01            NaN
         13   -1    0    0    0    0  0.00000000000E+00  0.00000000000E+00  0.74505805969E-08  0.10566000000E+00  0.10566000000E+00 0.  1.
     999900   -1    0    0    0    0 -0.00000000000E+00 -0.00000000000E+00 -0.74505805969E-08  0.93827000000E+00  0.93827000000E+00 0. -1.
     999902    2    1    2    0    0  0.19767594267E-01  0.12990313514E-01 -0.35988105449E-02  0.10200039166E+01  0.10197232627E+01 0.  0.
     999903    2    3    3    0    0  0.10641093879E-01 -0.73054938551E-01  0.10401294310E+00  0.12923606363E+00  0.20808913576E-01 0.  0.
         14    1    1    2    0    0 -0.19767594267E-01 -0.12990313514E-01  0.35988105449E-02  0.23926083374E-01  0.00000000000E+00 0.  1.
     999901    1    3    3    0    0  0.91265003885E-02  0.86045252064E-01 -0.10761175364E+00  0.89076785300E+00  0.88000000000E+00 0. -1.
        -11    1    4    4    0    0  0.12763517211E-01 -0.72751934358E-01  0.97237719709E-01  0.12211136958E+00  0.51100000000E-03 0. -1.
         11    1    4    4    0    0 -0.21224233326E-02 -0.30300419234E-03  0.67752233908E-02  0.71246940523E-02  0.51100000000E-03 0.  1.
</event>
<event>
 8    1  0.1078274E+005  0.1043930E+01  0.7957747E-01            NaN
         13   -1    0    0    0    0  0.00000000000E+00  0.00000000000E+00  0.74505805969E-08  0.10566000000E+00  0.10566000000E+00 0. -1.
     999900   -1    0    0    0    0 -0.00000000000E+00 -0.00000000000E+00 -0.74505805969E-08  0.93827000000E+00  0.93827000000E+00 0.  1.
     999902    2    1    2    0    0  0.98010972443E-02  0.17246213144E-01 -0.13326731828E-01  0.10200324027E+01  0.10197524246E+01 0.  0.
     999903    2    3    3    0    0 -0.40534547678E-01  0.84307735445E-01 -0.91711170500E-01  0.13257815310E+00  0.20376066203E-01 0.  0.
         14    1    1    2    0    0 -0.98010972443E-02 -0.17246213144E-01  0.13326731828E-01  0.23897597290E-01  0.00000000000E+00 0. -1.
     999901    1    3    3    0    0  0.50335644923E-01 -0.67061522301E-01  0.78384438672E-01  0.88745424961E+00  0.88000000000E+00 0. -1.
        -11    1    4    4    0    0 -0.39653217139E-01  0.76326432093E-01 -0.75369735026E-01  0.11436328058E+00  0.51100000000E-03 0.  1.
         11    1    4    4    0    0 -0.88133053902E-03  0.79813033524E-02 -0.16341435474E-01  0.18214872524E-01  0.51100000000E-03 0. -1.
</event>
<event>
 8    1  0.1078274E+005  0.1043930E+01  0.7957747E-01            NaN
         13   -1    0    0    0    0  0.00000000000E+00  0.00000000000E+00  0.74505805969E-08  0.10566000000E+00  0.10566000000E+00 0. -1.
     999900   -1    0    0    0    0 -0.00000000000E+00 -0.00000000000E+00 -0.74505805969E-08  0.93827000000E+00  0.93827000000E+00 0. -1.
     999902    2    1    2    0    0 -0.75353245353E-03 -0.92437581316E-02 -0.19787222772E-01  0.10220771041E+01  0.10218434604E+01 0.  0.
     999903    2    3    3    0    0 -0.33513507658E-01 -0.84077173731E-01  0.92737476660E-01  0.13115900231E+00  0.20256306935E-01 0.  0.
         14    1    1    2    0    0  0.75353245353E-03  0.92437581316E-02  0.19787222772E-01  0.21852895931E-01  0.00000000000E+00 0. -1.
     999901    1    3    3    0    0  0.32759975204E-01  0.74833415599E-01 -0.11252469943E+00  0.89091810176E+00  0.88000000000E+00 0. -1.
        -11    1    4    4    0    0 -0.99787095984E-02 -0.42325108495E-01  0.55232219566E-01  0.70298283433E-01  0.51100000000E-03 0.  1.
         11    1    4    4    0    0 -0.23534798059E-01 -0.41752065236E-01  0.37505257094E-01  0.60860718874E-01  0.51100000000E-03 0. -1.
</event>
<event>
 8    1  0.1078274E+005  0.1043930E+01  0.7957747E-01            NaN
         13   -1    0    0    0    0  0.00000000000E+00  0.00000000000E+00  0.74505805969E-08  0.10566000000E+00  0.10566000000E+00 0. -1.
     999900   -1    0    0    0    0 -0.00000000000E+00 -0.00000000000E+00 -0.74505805969E-08  0.93827000000E+00  0.93827000000E+00 0.  1.
     999902    2    1    2    0    0 -0.65519187711E-02  0.23412219834E-03 -0.22466768107E-01  0.10205261943E+01  0.10202577984E+01 0.  0.
     999903    2    3    3    0    0 -0.97021157550E-01  0.85639961373E-01 -0.15077856011E-01  0.13174419821E+00  0.19541853107E-01 0.  0.
         14    1    1    2    0    0  0.65519187711E-02 -0.23412219834E-03  0.22466768107E-01  0.23403805715E-01  0.00000000000E+00 0. -1.
     999901    1    3    3    0    0  0.90469238779E-01 -0.85405839175E-01 -0.73889120960E-02  0.88878199608E+00  0.88000000000E+00 0.  1.
        -11    1    4    4    0    0 -0.64976698905E-01  0.68898197362E-01 -0.11796732541E-01  0.95437712776E-01  0.51100000000E-03 0. -1.
         11    1    4    4    0    0 -0.32044458646E-01  0.16741764011E-01 -0.32811234696E-02  0.36306485430E-01  0.51100000000E-03 0.  1.
</event>
<event>
 8    1  0.1078274E+005  0.1043930E+01  0.7957747E-01            NaN
         13   -1    0    0    0    0  0.00000000000E+00  0.00000000000E+00  0.74505805969E-08  0.10566000000E+00  0.10566000000E+00 0.  1.
     999900   -1    0    0    0    0 -0.00000000000E+00 -0.00000000000E+00 -0.74505805969E-08  0.93827000000E+00  0.93827000000E+00 0. -1.
     999902    2    1    2    0    0  0.12730655538E-01 -0.45893139461E-03 -0.17264208168E-01  0.10224746256E+01  0.10222494934E+01 0.  0.
     999903    2    3    3    0    0  0.10547378529E-01  0.10010865668E+00 -0.86268443035E-01  0.13406020037E+00  0.19922417599E-01 0.  0.
         14    1    1    2    0    0 -0.12730655538E-01  0.45893139461E-03  0.17264208168E-01  0.21455374434E-01  0.00000000000E+00 0.  1.
     999901    1    3    3    0    0  0.21832770084E-02 -0.10056758807E+00  0.69004234867E-01  0.88841442520E+00  0.88000000000E+00 0. -1.
        -11    1    4    4    0    0  0.38419285462E-03  0.76708627458E-01 -0.69613469409E-01  0.10358888635E+00  0.51100000000E-03 0.  1.
         11    1    4    4    0    0  0.10163185675E-01  0.23400029222E-01 -0.16654973626E-01  0.30471314020E-01  0.51100000000E-03 0. -1.
</event>
<event>
 8    1  0.1078274E+005  0.1043930E+01  0.7957747E-01            NaN
         13   -1    0    0    0    0  0.00000000000E+00  0.00000000000E+00  0.74505805969E-08  0.10566000000E+00  0.10566000000E+00 0. -1.
     999900   -1    0    0    0    0 -0.00000000000E+00 -0.00000000000E+00 -0.74505805969E-08  0.93827000000E+00  0.93827000000E+00 0. -1.
     999902    2    1    2    0    0  0.14793342561E-01  0.16077770190E-01 -0.72431079175E-02  0.10209126090E+01  0.10206531021E+01 0.  0.
     999903    2    3    3    0    0 -0.84832560169E-03 -0.11538254323E+00  0.53942501141E-01  0.12890915910E+00  0.19847592583E-01 0.  0.
         14    1    1    2    0    0 -0.14793342561E-01 -0.16077770190E-01  0.72431079175E-02  0.23017391049E-01  0.00000000000E+00 0. -1.
     999901    1    3    3    0    0  0.15641668162E-01  0.13146031342E+00 -0.61185609059E-01  0.89200344985E+00  0.88000000000E+00 0.  1.
        -11    1    4    4    0    0 -0.11275243532E-03 -0.23967728999E-01  0.20571044756E-01  0.31589456308E-01  0.51100000000E-03 0.  1.
         11    1    4    4    0    0 -0.73557316637E-03 -0.91414814235E-01  0.33371456386E-01  0.97319702794E-01  0.51100000000E-03 0. -1.
</event>
<event>
 8    1  0.1078274E+005  0.1043930E+01  0.7957747E-01            NaN
         13   -1    0    0    0    0  0.00000000000E+00  0.00000000000E+00  0.74505805969E-08  0.10566000000E+00  0.10566000000E+00 0.  1.
     999900   -1    0    0    0    0 -0.00000000000E+00 -0.00000000000E+00 -0.74505805969E-08  0.93827000000E+00  0.93827000000E+00 0. -1.
     999902    2    1    2    0    0  0.66438063891E-02 -0.11191630941E-01 -0.20719089072E-01  0.10194621963E+01  0.10191685318E+01 0.  0.
     999903    2    3    3    0    0  0.41363214493E-01  0.11973363095E+00  0.73845758812E-02  0.12865543976E+00  0.21228102223E-01 0.  0.
         14    1    1    2    0    0 -0.66438063891E-02  0.11191630941E-01  0.20719089072E-01  0.24467803711E-01  0.00000000000E+00 0.  1.
     999901    1    3    3    0    0 -0.34719408104E-01 -0.13092526189E+00 -0.28103664953E-01  0.89080675653E+00  0.88000000000E+00 0. -1.
        -11    1    4    4    0    0  0.19379426430E-01  0.38945034257E-01  0.10920332172E-01  0.44853011469E-01  0.51100000000E-03 0.  1.
         11    1    4    4    0    0  0.21983788063E-01  0.80788596694E-01 -0.35357562908E-02  0.83802428288E-01  0.51100000000E-03 0. -1.
</event>
<event>
 8    1  0.1078274E+005  0.1043930E+01  0.7957747E-01            NaN
         13   -1    0    0    0    0  0.00000000000E+00  0.00000000000E+00  0.74505805969E-08  0.10566000000E+00  0.10566000000E+00 0.  1.
     999900   -1    0    0    0    0 -0.00000000000E+00 -0.00000000000E+00 -0.74505805969E-08  0.93827000000E+00  0.93827000000E+00 0. -1.
     999902    2    1    2    0    0 -0.10716577292E-01 -0.69896068241E-02  0.20969142235E-01  0.10193657056E+01  0.10190696920E+01 0.  0.
     999903    2    3    3    0    0 -0.59048287264E-01 -0.88386687255E-01  0.76485241539E-01  0.13254922169E+00  0.20503591967E-01 0.  0.
         14    1    1    2    0    0  0.10716577292E-01  0.69896068241E-02 -0.20969142235E-01  0.24564294382E-01  0.00000000000E+00 0.  1.
     999901    1    3    3    0    0  0.48331709972E-01  0.81397080431E-01 -0.55516099304E-01  0.88681648393E+00  0.88000000000E+00 0. -1.
        -11    1    4    4    0    0 -0.28537362306E-01 -0.59748068186E-01  0.42998263484E-01  0.78951405834E-01  0.51100000000E-03 0. -1.
         11    1    4    4    0    0 -0.30510924958E-01 -0.28638619069E-01  0.33486978054E-01  0.53597815853E-01  0.51100000000E-03 0.  1.
</event>
<event>
 8    1  0.1078274E+005  0.1043930E+01  0.7957747E-01            NaN
         13   -1    0    0    0    0  0.00000000000E+00  0.00000000000E+00  0.74505805969E-08  0.10566000000E+00  0.10566000000E+00 0.  1.
     999900   -1    0    0    0    0 -0.00000000000E+00 -0.00000000000E+00 -0.74505805969E-08  0.93827000000E+00  0.93827000000E+00 0.  1.
     999902    2    1    2    0    0  0.34468565227E-02 -0.91109447742E-02  0.21140367514E-01  0.10206532890E+01  0.10203878337E+01 0.  0.
     999903    2    3    3    0    0  0.77611792538E-01 -0.18887135278E-01  0.10516323669E+00  0.13349160469E+00  0.19503536868E-01 0.  0.
         14    1    1    2    0    0 -0.34468565227E-02  0.91109447742E-02 -0.21140367514E-01  0.23276710962E-01  0.00000000000E+00 0. -1.
     999901    1    3    3    0    0 -0.74164936015E-01  0.97761905041E-02 -0.84022869179E-01  0.88716168435E+00  0.88000000000E+00 0.  1.
        -11    1    4    4    0    0  0.32936358736E-01  0.76691374336E-03  0.49443890213E-01  0.59416759285E-01  0.51100000000E-03 0. -1.
         11    1    4    4    0    0  0.44675433802E-01 -0.19654049022E-01  0.55719346479E-01  0.74074845402E-01  0.51100000000E-03 0.  1.
</event>
<event>
 8    1  0.1078274E+005  0.1043930E+01  0.7957747E-01            NaN
         13   -1    0    0    0    0  0.00000000000E+00  0.00000000000E+00  0.74505805969E-08  0.10566000000E+00  0.10566000000E+00 0.  1.
     999900   -1    0    0    0    0 -0.00000000000E+00 -0.00000000000E+00 -0.74505805969E-08  0.93827000000E+00  0.93827000000E+00 0. -1.
     999902    2    1    2    0    0  0.17491543905E-01 -0.23368642943E-02  0.14879323825E-01  0.10208473372E+01  0.10205863396E+01 0.  0.
     999903    2    3    3    0    0 -0.11673289023E+00  0.49799971289E-01  0.13606032541E-01  0.12914331144E+00  0.19653650196E-01 0.  0.
         14    1    1    2    0    0 -0.17491543905E-01  0.23368642943E-02 -0.14879323825E-01  0.23082662767E-01  0.00000000000E+00 0. -1.
     999901    1    3    3    0    0  0.13422443414E+00 -0.52136835583E-01  0.12732912840E-02  0.89170402579E+00  0.88000000000E+00 0. -1.
        -11    1    4    4    0    0 -0.54581895422E-01  0.21314930252E-01 -0.33781929348E-02  0.58695680148E-01  0.51100000000E-03 0.  1.
         11    1    4    4    0    0 -0.62150994810E-01  0.28485041037E-01  0.16984225476E-01  0.70447631293E-01  0.51100000000E-03 0. -1.
</event>
<event>
 8    1  0.1078274E+005  0.1043930E+01  0.7957747E-01            NaN
         13   -1    0    0    0    0  0.00000000000E+00  0.00000000000E+00  0.74505805969E-08  0.10566000000E+00  0.10566000000E+00 0.  1.
     999900   -1    0    0    0    0 -0.00000000000E+00 -0.00000000000E+00 -0.74505805969E-08  0.93827000000E+00  0.93827000000E+00 0.  1.
     999902    2    1    2    0    0  0.38435838416E-02  0.57634921598E-04  0.23132465802E-01  0.10204803213E+01  0.10202108599E+01 0.  0.
     999903    2    3    3    0    0 -0.32043124675E-01  0.49490350084E-01 -0.11195642029E+00  0.12807881056E+00  0.19846538184E-01 0.  0.
         14    1    1    2    0    0 -0.38435838416E-02 -0.57634921598E-04 -0.23132465802E-01  0.23449678732E-01  0.00000000000E+00 0. -1.
     999901    1    3    3    0    0  0.35886708517E-01 -0.49432715162E-01  0.13508888610E+00  0.89240151071E+00  0.88000000000E+00 0. -1.
        -11    1    4    4    0    0 -0.43180907198E-02  0.24407301332E-01 -0.42828659168E-01  0.49486537896E-01  0.51100000000E-03 0. -1.
         11    1    4    4    0    0 -0.27725033955E-01  0.25083048751E-01 -0.69127761126E-01  0.78592272660E-01  0.51100000000E-03 0.  1.
</event>
<event>
 8    1  0.1078274E+005  0.1043930E+01  0.7957747E-01            NaN
         13   -1    0    0    0    0  0.00000000000E+00  0.00000000000E+00  0.74505805969E-08  0.10566000000E+00  0.10566000000E+00 0. -1.
     999900   -1    0    0    0    0 -0.00000000000E+00 -0.00000000000E+00 -0.74505805969E-08  0.93827000000E+00  0.93827000000E+00 0.  1.
     999902    2    1    2    0    0  0.17431986511E-01 -0.17691776196E-01  0.72757282539E-03  0.10190824154E+01  0.10187794496E+01 0.  0.
     999903    2    3    3    0    0  0.81671650461E-02  0.48007886741E-01 -0.11742082354E+00  0.12871096134E+00  0.20184201577E-01 0.  0.
         14    1    1    2    0    0 -0.17431986511E-01  0.17691776196E-01 -0.72757282539E-03  0.24847584609E-01  0.00000000000E+00 0. -1.
     999901    1    3    3    0    0  0.92648214652E-02 -0.65699662937E-01  0.11814839637E+00  0.89037145405E+00  0.88000000000E+00 0. -1.
        -11    1    4    4    0    0 -0.10513205447E-02  0.39304897179E-02 -0.30907456911E-01  0.31178294341E-01  0.51100000000E-03 0. -1.
         11    1    4    4    0    0  0.92184855907E-02  0.44077397023E-01 -0.86513366631E-01  0.97532666998E-01  0.51100000000E-03 0.  1.
</event>
<event>
 8    1  0.1078274E+005  0.1043930E+01  0.7957747E-01            NaN
         13   -1    0    0    0    0  0.00000000000E+00  0.00000000000E+00  0.74505805969E-08  0.10566000000E+00  0.10566000000E+00 0.  1.
     999900   -1    0    0    0    0 -0.00000000000E+00 -0.00000000000E+00 -0.74505805969E-08  0.93827000000E+00  0.93827000000E+00 0.  1.
     999902    2    1    2    0    0  0.13629924530E-01 -0.61844853306E-02 -0.19391252262E-01  0.10194342174E+01  0.10191398727E+01 0.  0.
     999903    2    3    3    0    0  0.11542276932E-01 -0.12535255032E+00 -0.31666020745E-01  0.13131482455E+00  0.19858505713E-01 0.  0.
         14    1    1    2    0    0 -0.13629924530E-01  0.61844853306E-02  0.19391252262E-01  0.24495782613E-01  0.00000000000E+00 0.  1.
     999901    1    3    3    0    0  0.20876475977E-02  0.11916806499E+00  0.12274768483E-01  0.88811939283E+00  0.88000000000E+00 0.  1.
        -11    1    4    4    0    0  0.16990599055E-01 -0.93149907975E-01 -0.25654226116E-01  0.98101917670E-01  0.51100000000E-03 0.  1.
         11    1    4    4    0    0 -0.54483221229E-02 -0.32202642345E-01 -0.60117946299E-02  0.33212906884E-01  0.51100000000E-03 0. -1.
</event>
<event>
 8    1  0.1078274E+005  0.1043930E+01  0.7957747E-01            NaN
         13   -1    0    0    0    0  0.00000000000E+00  0.00000000000E+00  0.74505805969E-08  0.10566000000E+00  0.10566000000E+00 0. -1.
     999900   -1    0    0    0    0 -0.00000000000E+00 -0.00000000000E+00 -0.74505805969E-08  0.93827000000E+00  0.93827000000E+00 0. -1.
     999902    2    1    2    0    0  0.79952540276E-02  0.20977529463E-01 -0.88396522152E-02  0.10198028311E+01  0.10195173829E+01 0.  0.
     999903    2    3    3    0    0  0.58905428647E-01 -0.10444567777E+00 -0.40478073568E-01  0.12889104167E+00  0.24406496123E-01 0.  0.
         14    1    1    2    0    0 -0.79952540276E-02 -0.20977529463E-01  0.88396522152E-02  0.24127168931E-01  0.00000000000E+00 0.  1.
     999901    1    3    3    0    0 -0.50910174619E-01  0.12542320723E+00  0.31638421353E-01  0.89091178940E+00  0.88000000000E+00 0.  1.
        -11    1    4    4    0    0  0.32074908269E-01 -0.33357190607E-01 -0.12729658494E-01  0.47997991958E-01  0.51100000000E-03 0.  1.
         11    1    4    4    0    0  0.26830520378E-01 -0.71088487163E-01 -0.27748415074E-01  0.80893049707E-01  0.51100000000E-03 0. -1.
</event>
<event>
 8    1  0.1078274E+005  0.1043930E+01  0.7957747E-01            NaN
         13   -1    0    0    0    0  0.00000000000E+00  0.00000000000E+00  0.74505805969E-08  0.10566000000E+00  0.10566000000E+00 0.  1.
     999900   -1    0    0    0    0 -0.00000000000E+00 -0.00000000000E+00 -0.74505805969E-08  0.93827000000E+00  0.93827000000E+00 0. -1.
     999902    2    1    2    0    0  0.56004761433E-02 -0.13523104933E-04 -0.21933901064E-01  0.10212923868E+01  0.10210414672E+01 0.  0.
     999903    2    3    3    0    0 -0.38594303430E-01  0.12336509164E+00 -0.14049161164E-01  0.13155218300E+00  0.20003295468E-01 0.  0.
         14    1    1    2    0    0 -0.56004761433E-02  0.13523104933E-04  0.21933901064E-01  0.22637613209E-01  0.00000000000E+00 0.  1.
     999901    1    3    3    0    0  0.44194779573E-01 -0.12337861475E+00 -0.78847398998E-02  0.88974020379E+00  0.88000000000E+00 0.  1.
        -11    1    4    4    0    0  0.22693610804E-02  0.10753227093E-01 -0.11900406377E-02  0.11066128968E-01  0.51100000000E-03 0. -1.
         11    1    4    4    0    0 -0.40863664510E-01  0.11261186455E+00 -0.12859120527E-01  0.12048605403E+00  0.51100000000E-03 0.  1.
</event>
<event>
 8    1  0.1078274E+005  0.1043930E+01  0.7957747E-01            NaN
         13   -1    0    0    0    0  0.00000000000E+00  0.00000000000E+00  0.74505805969E-08  0.10566000000E+00  0.10566000000E+00 0. -1.
     999900   -1    0    0    0    0 -0.00000000000E+00 -0.00000000000E+00 -0.74505805969E-08  0.93827000000E+00  0.93827000000E+00 0. -1.
     999902    2    1    2    0    0  0.23649769854E-01  0.22810487531E-01  0.72334186035E-02  0.10102855012E+01  0.10097251317E+01 0.  0.
     999903    2    3    3    0    0  0.36357570624E-01 -0.14068421532E-01  0.11485105303E+00  0.12287178855E+00  0.19670246910E-01 0.  0.
         14    1    1    2    0    0 -0.23649769854E-01 -0.22810487531E-01 -0.72334186035E-02  0.33644498811E-01  0.00000000000E+00 0. -1.
     999901    1    3    3    0    0 -0.12707800770E-01  0.36878909063E-01 -0.10761763443E+00  0.88741371264E+00  0.88000000000E+00 0. -1.
        -11    1    4    4    0    0  0.51864457698E-02  0.39296850877E-02  0.93849981513E-02  0.11431577140E-01  0.51100000000E-03 0. -1.
         11    1    4    4    0    0  0.31171124854E-01 -0.17998106620E-01  0.10546605488E+00  0.11144021141E+00  0.51100000000E-03 0.  1.
</event>
<event>
 8    1  0.1078274E+005  0.1043930E+01  0.7957747E-01            NaN
         13   -1    0    0    0    0  0.00000000000E+00  0.00000000000E+00  0.74505805969E-08  0.10566000000E+00  0.10566000000E+00 0.  1.
     999900   -1    0    0    0    0 -0.00000000000E+00 -0.00000000000E+00 -0.74505805969E-08  0.93827000000E+00  0.93827000000E+00 0. -1.
     999902    2    1    2    0    0 -0.81828883145E-02  0.13780858745E-01 -0.17096230366E-01  0.10204959901E+01  0.10202268929E+01 0.  0.
     999903    2    3    3    0    0  0.46226726042E-01 -0.98939321527E-01  0.63643369352E-01  0.12797981198E+00  0.20061262877E-01 0.  0.
         14    1    1    2    0    0  0.81828883145E-02 -0.13780858745E-01  0.17096230366E-01  0.23434009935E-01  0.00000000000E+00 0.  1.
     999901    1    3    3    0    0 -0.54409614357E-01  0.11272018027E+00 -0.80739599717E-01  0.89251617808E+00  0.88000000000E+00 0.  1.
        -11    1    4    4    0    0  0.40024143410E-01 -0.71888522864E-01  0.39863180489E-01  0.91428803202E-01  0.51100000000E-03 0. -1.
         11    1    4    4    0    0  0.62025826318E-02 -0.27050798662E-01  0.23780188863E-01  0.36551008781E-01  0.51100000000E-03 0.  1.
</event>
<event>
 8    1  0.1078274E+005  0.1043930E+01  0.7957747E-01            NaN
         13   -1    0    0    0    0  0.00000000000E+00  0.00000000000E+00  0.74505805969E-08  0.10566000000E+00  0.10566000000E+00 0. -1.
     999900   -1    0    0    0    0 -0.00000000000E+00 -0.00000000000E+00 -0.74505805969E-08  0.93827000000E+00  0.93827000000E+00 0. -1.
     999902    2    1    2    0    0  0.26213585519E-01  0.43912081711E-02 -0.23073002807E-02  0.10172511992E+01  0.10169012951E+01 0.  0.
     999903    2    3    3    0    0  0.12038517410E+00  0.46195648738E-01 -0.13332287233E-01  0.13117137797E+00  0.20038772662E-01 0.  0.
         14    1    1    2    0    0 -0.26213585519E-01 -0.43912081711E-02  0.23073002807E-02  0.26678800752E-01  0.00000000000E+00 0. -1.
     999901    1    3    3    0    0 -0.94171588578E-01 -0.41804440567E-01  0.11024986952E-01  0.88607982128E+00  0.88000000000E+00 0.  1.
        -11    1    4    4    0    0  0.78092222227E-01  0.34751955354E-01 -0.17177635574E-01  0.87186156345E-01  0.51100000000E-03 0.  1.
         11    1    4    4    0    0  0.42292951870E-01  0.11443693384E-01  0.38453483413E-02  0.43985221621E-01  0.51100000000E-03 0. -1.
</event>
<event>
 8    1  0.1078274E+005  0.1043930E+01  0.7957747E-01            NaN
         13   -1    0    0    0    0  0.00000000000E+00  0.00000000000E+00  0.74505805969E-08  0.10566000000E+00  0.10566000000E+00 0. -1.
     999900   -1    0    0    0    0 -0.00000000000E+00 -0.00000000000E+00 -0.74505805969E-08  0.93827000000E+00  0.93827000000E+00 0. -1.
     999902    2    1    2    0    0  0.36825587933E-02  0.20871157382E-01 -0.16916746900E-02  0.10226690449E+01  0.10224480168E+01 0.  0.
     999903    2    3    3    0    0 -0.96078516254E-01 -0.23325656862E-02 -0.88944260563E-01  0.13244227679E+00  0.19833130034E-01 0.  0.
         14    1    1    2    0    0 -0.36825587933E-02 -0.20871157382E-01  0.16916746900E-02  0.21260955129E-01  0.00000000000E+00 0. -1.
     999901    1    3    3    0    0  0.99761075048E-01  0.23203723068E-01  0.87252585873E-01  0.89022676808E+00  0.88000000000E+00 0.  1.
        -11    1    4    4    0    0 -0.99772140881E-02  0.20959969565E-02 -0.28457609742E-02  0.10597050567E-01  0.51100000000E-03 0. -1.
         11    1    4    4    0    0 -0.86101302166E-01 -0.44285626427E-02 -0.86098499589E-01  0.12184522623E+00  0.51100000000E-03 0.  1.
</event>
<event>
 8    1  0.1078274E+005  0.1043930E+01  0.7957747E-01            NaN
         13   -1    0    0    0    0  0.00000000000E+00  0.00000000000E+00  0.74505805969E-08  0.10566000000E+00  0.10566000000E+00 0. -1.
     999900   -1    0    0    0    0 -0.00000000000E+00 -0.00000000000E+00 -0.74505805969E-08  0.93827000000E+00  0.93827000000E+00 0.  1.
     999902    2    1    2    0    0  0.18260032196E-01 -0.56184364784E-02  0.13600776647E-01  0.10204784173E+01  0.10202089117E+01 0.  0.
     999903    2    3    3    0    0  0.25825140037E-01  0.33190051461E-01 -0.12070047594E+00  0.12941155338E+00  0.20254083093E-01 0.  0.
         14    1    1    2    0    0 -0.18260032196E-01  0.56184364784E-02 -0.13600776647E-01  0.23451582668E-01  0.00000000000E+00 0. -1.
     999901    1    3    3    0    0 -0.75651078409E-02 -0.38808487939E-01  0.13430125258E+00  0.89106686395E+00  0.88000000000E+00 0. -1.
        -11    1    4    4    0    0  0.71843303843E-02  0.13920702590E-01 -0.21222747614E-01  0.26383076032E-01  0.51100000000E-03 0. -1.
         11    1    4    4    0    0  0.18640809652E-01  0.19269348871E-01 -0.99477728324E-01  0.10302847734E+00  0.51100000000E-03 0.  1.
</event>
<event>
 8    1  0.1078274E+005  0.1043930E+01  0.7957747E-01            NaN
         13   -1    0    0    0    0  0.00000000000E+00  0.00000000000E+00  0.74505805969E-08  0.10566000000E+00  0.10566000000E+00 0.  1.
     999900   -1    0    0    0    0 -0.00000000000E+00 -0.00000000000E+00 -0.74505805969E-08  0.93827000000E+00  0.93827000000E+00 0. -1.
     999902    2    1    2    0    0  0.15325473024E-01 -0.11897933243E-01  0.13230516587E-01  0.10204464418E+01  0.10201761921E+01 0.  0.
     999903    2    3    3    0    0  0.51948320312E-01 -0.96952899212E-01 -0.69517248811E-01  0.13172670367E+00  0.20513018513E-01 0.  0.
         14    1    1    2    0    0 -0.15325473024E-01  0.11897933243E-01 -0.13230516587E-01  0.23483558249E-01  0.00000000000E+00 0. -1.
     999901    1    3    3    0    0 -0.36622847288E-01  0.85054965969E-01  0.82747765397E-01  0.88871973808E+00  0.88000000000E+00 0.  1.
        -11    1    4    4    0    0  0.29124204286E-01 -0.73938401529E-01 -0.48924220639E-01  0.93321739065E-01  0.51100000000E-03 0.  1.
         11    1    4    4    0    0  0.22824116026E-01 -0.23014497682E-01 -0.20593028172E-01  0.38404964604E-01  0.51100000000E-03 0. -1.
</event>
<event>
 8    1  0.1078274E+005  0.1043930E+01  0.7957747E-01            NaN
         13   -1    0    0    0    0  0.00000000000E+00  0.00000000000E+00  0.74505805969E-08  0.10566000000E+00  0.10566000000E+00 0. -1.
     999900   -1    0    0    0    0 -0.00000000000E+00 -0.00000000000E+00 -0.74505805969E-08  0.93827000000E+00  0.93827000000E+00 0.  1.
     999902    2    1    2    0    0  0.11760121421E-01 -0.43327382947E-02  0.19890284874E-01  0.10204205017E+01  0.10201496478E+01 0.  0.
     999903    2    3    3    0    0  0.11434387212E+00 -0.27992386061E-01 -0.53910571765E-01  0.13107817658E+00  0.20421651731E-01 0.  0.
         14    1    1    2    0    0 -0.11760121421E-01  0.43327382947E-02 -0.19890284874E-01  0.23509498279E-01  0.00000000000E+00 0.  1.
     999901    1    3    3    0    0 -0.10258375070E+00  0.23659647767E-01  0.73800856639E-01  0.88934232514E+00  0.88000000000E+00 0. -1.
        -11    1    4    4    0    0  0.31042295502E-01  0.96873452933E-03 -0.17605989997E-01  0.35704265311E-01  0.51100000000E-03 0. -1.
         11    1    4    4    0    0  0.83301576619E-01 -0.28961120591E-01 -0.36304581768E-01  0.95373911273E-01  0.51100000000E-03 0.  1.
</event>
<event>
 8    1  0.1078274E+005  0.1043930E+01  0.7957747E-01            NaN
         13   -1    0    0    0    0  0.00000000000E+00  0.00000000000E+00  0.74505805969E-08  0.10566000000E+00  0.10566000000E+00 0.  1.
     999900   -1    0    0    0    0 -0.00000000000E+00 -0.00000000000E+00 -0.74505805969E-08  0.93827000000E+00  0.93827000000E+00 0. -1.
     999902    2    1    2    0    0 -0.69805921904E-02 -0.23027197116E-01  0.10925208515E-02  0.10198431971E+01  0.10195587146E+01 0.  0.
     999903    2    3    3    0    0  0.29277594239E-01  0.12243176079E+00 -0.50054499881E-02  0.12714495590E+00  0.17148519085E-01 0.  0.
         14    1    1    2    0    0  0.69805921904E-02  0.23027197116E-01 -0.10925208515E-02  0.24086802946E-01  0.00000000000E+00 0. -1.
     999901    1    3    3    0    0 -0.36258186429E-01 -0.14545895790E+00  0.60979708396E-02  0.89269824116E+00  0.88000000000E+00 0. -1.
        -11    1    4    4    0    0  0.20073509097E-01  0.89250132674E-01  0.39328554866E-02  0.91565607206E-01  0.51100000000E-03 0.  1.
         11    1    4    4    0    0  0.92040851422E-02  0.33181628112E-01 -0.89383054747E-02  0.35579348690E-01  0.51100000000E-03 0. -1.
</event>
<event>
 8    1  0.1078274E+005  0.1043930E+01  0.7957747E-01            NaN
         13   -1    0    0    0    0  0.00000000000E+00  0.00000000000E+00  0.74505805969E-08  0.10566000000E+00  0.10566000000E+00 0.  1.
     999900   -1    0    0    0    0 -0.00000000000E+00 -0.00000000000E+00 -0.74505805969E-08  0.93827000000E+00  0.93827000000E+00 0.  1.
     999902    2    1    2    0    0  0.10099090776E-01  0.13454557767E-01 -0.16358506843E-01  0.10204647596E+01  0.10201949363E+01 0.  0.
     999903    2    3    3    0    0 -0.84212686185E-01  0.94556000848E-01  0.25268013270E-01  0.13074293653E+00  0.20557946047E-01 0.  0.
         14    1    1    2    0    0 -0.10099090776E-01 -0.13454557767E-01  0.16358506843E-01  0.23465240364E-01  0.00000000000E+00 0.  1.
     999901    1    3    3    0    0  0.94311776961E-01 -0.81101443081E-01 -0.41626520113E-01  0.88972182311E+00  0.88000000000E+00 0.  1.
        -11    1    4    4    0    0 -0.46126291394E-01  0.56550524426E-01  0.46705405951E-02  0.73127776126E-01  0.51100000000E-03 0. -1.
         11    1    4    4    0    0 -0.38086394791E-01  0.38005476422E-01  0.20597472675E-01  0.57615160399E-01  0.51100000000E-03 0.  1.
</event>
<event>
 8    1  0.1078274E+005  0.1043930E+01  0.7957747E-01            NaN
         13   -1    0    0    0    0  0.00000000000E+00  0.00000000000E+00  0.74505805969E-08  0.10566000000E+00  0.10566000000E+00 0. -1.
     999900   -1    0    0    0    0 -0.00000000000E+00 -0.00000000000E+00 -0.74505805969E-08  0.93827000000E+00  0.93827000000E+00 0. -1.
     999902    2    1    2    0    0 -0.75413993512E-02  0.77834067954E-03  0.22084927688E-01  0.10205799989E+01  0.10203128499E+01 0.  0.
     999903    2    3    3    0    0  0.89177974516E-01 -0.91667142532E-01 -0.10231652344E-01  0.12988074218E+00  0.20217426179E-01 0.  0.
         14    1    1    2    0    0  0.75413993512E-02 -0.77834067954E-03 -0.22084927688E-01  0.23350001058E-01  0.00000000000E+00 0.  1.
     999901    1    3    3    0    0 -0.96719373868E-01  0.92445483212E-01  0.32316580032E-01  0.89069925676E+00  0.88000000000E+00 0.  1.
        -11    1    4    4    0    0  0.33495567611E-01 -0.39024368958E-01  0.52673667548E-02  0.51699716592E-01  0.51100000000E-03 0. -1.
         11    1    4    4    0    0  0.55682406906E-01 -0.52642773574E-01 -0.15499019098E-01  0.78181025590E-01  0.51100000000E-03 0.  1.
</event>
<event>
 8    1  0.1078274E+005  0.1043930E+01  0.7957747E-01            NaN
         13   -1    0    0    0    0  0.00000000000E+00  0.00000000000E+00  0.74505805969E-08  0.10566000000E+00  0.10566000000E+00 0.  1.
     999900   -1    0    0    0    0 -0.00000000000E+00 -0.00000000000E+00 -0.74505805969E-08  0.93827000000E+00  0.93827000000E+00 0. -1.
     999902    2    1    2    0    0  0.13450083678E-01 -0.43876675755E-02  0.18058223403E-01  0.10209897339E+01  0.10207319829E+01 0.  0.
     999903    2    3    3    0    0  0.75288724091E-01  0.91059159175E-01 -0.52812926088E-01  0.13084545679E+00  0.19265667801E-01 0.  0.
         14    1    1    2    0    0 -0.13450083678E-01  0.43876675755E-02 -0.18058223403E-01  0.22940266131E-01  0.00000000000E+00 0. -1.
     999901    1    3    3    0    0 -0.61838640413E-01 -0.95446826751E-01  0.70871149491E-01  0.89014427708E+00  0.88000000000E+00 0.  1.
        -11    1    4    4    0    0  0.25843728612E-01  0.33707470131E-01 -0.92119386804E-02  0.43465075480E-01  0.51100000000E-03 0. -1.
         11    1    4    4    0    0  0.49444995478E-01  0.57351689045E-01 -0.43600987407E-01  0.87380381311E-01  0.51100000000E-03 0.  1.
</event>
<event>
 8    1  0.1078274E+005  0.1043930E+01  0.7957747E-01            NaN
         13   -1    0    0    0    0  0.00000000000E+00  0.00000000000E+00  0.74505805969E-08  0.10566000000E+00  0.10566000000E+00 0. -1.
     999900   -1    0    0    0    0 -0.00000000000E+00 -0.00000000000E+00 -0.74505805969E-08  0.93827000000E+00  0.93827000000E+00 0.  1.
     999902    2    1    2    0    0  0.13181001514E-01 -0.97522091603E-02 -0.17760420390E-01  0.10197581793E+01  0.10194716609E+01 0.  0.
     999903    2    3    3    0    0  0.11821342486E+00 -0.24220882440E-01  0.47092189021E-01  0.13102480340E+00  0.19716994572E-01 0.  0.
         14    1    1    2    0    0 -0.13181001514E-01  0.97522091603E-02  0.17760420390E-01  0.24171820719E-01  0.00000000000E+00 0. -1.
     999901    1    3    3    0    0 -0.10503242335E+00  0.14468673280E-01 -0.64852609412E-01  0.88873337588E+00  0.88000000000E+00 0.  1.
        -11    1    4    4    0    0  0.24272751449E-01 -0.12712410870E-01  0.73389014553E-02  0.28370626511E-01  0.51100000000E-03 0.  1.
         11    1    4    4    0    0  0.93940673413E-01 -0.11508471570E-01  0.39753287566E-01  0.10265417689E+00  0.51100000000E-03 0. -1.
</event>
<event>
 8    1  0.1078274E+005  0.1043930E+01  0.7957747E-01            NaN
         13   -1    0    0    0    0  0.00000000000E+00  0.00000000000E+00  0.74505805969E-08  0.10566000000E+00  0.10566000000E+00 0.  1.
     999900   -1    0    0    0    0 -0.00000000000E+00 -0.00000000000E+00 -0.74505805969E-08  0.93827000000E+00  0.93827000000E+00 0.  1.
     999902    2    1    2    0    0 -0.68870797998E-02 -0.13833817864E-01 -0.19824539419E-01  0.10187939950E+01  0.10184838661E+01 0.  0.
     999903    2    3    3    0    0  0.10874527704E+00 -0.65963843711E-01 -0.14738739295E-01  0.12968531383E+00  0.20598209421E-01 0.  0.
         14    1    1    2    0    0  0.68870797998E-02  0.13833817864E-01  0.19824539419E-01  0.25136005014E-01  0.00000000000E+00 0.  1.
     999901    1    3    3    0    0 -0.11563235684E+00  0.52130025847E-01 -0.50858001244E-02  0.88910868116E+00  0.88000000000E+00 0. -1.
        -11    1    4    4    0    0  0.10522652223E-01 -0.13877654722E-01 -0.47414899942E-02  0.18057086109E-01  0.51100000000E-03 0. -1.
         11    1    4    4    0    0  0.98222624818E-01 -0.52086188990E-01 -0.99972493007E-02  0.11162822772E+00  0.51100000000E-03 0.  1.
</event>
<event>
 8    1  0.1078274E+005  0.1043930E+01  0.7957747E-01            NaN
         13   -1    0    0    0    0  0.00000000000E+00  0.00000000000E+00  0.74505805969E-08  0.10566000000E+00  0.10566000000E+00 0. -1.
     999900   -1    0    0    0    0 -0.00000000000E+00 -0.00000000000E+00 -0.74505805969E-08  0.93827000000E+00  0.93827000000E+00 0.  1.
     999902    2    1    2    0    0 -0.78950752023E-02  0.17365782104E-01  0.13741099031E-01  0.10204199936E+01  0.10201491277E+01 0.  0.
     999903    2    3    3    0    0 -0.91335579677E-01  0.45980647886E-01 -0.79177722308E-01  0.13114217662E+00  0.21742830633E-01 0.  0.
         14    1    1    2    0    0  0.78950752023E-02 -0.17365782104E-01 -0.13741099031E-01  0.23510006446E-01  0.00000000000E+00 0.  1.
     999901    1    3    3    0    0  0.83440504474E-01 -0.28614865783E-01  0.92918821339E-01  0.88927781693E+00  0.88000000000E+00 0. -1.
        -11    1    4    4    0    0 -0.43301225711E-01  0.29171172562E-01 -0.29250974582E-01  0.59848425975E-01  0.51100000000E-03 0.  1.
         11    1    4    4    0    0 -0.48034353966E-01  0.16809475325E-01 -0.49926747726E-01  0.71293750645E-01  0.51100000000E-03 0. -1.
</event>
<event>
 8    1  0.1078274E+005  0.1043930E+01  0.7957747E-01            NaN
         13   -1    0    0    0    0  0.00000000000E+00  0.00000000000E+00  0.74505805969E-08  0.10566000000E+00  0.10566000000E+00 0.  1.
     999900   -1    0    0    0    0 -0.00000000000E+00 -0.00000000000E+00 -0.74505805969E-08  0.93827000000E+00  0.93827000000E+00 0.  1.
     999902    2    1    2    0    0  0.21722388446E-01  0.67238516282E-02 -0.12632833586E-02  0.10211557113E+01  0.10209017183E+01 0.  0.
     999903    2    3    3    0    0  0.73749402671E-02 -0.23189886240E-01  0.12734857415E+00  0.13118846985E+00  0.20014862335E-01 0.  0.
         14    1    1    2    0    0 -0.21722388446E-01 -0.67238516282E-02  0.12632833586E-02  0.22774288691E-01  0.00000000000E+00 0.  1.
     999901    1    3    3    0    0  0.14347448179E-01  0.29913737868E-01 -0.12861185751E+00  0.88996724146E+00  0.88000000000E+00 0.  1.
        -11    1    4    4    0    0 -0.13355195948E-02 -0.20374673042E-01  0.10607227715E+00  0.10802083140E+00  0.51100000000E-03 0.  1.
         11    1    4    4    0    0  0.87104598619E-02 -0.28152131983E-02  0.21276297000E-01  0.23167638451E-01  0.51100000000E-03 0. -1.
</event>
<event>
 8    1  0.1078274E+005  0.1043930E+01  0.7957747E-01            NaN
         13   -1    0    0    0    0  0.00000000000E+00  0.00000000000E+00  0.74505805969E-08  0.10566000000E+00  0.10566000000E+00 0.  1.
     999900   -1    0    0    0    0 -0.00000000000E+00 -0.00000000000E+00 -0.74505805969E-08  0.93827000000E+00  0.93827000000E+00 0. -1.
     999902    2    1    2    0    0  0.12718804852E-01  0.14715594048E-01  0.13741292124E-01  0.10201153026E+01  0.10198372864E+01 0.  0.
     999903    2    3    3    0    0  0.11515541579E+00  0.15263576550E-01  0.61484674715E-01  0.13288760341E+00  0.19621502530E-01 0.  0.
         14    1    1    2    0    0 -0.12718804852E-01 -0.14715594048E-01 -0.13741292124E-01  0.23814697443E-01  0.00000000000E+00 0. -1.
     999901    1    3    3    0    0 -0.10243661094E+00 -0.54798250123E-03 -0.47743382590E-01  0.88722769914E+00  0.88000000000E+00 0. -1.
        -11    1    4    4    0    0  0.83180896175E-01  0.97314575363E-02  0.53784926605E-01  0.99533121147E-01  0.51100000000E-03 0. -1.
         11    1    4    4    0    0  0.31974519615E-01  0.55321190132E-02  0.76997481095E-02  0.33354482267E-01  0.51100000000E-03 0.  1.
</event>
<event>
 8    1  0.1078274E+005  0.1043930E+01  0.7957747E-01            NaN
         13   -1    0    0    0    0  0.00000000000E+00  0.00000000000E+00  0.74505805969E-08  0.10566000000E+00  0.10566000000E+00 0.  1.
     999900   -1    0    0    0    0 -0.00000000000E+00 -0.00000000000E+00 -0.74505805969E-08  0.93827000000E+00  0.93827000000E+00 0. -1.
     999902    2    1    2    0    0  0.20266511508E-01  0.12234426834E-01  0.10217151508E-02  0.10202349248E+01  0.10199597272E+01 0.  0.
     999903    2    3    3    0    0 -0.60163316546E-01 -0.99722342610E-01 -0.50613823280E-01  0.12800765310E+00  0.16125441772E-01 0.  0.
         14    1    1    2    0    0 -0.20266511508E-01 -0.12234426834E-01 -0.10217151508E-02  0.23695075238E-01  0.00000000000E+00 0. -1.
     999901    1    3    3    0    0  0.80429828054E-01  0.11195676944E+00  0.51635538431E-01  0.89222727166E+00  0.88000000000E+00 0.  1.
        -11    1    4    4    0    0 -0.23252823595E-01 -0.38355520214E-01 -0.28130818526E-01  0.52947557148E-01  0.51100000000E-03 0. -1.
         11    1    4    4    0    0 -0.36910492951E-01 -0.61366822396E-01 -0.22483004754E-01  0.75060095954E-01  0.51100000000E-03 0.  1.
</event>
<event>
 8    1  0.1078274E+005  0.1043930E+01  0.7957747E-01            NaN
         13   -1    0    0    0    0  0.00000000000E+00  0.00000000000E+00  0.74505805969E-08  0.10566000000E+00  0.10566000000E+00 0.  1.
     999900   -1    0    0    0    0 -0.00000000000E+00 -0.00000000000E+00 -0.74505805969E-08  0.93827000000E+00  0.93827000000E+00 0. -1.
     999902    2    1    2    0    0  0.19920862450E-02  0.22552450429E-01  0.15965802413E-01  0.10162264213E+01  0.10158487343E+01 0.  0.
     999903    2    3    3    0    0  0.10290501471E+00 -0.11796835437E-01  0.72468936707E-01  0.12799452770E+00  0.20056045301E-01 0.  0.
         14    1    1    2    0    0 -0.19920862450E-02 -0.22552450429E-01 -0.15965802413E-01  0.27703578734E-01  0.00000000000E+00 0. -1.
     999901    1    3    3    0    0 -0.10091292847E+00  0.34349285866E-01 -0.56503134294E-01  0.88823189357E+00  0.88000000000E+00 0. -1.
        -11    1    4    4    0    0  0.36067641578E-01  0.45356598035E-03  0.15270025020E-01  0.39172889557E-01  0.51100000000E-03 0.  1.
         11    1    4    4    0    0  0.66837373135E-01 -0.12250401417E-01  0.57198911687E-01  0.88821638139E-01  0.51100000000E-03 0. -1.
</event>
<event>
 7    1  0.1078274E+005  0.1043930E+01  0.7957747E-01            NaN
         13   -1    0    0    0    0  0.00000000000E+00  0.00000000000E+00  0.74505805969E-08  0.10566000000E+00  0.10566000000E+00 0. -1.
     999900   -1    0    0    0    0 -0.00000000000E+00 -0.00000000000E+00 -0.74505805969E-08  0.93827000000E+00  0.93827000000E+00 0.  1.
     999902    2    1    2    0    0  0.21323907004E-01 -0.83515244300E-02  0.21972920652E-02  0.10209238038E+01  0.10206645522E+01 0.  0.
         14    1    1    2    0    0 -0.21323907004E-01  0.83515244300E-02 -0.21972920652E-02  0.23006196179E-01  0.00000000000E+00 0. -1.
     999901    1    3    3    0    0 -0.46156501807E-03 -0.10907386719E+00  0.67010196604E-01  0.88926244045E+00  0.88000000000E+00 0. -1.
        -11    1    3    3    0    0  0.31775115906E-01  0.86623621441E-01 -0.67288208953E-01  0.11419839739E+00  0.51100000000E-03 0. -1.
         11    1    3    3    0    0 -0.99896438839E-02  0.14098721320E-01  0.24753044137E-02  0.17462965977E-01  0.51100000000E-03 0.  1.
</event>
<event>
 8    1  0.1078274E+005  0.1043930E+01  0.7957747E-01            NaN
         13   -1    0    0    0    0  0.00000000000E+00  0.00000000000E+00  0.74505805969E-08  0.10566000000E+00  0.10566000000E+00 0.  1.
     999900   -1    0    0    0    0 -0.00000000000E+00 -0.00000000000E+00 -0.74505805969E-08  0.93827000000E+00  0.93827000000E+00 0. -1.
     999902    2    1    2    0    0  0.11204870870E-01  0.17576948727E-01  0.15021447119E-01  0.10182367688E+01  0.10179125577E+01 0.  0.
     999903    2    3    3    0    0 -0.54497698138E-01 -0.34844617817E-01 -0.10609110921E+00  0.12597385935E+00  0.20735073994E-01 0.  0.
         14    1    1    2    0    0 -0.11204870870E-01 -0.17576948727E-01 -0.15021447119E-01  0.25693231235E-01  0.00000000000E+00 0. -1.
     999901    1    3    3    0    0  0.65702569007E-01  0.52421566544E-01  0.12111255633E+00  0.89226290941E+00  0.88000000000E+00 0.  1.
        -11    1    4    4    0    0 -0.18846374761E-01 -0.21764863146E-01 -0.34542907795E-01  0.44970753933E-01  0.51100000000E-03 0. -1.
         11    1    4    4    0    0 -0.35651323376E-01 -0.13079754671E-01 -0.71548201415E-01  0.81003105419E-01  0.51100000000E-03 0.  1.
</event>
<event>
 8    1  0.1078274E+005  0.1043930E+01  0.7957747E-01            NaN
         13   -1    0    0    0    0  0.00000000000E+00  0.00000000000E+00  0.74505805969E-08  0.10566000000E+00  0.10566000000E+00 0. -1.
     999900   -1    0    0    0    0 -0.00000000000E+00 -0.00000000000E+00 -0.74505805969E-08  0.93827000000E+00  0.93827000000E+00 0. -1.
     999902    2    1    2    0    0  0.11151310107E-01 -0.15362729698E-01 -0.14945407710E-01  0.10197694869E+01  0.10194832397E+01 0.  0.
     999903    2    3    3    0    0  0.68596691445E-01 -0.17074461059E-01  0.10670609460E+00  0.12954367855E+00  0.19958224643E-01 0.  0.
         14    1    1    2    0    0 -0.11151310107E-01  0.15362729698E-01  0.14945407710E-01  0.24160513084E-01  0.00000000000E+00 0. -1.
     999901    1    3    3    0    0 -0.57445381338E-01  0.17117313606E-02 -0.12165150231E+00  0.89022580836E+00  0.88000000000E+00 0. -1.
        -11    1    4    4    0    0  0.36557307232E-01 -0.18722960518E-01  0.65576394520E-01  0.77379006209E-01  0.51100000000E-03 0. -1.
         11    1    4    4    0    0  0.32039384213E-01  0.16484994593E-02  0.41129700078E-01  0.52164672344E-01  0.51100000000E-03 0.  1.
</event>
<event>
 8    1  0.1078274E+005  0.1043930E+01  0.7957747E-01            NaN
         13   -1    0    0    0    0  0.00000000000E+00  0.00000000000E+00  0.74505805969E-08  0.10566000000E+00  0.10566000000E+00 0. -1.
     999900   -1    0    0    0    0 -0.00000000000E+00 -0.00000000000E+00 -0.74505805969E-08  0.93827000000E+00  0.93827000000E+00 0.  1.
     999902    2    1    2    0    0 -0.21995312655E-01  0.21511741174E-02 -0.43012690012E-02  0.10214150662E+01  0.10211668890E+01 0.  0.
     999903    2    3    3    0    0  0.21740019181E-01  0.54659137442E-01  0.11502365582E+00  0.13073650289E+00  0.20033523139E-01 0.  0.
         14    1    1    2    0    0  0.21995312655E-01 -0.21511741174E-02  0.43012690012E-02  0.22514933797E-01  0.00000000000E+00 0.  1.
     999901    1    3    3    0    0 -0.43735331836E-01 -0.52507963325E-01 -0.11932492482E+00  0.89067856331E+00  0.88000000000E+00 0.  1.
        -11    1    4    4    0    0  0.12842486709E-01  0.45085968541E-01  0.10209985029E+00  0.11234907465E+00  0.51100000000E-03 0. -1.
         11    1    4    4    0    0  0.88975324724E-02  0.95731689012E-02  0.12923805531E-01  0.18387428241E-01  0.51100000000E-03 0.  1.
</event>
<event>
 8    1  0.1078274E+005  0.1043930E+01  0.7957747E-01            NaN
         13   -1    0    0    0    0  0.00000000000E+00  0.00000000000E+00  0.74505805969E-08  0.10566000000E+00  0.10566000000E+00 0.  1.
     999900   -1    0    0    0    0 -0.00000000000E+00 -0.00000000000E+00 -0.74505805969E-08  0.93827000000E+00  0.93827000000E+00 0.  1.
     999902    2    1    2    0    0  0.13009865303E-01 -0.11964914786E-01  0.73858403803E-02  0.10247736324E+01  0.10245945692E+01 0.  0.
     999903    2    3    3    0    0 -0.50920997197E-01 -0.10762048652E+00 -0.59855443295E-01  0.13474074885E+00  0.19931839748E-01 0.  0.
         14    1    1    2    0    0 -0.13009865303E-01  0.11964914786E-01 -0.73858403803E-02  0.19156367588E-01  0.00000000000E+00 0. -1.
     999901    1    3    3    0    0  0.63930862501E-01  0.95655571732E-01  0.67241283675E-01  0.89003288356E+00  0.88000000000E+00 0. -1.
        -11    1    4    4    0    0 -0.33959029450E-01 -0.59673778364E-01 -0.43643103617E-01  0.81358202535E-01  0.51100000000E-03 0. -1.
         11    1    4    4    0    0 -0.16961967748E-01 -0.47946708154E-01 -0.16212339678E-01  0.53382546319E-01  0.51100000000E-03 0.  1.
</event>
<event>
 8    1  0.1078274E+005  0.1043930E+01  0.7957747E-01            NaN
         13   -1    0    0    0    0  0.00000000000E+00  0.00000000000E+00  0.74505805969E-08  0.10566000000E+00  0.10566000000E+00 0. -1.
     999900   -1    0    0    0    0 -0.00000000000E+00 -0.00000000000E+00 -0.74505805969E-08  0.93827000000E+00  0.93827000000E+00 0. -1.
     999902    2    1    2    0    0  0.48161965457E-03 -0.72473291969E-03 -0.23932055416E-01  0.10199821301E+01  0.10197009588E+01 0.  0.
     999903    2    3    3    0    0 -0.30794725853E-01  0.12223790283E+00  0.23059293972E-01  0.12964162981E+00  0.19616348081E-01 0.  0.
         14    1    1    2    0    0 -0.48161965457E-03  0.72473291969E-03  0.23932055416E-01  0.23947869879E-01  0.00000000000E+00 0. -1.
     999901    1    3    3    0    0  0.31276345507E-01 -0.12296263575E+00 -0.46991349388E-01  0.89034050031E+00  0.88000000000E+00 0. -1.
        -11    1    4    4    0    0 -0.22381425321E-01  0.85627868608E-01  0.25167261792E-01  0.92014739411E-01  0.51100000000E-03 0.  1.
         11    1    4    4    0    0 -0.84133005320E-02  0.36610034223E-01 -0.21079678205E-02  0.37626890397E-01  0.51100000000E-03 0. -1.
</event>
<event>
 8    1  0.1078274E+005  0.1043930E+01  0.7957747E-01            NaN
         13   -1    0    0    0    0  0.00000000000E+00  0.00000000000E+00  0.74505805969E-08  0.10566000000E+00  0.10566000000E+00 0. -1.
     999900   -1    0    0    0    0 -0.00000000000E+00 -0.00000000000E+00 -0.74505805969E-08  0.93827000000E+00  0.93827000000E+00 0. -1.
     999902    2    1    2    0    0 -0.51046677318E-03 -0.21713279283E-01  0.95586868856E-02  0.10202003652E+01  0.10199243548E+01 0.  0.
     999903    2    3    3    0    0 -0.12719999781E+00  0.14834645842E-01  0.98186680795E-02  0.13037675587E+00  0.22400581856E-01 0.  0.
         14    1    1    2    0    0  0.51046677318E-03  0.21713279283E-01 -0.95586868856E-02  0.23729634817E-01  0.00000000000E+00 0.  1.
     999901    1    3    3    0    0  0.12668953104E+00 -0.36547925125E-01 -0.25998119384E-03  0.88982360932E+00  0.88000000000E+00 0. -1.
        -11    1    4    4    0    0 -0.11821153521E+00  0.15206634936E-01  0.32589123681E-02  0.11923124772E+00  0.51100000000E-03 0. -1.
         11    1    4    4    0    0 -0.89884626003E-02 -0.37198909438E-03  0.65597557113E-02  0.11145508144E-01  0.51100000000E-03 0.  1.
</event>
<event>
 8    1  0.1078274E+005  0.1043930E+01  0.7957747E-01            NaN
         13   -1    0    0    0    0  0.00000000000E+00  0.00000000000E+00  0.74505805969E-08  0.10566000000E+00  0.10566000000E+00 0. -1.
     999900   -1    0    0    0    0 -0.00000000000E+00 -0.00000000000E+00 -0.74505805969E-08  0.93827000000E+00  0.93827000000E+00 0. -1.
     999902    2    1    2    0    0 -0.67676421693E-02  0.22488910672E-01 -0.43107419310E-02  0.10200525089E+01  0.10197730073E+01 0.  0.
     999903    2    3    3    0    0  0.92396180149E-01 -0.38671153891E-01 -0.79282334719E-01  0.12921315367E+00  0.19438061477E-01 0.  0.
         14    1    1    2    0    0  0.67676421693E-02 -0.22488910672E-01  0.43107419310E-02  0.23877491069E-01  0.00000000000E+00 0. -1.
     999901    1    3    3    0    0 -0.99163822318E-01  0.61160064562E-01  0.74971592788E-01  0.89083935526E+00  0.88000000000E+00 0.  1.
        -11    1    4    4    0    0  0.47611573882E-01 -0.94368714063E-02 -0.38443161185E-01  0.61919740570E-01  0.51100000000E-03 0.  1.
         11    1    4    4    0    0  0.44784606268E-01 -0.29234282484E-01 -0.40839173534E-01  0.67293413102E-01  0.51100000000E-03 0. -1.
</event>
<event>
 8    1  0.1078274E+005  0.1043930E+01  0.7957747E-01            NaN
         13   -1    0    0    0    0  0.00000000000E+00  0.00000000000E+00  0.74505805969E-08  0.10566000000E+00  0.10566000000E+00 0. -1.
     999900   -1    0    0    0    0 -0.00000000000E+00 -0.00000000000E+00 -0.74505805969E-08  0.93827000000E+00  0.93827000000E+00 0.  1.
     999902    2    1    2    0    0 -0.61978460420E-04 -0.24168693924E-01 -0.49673747325E-03  0.10197561225E+01  0.10194695547E+01 0.  0.
     999903    2    3    3    0    0  0.10511845088E+00 -0.76602182660E-01 -0.90504166606E-02  0.13190176566E+00  0.19959525014E-01 0.  0.
         14    1    1    2    0    0  0.61978460420E-04  0.24168693924E-01  0.49673747325E-03  0.24173877542E-01  0.00000000000E+00 0.  1.
     999901    1    3    3    0    0 -0.10518042934E+00  0.52433488736E-01  0.85536791874E-02  0.88785435680E+00  0.88000000000E+00 0. -1.
        -11    1    4    4    0    0  0.53328623262E-01 -0.28524701605E-01  0.12157804421E-02  0.60492478075E-01  0.51100000000E-03 0.  1.
         11    1    4    4    0    0  0.51789827618E-01 -0.48077481056E-01 -0.10266197103E-01  0.71409287584E-01  0.51100000000E-03 0. -1.
</event>
<event>
 8    1  0.1078274E+005  0.1043930E+01  0.7957747E-01            NaN
         13   -1    0    0    0    0  0.00000000000E+00  0.00000000000E+00  0.74505805969E-08  0.10566000000E+00  0.10566000000E+00 0. -1.
     999900   -1    0    0    0    0 -0.00000000000E+00 -0.00000000000E+00 -0.74505805969E-08  0.93827000000E+00  0.93827000000E+00 0.  1.
     999902    2    1    2    0    0  0.12262684475E-01 -0.12631905315E-01 -0.13183468227E-01  0.10219358577E+01  0.10216991509E+01 0.  0.
     999903    2    3    3    0    0  0.52797213617E-01  0.10211661244E+00 -0.62196964418E-01  0.13220972386E+00  0.19889705800E-01 0.  0.
         14    1    1    2    0    0 -0.12262684475E-01  0.12631905315E-01  0.13183468227E-01  0.21994142332E-01  0.00000000000E+00 0. -1.
     999901    1    3    3    0    0 -0.40534529143E-01 -0.11474851776E+00  0.49013496190E-01  0.88972613381E+00  0.88000000000E+00 0.  1.
        -11    1    4    4    0    0  0.53637655656E-01  0.92645037737E-01 -0.58503696610E-01  0.12199608502E+00  0.51100000000E-03 0. -1.
         11    1    4    4    0    0 -0.84044203859E-03  0.94715747059E-02 -0.36932678079E-02  0.10213638839E-01  0.51100000000E-03 0.  1.
</event>
<event>
 8    1  0.1078274E+005  0.1043930E+01  0.7957747E-01            NaN
         13   -1    0    0    0    0  0.00000000000E+00  0.00000000000E+00  0.74505805969E-08  0.10566000000E+00  0.10566000000E+00 0.  1.
     999900   -1    0    0    0    0 -0.00000000000E+00 -0.00000000000E+00 -0.74505805969E-08  0.93827000000E+00  0.93827000000E+00 0. -1.
     999902    2    1    2    0    0 -0.89301866203E-03  0.63447114603E-02 -0.21587951288E-01  0.10214112859E+01  0.10211630244E+01 0.  0.
     999903    2    3    3    0    0  0.45571532049E-01  0.64191202415E-01 -0.10677558760E+00  0.13418972144E+00  0.20213367672E-01 0.  0.
         14    1    1    2    0    0  0.89301866203E-03 -0.63447114603E-02  0.21587951288E-01  0.22518714143E-01  0.00000000000E+00 0. -1.
     999901    1    3    3    0    0 -0.46464550711E-01 -0.57846490955E-01  0.85187636308E-01  0.88722156442E+00  0.88000000000E+00 0.  1.
        -11    1    4    4    0    0  0.33281787925E-01  0.43016438813E-01 -0.57408793823E-01  0.79083007940E-01  0.51100000000E-03 0.  1.
         11    1    4    4    0    0  0.12289744124E-01  0.21174763602E-01 -0.49366793773E-01  0.55106713499E-01  0.51100000000E-03 0. -1.
</event>
<event>
 8    1  0.1078274E+005  0.1043930E+01  0.7957747E-01            NaN
         13   -1    0    0    0    0  0.00000000000E+00  0.00000000000E+00  0.74505805969E-08  0.10566000000E+00  0.10566000000E+00 0.  1.
     999900   -1    0    0    0    0 -0.00000000000E+00 -0.00000000000E+00 -0.74505805969E-08  0.93827000000E+00  0.93827000000E+00 0.  1.
     999902    2    1    2    0    0  0.16278534524E-01 -0.11755337217E-01 -0.12230762795E-01  0.10204189346E+01  0.10201480441E+01 0.  0.
     999903    2    3    3    0    0 -0.38584095926E-01 -0.11363167661E+00 -0.51541384852E-01  0.13197421386E+00  0.18968088541E-01 0.  0.
         14    1    1    2    0    0 -0.16278534524E-01  0.11755337217E-01  0.12230762795E-01  0.23511065435E-01  0.00000000000E+00 0.  1.
     999901    1    3    3    0    0  0.54862630450E-01  0.10187633939E+00  0.39310622057E-01  0.88844472071E+00  0.88000000000E+00 0. -1.
        -11    1    4    4    0    0 -0.94542372464E-03 -0.65752166067E-02 -0.80375466620E-02  0.10439855209E-01  0.51100000000E-03 0. -1.
         11    1    4    4    0    0 -0.37638672201E-01 -0.10705646000E+00 -0.43503838190E-01  0.12153435865E+00  0.51100000000E-03 0.  1.
</event>
<event>
 8    1  0.1078274E+005  0.1043930E+01  0.7957747E-01            NaN
         13   -1    0    0    0    0  0.00000000000E+00  0.00000000000E+00  0.74505805969E-08  0.10566000000E+00  0.10566000000E+00 0. -1.
     999900   -1    0    0    0    0 -0.00000000000E+00 -0.00000000000E+00 -0.74505805969E-08  0.93827000000E+00  0.93827000000E+00 0.  1.
     999902    2    1    2    0    0 -0.97732173567E-02 -0.10449481758E-01  0.18562356489E-01  0.10204935215E+01  0.10202243669E+01 0.  0.
     999903    2    3    3    0    0  0.12396297940E+00  0.19349830336E-01  0.26835693409E-01  0.12985228203E+00  0.20005612029E-01 0.  0.
         14    1    1    2    0    0  0.97732173567E-02  0.10449481758E-01 -0.18562356489E-01  0.23436478510E-01  0.00000000000E+00 0.  1.
     999901    1    3    3    0    0 -0.13373619675E+00 -0.29799312094E-01 -0.82733369202E-02  0.89064123946E+00  0.88000000000E+00 0.  1.
        -11    1    4    4    0    0  0.66019197431E-01  0.78885413072E-02  0.42963314605E-02  0.66629446181E-01  0.51100000000E-03 0. -1.
         11    1    4    4    0    0  0.57943781966E-01  0.11461289029E-01  0.22539361949E-01  0.63222835849E-01  0.51100000000E-03 0.  1.
</event>
<event>
 8    1  0.1078274E+005  0.1043930E+01  0.7957747E-01            NaN
         13   -1    0    0    0    0  0.00000000000E+00  0.00000000000E+00  0.74505805969E-08  0.10566000000E+00  0.10566000000E+00 0. -1.
     999900   -1    0    0    0    0 -0.00000000000E+00 -0.00000000000E+00 -0.74505805969E-08  0.93827000000E+00  0.93827000000E+00 0.  1.
     999902    2    1    2    0    0  0.23471232377E-01  0.22263834233E-02  0.37645050240E-02  0.10200547611E+01  0.10197753129E+01 0.  0.
     999903    2    3    3    0    0 -0.56527426569E-01 -0.30492780298E-01  0.11042521707E+00  0.12941070396E+00  0.20694011907E-01 0.  0.
         14    1    1    2    0    0 -0.23471232377E-01 -0.22263834233E-02 -0.37645050240E-02  0.23875238858E-01  0.00000000000E+00 0.  1.
     999901    1    3    3    0    0  0.79998658946E-01  0.32719163722E-01 -0.10666071204E+00  0.89064405719E+00  0.88000000000E+00 0. -1.
        -11    1    4    4    0    0 -0.38259492473E-01 -0.99888274119E-02  0.57547047623E-01  0.69824703713E-01  0.51100000000E-03 0.  1.
         11    1    4    4    0    0 -0.18267934096E-01 -0.20503952886E-01  0.52878169445E-01  0.59586000243E-01  0.51100000000E-03 0. -1.
</event>
<event>
 8    1  0.1078274E+005  0.1043930E+01  0.7957747E-01            NaN
         13   -1    0    0    0    0  0.00000000000E+00  0.00000000000E+00  0.74505805969E-08  0.10566000000E+00  0.10566000000E+00 0. -1.
     999900   -1    0    0    0    0 -0.00000000000E+00 -0.00000000000E+00 -0.74505805969E-08  0.93827000000E+00  0.93827000000E+00 0. -1.
     999902    2    1    2    0    0 -0.20795718828E-01 -0.13414538623E-01 -0.41975346180E-02  0.10188295804E+01  0.10185203399E+01 0.  0.
     999903    2    3    3    0    0  0.30718595508E-01 -0.12484022054E+00 -0.78866275554E-02  0.13030101214E+00  0.19683548874E-01 0.  0.
         14    1    1    2    0    0  0.20795718828E-01  0.13414538623E-01  0.41975346180E-02  0.25100419616E-01  0.00000000000E+00 0. -1.
     999901    1    3    3    0    0 -0.51514314336E-01  0.11142568192E+00  0.36890929374E-02  0.88852856824E+00  0.88000000000E+00 0.  1.
        -11    1    4    4    0    0  0.15751586048E-01 -0.98098119984E-01 -0.76527351524E-02  0.99650283912E-01  0.51100000000E-03 0.  1.
         11    1    4    4    0    0  0.14967009460E-01 -0.26742100558E-01 -0.23389240301E-03  0.30650728231E-01  0.51100000000E-03 0. -1.
</event>
<event>
 8    1  0.1078274E+005  0.1043930E+01  0.7957747E-01            NaN
         13   -1    0    0    0    0  0.00000000000E+00  0.00000000000E+00  0.74505805969E-08  0.10566000000E+00  0.10566000000E+00 0. -1.
     999900   -1    0    0    0    0 -0.00000000000E+00 -0.00000000000E+00 -0.74505805969E-08  0.93827000000E+00  0.93827000000E+00 0.  1.
     999902    2    1    2    0    0 -0.24144539487E-02  0.22905370888E-01  0.44935587935E-02  0.10204634776E+01  0.10201936245E+01 0.  0.
     999903    2    3    3    0    0 -0.11062419761E+00  0.16318138860E-01 -0.65312532618E-01  0.13106726068E+00  0.20221403356E-01 0.  0.
         14    1    1    2    0    0  0.24144539487E-02 -0.22905370888E-01 -0.44935587935E-02  0.23466522410E-01  0.00000000000E+00 0. -1.
     999901    1    3    3    0    0  0.10820974366E+00  0.65872320279E-02  0.69806091412E-01  0.88939621691E+00  0.88000000000E+00 0. -1.
        -11    1    4    4    0    0 -0.84900697562E-01  0.74496834067E-02 -0.41011750022E-01  0.94582508902E-01  0.51100000000E-03 0. -1.
         11    1    4    4    0    0 -0.25723500048E-01  0.88684554529E-02 -0.24300782596E-01  0.36484751782E-01  0.51100000000E-03 0.  1.
</event>
<event>
 8    1  0.1078274E+005  0.1043930E+01  0.7957747E-01            NaN
         13   -1    0    0    0    0  0.00000000000E+00  0.00000000000E+00  0.74505805969E-08  0.10566000000E+00  0.10566000000E+00 0. -1.
     999900   -1    0    0    0    0 -0.00000000000E+00 -0.00000000000E+00 -0.74505805969E-08  0.93827000000E+00  0.93827000000E+00 0. -1.
     999902    2    1    2    0    0  0.20017120243E-01  0.13395360120E-01  0.90791155815E-03  0.10198271977E+01  0.10195423327E+01 0.  0.
     999903    2    3    3    0    0  0.52739517531E-01 -0.69734116142E-01 -0.93474861407E-01  0.13028272273E+00  0.24325592765E-01 0.  0.
         14    1    1    2    0    0 -0.20017120243E-01 -0.13395360120E-01 -0.90791155815E-03  0.24102802305E-01  0.00000000000E+00 0. -1.
     999901    1    3    3    0    0 -0.32722397288E-01  0.83129476263E-01  0.94382772965E-01  0.88954447496E+00  0.88000000000E+00 0.  1.
        -11    1    4    4    0    0  0.37307608886E-02 -0.15067098983E-01 -0.75700270718E-02  0.17277224298E-01  0.51100000000E-03 0. -1.
         11    1    4    4    0    0  0.49008756642E-01 -0.54667017159E-01 -0.85904834335E-01  0.11300549843E+00  0.51100000000E-03 0.  1.
</event>
<event>
 8    1  0.1078274E+005  0.1043930E+01  0.7957747E-01            NaN
         13   -1    0    0    0    0  0.00000000000E+00  0.00000000000E+00  0.74505805969E-08  0.10566000000E+00  0.10566000000E+00 0. -1.
     999900   -1    0    0    0    0 -0.00000000000E+00 -0.00000000000E+00 -0.74505805969E-08  0.93827000000E+00  0.93827000000E+00 0.  1.
     999902    2    1    2    0    0  0.16692719369E-01 -0.16512182620E-01  0.72606749148E-02  0.10193532538E+01  0.10190569364E+01 0.  0.
     999903    2    3    3    0    0 -0.56680716036E-01  0.77297877257E-01 -0.78665988495E-01  0.12718321402E+00  0.28276611940E-01 0.  0.
         14    1    1    2    0    0 -0.16692719369E-01  0.16512182620E-01 -0.72606749148E-02  0.24576746226E-01  0.00000000000E+00 0. -1.
     999901    1    3    3    0    0  0.73373435405E-01 -0.93810059877E-01  0.85926663410E-01  0.89217003976E+00  0.88000000000E+00 0. -1.
        -11    1    4    4    0    0 -0.44970891076E-01  0.51059018458E-01 -0.39734657251E-01  0.78794089359E-01  0.51100000000E-03 0. -1.
         11    1    4    4    0    0 -0.11709824960E-01  0.26238858799E-01 -0.38931331244E-01  0.48389124657E-01  0.51100000000E-03 0.  1.
</event>
<event>
 8    1  0.1078274E+005  0.1043930E+01  0.7957747E-01            NaN
         13   -1    0    0    0    0  0.00000000000E+00  0.00000000000E+00  0.74505805969E-08  0.10566000000E+00  0.10566000000E+00 0.  1.
     999900   -1    0    0    0    0 -0.00000000000E+00 -0.00000000000E+00 -0.74505805969E-08  0.93827000000E+00  0.93827000000E+00 0.  1.
     999902    2    1    2    0    0  0.16231981961E-01  0.77168144945E-02 -0.16962109706E-01  0.10192168531E+01  0.10189171968E+01 0.  0.
     999903    2    3    3    0    0 -0.85892158554E-02  0.62432091423E-01  0.10960516702E+00  0.12813373187E+00  0.20818740045E-01 0.  0.
         14    1    1    2    0    0 -0.16231981961E-01 -0.77168144945E-02  0.16962109706E-01  0.24713146906E-01  0.00000000000E+00 0.  1.
     999901    1    3    3    0    0  0.24821197816E-01 -0.54715276929E-01 -0.12656727673E+00  0.89108312122E+00  0.88000000000E+00 0.  1.
        -11    1    4    4    0    0 -0.75313842796E-03  0.52351462403E-01  0.96742224087E-01  0.11000255395E+00  0.51100000000E-03 0.  1.
         11    1    4    4    0    0 -0.78360774275E-02  0.10080629020E-01  0.12862942934E-01  0.18131177921E-01  0.51100000000E-03 0. -1.
</event>
<event>
 8    1  0.1078274E+005  0.1043930E+01  0.7957747E-01            NaN
         13   -1    0    0    0    0  0.00000000000E+00  0.00000000000E+00  0.74505805969E-08  0.10566000000E+00  0.10566000000E+00 0.  1.
     999900   -1    0    0    0    0 -0.00000000000E+00 -0.00000000000E+00 -0.74505805969E-08  0.93827000000E+00  0.93827000000E+00 0.  1.
     999902    2    1    2    0    0  0.75732795480E-02  0.20218329566E-01 -0.99853600400E-02  0.10201425489E+01  0.10198651760E+01 0.  0.
     999903    2    3    3    0    0 -0.36916544067E-01 -0.28146777264E-01  0.11805266756E+00  0.12845187135E+00  0.20208380421E-01 0.  0.
         14    1    1    2    0    0 -0.75732795480E-02 -0.20218329566E-01  0.99853600400E-02  0.23787451076E-01  0.00000000000E+00 0. -1.
     999901    1    3    3    0    0  0.44489823615E-01  0.48365106830E-01 -0.12803802760E+00  0.89169067758E+00  0.88000000000E+00 0.  1.
        -11    1    4    4    0    0 -0.26932265190E-01 -0.17436876835E-01  0.54610887924E-01  0.63340364562E-01  0.51100000000E-03 0. -1.
         11    1    4    4    0    0 -0.99842788767E-02 -0.10709900430E-01  0.63441779634E-01  0.65111506786E-01  0.51100000000E-03 0.  1.
</event>
<event>
 8    1  0.1078274E+005  0.1043930E+01  0.7957747E-01            NaN
         13   -1    0    0    0    0  0.00000000000E+00  0.00000000000E+00  0.74505805969E-08  0.10566000000E+00  0.10566000000E+00 0. -1.
     999900   -1    0    0    0    0 -0.00000000000E+00 -0.00000000000E+00 -0.74505805969E-08  0.93827000000E+00  0.93827000000E+00 0. -1.
     999902    2    1    2    0    0  0.24350095309E-01  0.93331140244E-02 -0.49479132597E-02  0.10173872796E+01  0.10170409828E+01 0.  0.
     999903    2    3    3    0    0 -0.40363532144E-01 -0.89488534211E-01 -0.76943336877E-01  0.12658039104E+00  0.21561674886E-01 0.  0.
         14    1    1    2    0    0 -0.24350095309E-01 -0.93331140244E-02  0.49479132597E-02  0.26542720369E-01  0.00000000000E+00 0. -1.
     999901    1    3    3    0    0  0.64713627453E-01  0.98821648235E-01  0.71995423617E-01  0.89080688859E+00  0.88000000000E+00 0.  1.
        -11    1    4    4    0    0 -0.15379800807E-01 -0.26876435816E-01 -0.36883537346E-01  0.48161577250E-01  0.51100000000E-03 0. -1.
         11    1    4    4    0    0 -0.24983731336E-01 -0.62612098395E-01 -0.40059799532E-01  0.78418813791E-01  0.51100000000E-03 0.  1.
</event>
<event>
 8    1  0.1078274E+005  0.1043930E+01  0.7957747E-01            NaN
         13   -1    0    0    0    0  0.00000000000E+00  0.00000000000E+00  0.74505805969E-08  0.10566000000E+00  0.10566000000E+00 0.  1.
     999900   -1    0    0    0    0 -0.00000000000E+00 -0.00000000000E+00 -0.74505805969E-08  0.93827000000E+00  0.93827000000E+00 0.  1.
     999902    2    1    2    0    0 -0.75461580162E-02  0.22401190845E-01 -0.35504702579E-02  0.10200267849E+01  0.10197466736E+01 0.  0.
     999903    2    3    3    0    0 -0.15630497561E-01 -0.10015368929E+00 -0.76461570040E-01  0.12851061364E+00  0.19837645844E-01 0.  0.
         14    1    1    2    0    0  0.75461580162E-02 -0.22401190845E-01  0.35504702579E-02  0.23903215079E-01  0.00000000000E+00 0. -1.
     999901    1    3    3    0    0  0.80843395451E-02  0.12255488013E+00  0.72911099782E-01  0.89151617128E+00  0.88000000000E+00 0.  1.
        -11    1    4    4    0    0 -0.60583704949E-02 -0.11925740195E-01 -0.17204012078E-01  0.21798309220E-01  0.51100000000E-03 0.  1.
         11    1    4    4    0    0 -0.95721270664E-02 -0.88227949091E-01 -0.59257557962E-01  0.10671230442E+00  0.51100000000E-03 0. -1.
</event>
<event>
 8    1  0.1078274E+005  0.1043930E+01  0.7957747E-01            NaN
         13   -1    0    0    0    0  0.00000000000E+00  0.00000000000E+00  0.74505805969E-08  0.10566000000E+00  0.10566000000E+00 0. -1.
     999900   -1    0    0    0    0 -0.00000000000E+00 -0.00000000000E+00 -0.74505805969E-08  0.93827000000E+00  0.93827000000E+00 0. -1.
     999902    2    1    2    0    0  0.89691099310E-03  0.22465347798E-01 -0.34007696263E-02  0.10211910129E+01  0.10209378156E+01 0.  0.
     999903    2    3    3    0    0  0.12270963017E+00  0.44516859447E-01 -0.93352862487E-02  0.13250668974E+00  0.20771883519E-01 0.  0.
         14    1    1    2    0    0 -0.89691099310E-03 -0.22465347798E-01  0.34007696263E-02  0.22738987116E-01  0.00000000000E+00 0.  1.
     999901    1    3    3    0    0 -0.12181271917E+00 -0.22051511649E-01  0.59345166224E-02  0.88868432315E+00  0.88000000000E+00 0. -1.
        -11    1    4    4    0    0  0.17710474895E-01  0.48631937075E-02 -0.85505988340E-02  0.20265375286E-01  0.51100000000E-03 0.  1.
         11    1    4    4    0    0  0.10499915527E+00  0.39653665740E-01 -0.78468741469E-03  0.11224131445E+00  0.51100000000E-03 0. -1.
</event>
<event>
 8    1  0.1078274E+005  0.1043930E+01  0.7957747E-01            NaN
         13   -1    0    0    0    0  0.00000000000E+00  0.00000000000E+00  0.74505805969E-08  0.10566000000E+00  0.10566000000E+00 0. -1.
     999900   -1    0    0    0    0 -0.00000000000E+00 -0.00000000000E+00 -0.74505805969E-08  0.93827000000E+00  0.93827000000E+00 0. -1.
     999902    2    1    2    0    0  0.12463710420E-01 -0.20848332450E-01  0.16584327836E-02  0.10195835949E+01  0.10192928723E+01 0.  0.
     999903    2    3    3    0    0  0.42565407475E-01  0.11654700148E+00 -0.24042306179E-01  0.12804328847E+00  0.20543460507E-01 0.  0.
         14    1    1    2    0    0 -0.12463710420E-01  0.20848332450E-01 -0.16584327836E-02  0.24346405129E-01  0.00000000000E+00 0.  1.
     999901    1    3    3    0    0 -0.30101697055E-01 -0.13739533393E+00  0.25700738962E-01  0.89154030640E+00  0.88000000000E+00 0.  1.
        -11    1    4    4    0    0  0.35386417103E-01  0.69960197136E-01 -0.18705929054E-01  0.80602733214E-01  0.51100000000E-03 0.  1.
         11    1    4    4    0    0  0.71789903723E-02  0.46586804340E-01 -0.53363771247E-02  0.47440555259E-01  0.51100000000E-03 0. -1.
</event>
<event>
 8    1  0.1078274E+005  0.1043930E+01  0.7957747E-01            NaN
         13   -1    0    0    0    0  0.00000000000E+00  0.00000000000E+00  0.74505805969E-08  0.10566000000E+00  0.10566000000E+00 0. -1.
     999900   -1    0    0    0    0 -0.00000000000E+00 -0.00000000000E+00 -0.74505805969E-08  0.93827000000E+00  0.93827000000E+00 0. -1.
     999902    2    1    2    0    0  0.51593096811E-02  0.97261710901E-02  0.22189712257E-01  0.10191590450E+01  0.10188579679E+01 0.  0.
     999903    2    3    3    0    0  0.66391772759E-01  0.11080212045E+00 -0.44836789002E-02  0.13085885259E+00  0.20468476693E-01 0.  0.
         14    1    1    2    0    0 -0.51593096811E-02 -0.97261710901E-02 -0.22189712257E-01  0.24770954978E-01  0.00000000000E+00 0.  1.
     999901    1    3    3    0    0 -0.61232463078E-01 -0.10107594936E+00  0.26673391157E-01  0.88830019243E+00  0.88000000000E+00 0. -1.
        -11    1    4    4    0    0  0.47139507560E-01  0.86442399588E-01 -0.11172257899E-01  0.99093400825E-01  0.51100000000E-03 0.  1.
         11    1    4    4    0    0  0.19252265199E-01  0.24359720866E-01  0.66885789986E-02  0.31765451767E-01  0.51100000000E-03 0. -1.
</event>
<event>
 8    1  0.1078274E+005  0.1043930E+01  0.7957747E-01            NaN
         13   -1    0    0    0    0  0.00000000000E+00  0.00000000000E+00  0.74505805969E-08  0.10566000000E+00  0.10566000000E+00 0. -1.
     999900   -1    0    0    0    0 -0.00000000000E+00 -0.00000000000E+00 -0.74505805969E-08  0.93827000000E+00  0.93827000000E+00 0. -1.
     999902    2    1    2    0    0  0.19044915965E-01  0.11314060737E-01  0.22652262771E-02  0.10216623543E+01  0.10214196582E+01 0.  0.
     999903    2    3    3    0    0 -0.39853542667E-01  0.70946508497E-01 -0.10125138717E+00  0.13163946330E+00  0.21339938249E-01 0.  0.
         14    1    1    2    0    0 -0.19044915965E-01 -0.11314060737E-01 -0.22652262771E-02  0.22267645690E-01  0.00000000000E+00 0. -1.
     999901    1    3    3    0    0  0.58898458632E-01 -0.59632447760E-01  0.10351661345E+00  0.89002289101E+00  0.88000000000E+00 0.  1.
        -11    1    4    4    0    0 -0.27288060650E-01  0.50893344207E-01 -0.55336052385E-01  0.79981938919E-01  0.51100000000E-03 0.  1.
         11    1    4    4    0    0 -0.12565482016E-01  0.20053164290E-01 -0.45915334784E-01  0.51657524386E-01  0.51100000000E-03 0. -1.
</event>
<event>
 8    1  0.1078274E+005  0.1043930E+01  0.7957747E-01            NaN
         13   -1    0    0    0    0  0.00000000000E+00  0.00000000000E+00  0.74505805969E-08  0.10566000000E+00  0.10566000000E+00 0.  1.
     999900   -1    0    0    0    0 -0.00000000000E+00 -0.00000000000E+00 -0.74505805969E-08  0.93827000000E+00  0.93827000000E+00 0. -1.
     999902    2    1    2    0    0 -0.11175798944E-01 -0.39506318195E-02 -0.18434865013E-01  0.10220131065E+01  0.10217780775E+01 0.  0.
     999903    2    3    3    0    0 -0.10598953402E+00  0.44818306504E-01 -0.66103480854E-01  0.13429673812E+00  0.20578672685E-01 0.  0.
         14    1    1    2    0    0  0.11175798944E-01  0.39506318195E-02  0.18434865013E-01  0.21916893526E-01  0.00000000000E+00 0.  1.
     999901    1    3    3    0    0  0.94813735075E-01 -0.48768938324E-01  0.47668615841E-01  0.88771636835E+00  0.88000000000E+00 0.  1.
        -11    1    4    4    0    0 -0.48459773950E-01  0.31619796993E-01 -0.33570931333E-01  0.66898653235E-01  0.51100000000E-03 0.  1.
         11    1    4    4    0    0 -0.57529760070E-01  0.13198509512E-01 -0.32532549521E-01  0.67398084886E-01  0.51100000000E-03 0. -1.
</event>
<event>
 8    1  0.1078274E+005  0.1043930E+01  0.7957747E-01            NaN
         13   -1    0    0    0    0  0.00000000000E+00  0.00000000000E+00  0.74505805969E-08  0.10566000000E+00  0.10566000000E+00 0. -1.
     999900   -1    0    0    0    0 -0.00000000000E+00 -0.00000000000E+00 -0.74505805969E-08  0.93827000000E+00  0.93827000000E+00 0. -1.
     999902    2    1    2    0    0 -0.18833824420E-01 -0.10640375090E-01 -0.84067779356E-02  0.10207221470E+01  0.10204582779E+01 0.  0.
     999903    2    3    3    0    0 -0.69655764520E-01 -0.10997937996E+00 -0.22453250788E-01  0.13356465769E+00  0.19697201966E-01 0.  0.
         14    1    1    2    0    0  0.18833824420E-01  0.10640375090E-01  0.84067779356E-02  0.23207852972E-01  0.00000000000E+00 0. -1.
     999901    1    3    3    0    0  0.50821940100E-01  0.99339004874E-01  0.14046472853E-01  0.88715748934E+00  0.88000000000E+00 0.  1.
        -11    1    4    4    0    0 -0.54262638825E-01 -0.68461773851E-01 -0.13748011488E-01  0.88434820020E-01  0.51100000000E-03 0. -1.
         11    1    4    4    0    0 -0.15393125694E-01 -0.41517606113E-01 -0.87052393008E-02  0.45129837672E-01  0.51100000000E-03 0.  1.
</event>
<event>
 8    1  0.1078274E+005  0.1043930E+01  0.7957747E-01            NaN
         13   -1    0    0    0    0  0.00000000000E+00  0.00000000000E+00  0.74505805969E-08  0.10566000000E+00  0.10566000000E+00 0.  1.
     999900   -1    0    0    0    0 -0.00000000000E+00 -0.00000000000E+00 -0.74505805969E-08  0.93827000000E+00  0.93827000000E+00 0. -1.
     999902    2    1    2    0    0  0.43412728998E-02  0.74241534790E-03 -0.23171800050E-01  0.10203433481E+01  0.10200706926E+01 0.  0.
     999903    2    3    3    0    0  0.92372885319E-01  0.79631324523E-01  0.40747114246E-01  0.13014188079E+00  0.20066988517E-01 0.  0.
         14    1    1    2    0    0 -0.43412728998E-02 -0.74241534790E-03  0.23171800050E-01  0.23586651914E-01  0.00000000000E+00 0.  1.
     999901    1    3    3    0    0 -0.88031612419E-01 -0.78888909175E-01 -0.63918914296E-01  0.89020146730E+00  0.88000000000E+00 0. -1.
        -11    1    4    4    0    0  0.25307273805E-01  0.22626766685E-01  0.21156669798E-02  0.34017140471E-01  0.51100000000E-03 0. -1.
         11    1    4    4    0    0  0.67065611514E-01  0.57004557837E-01  0.38631447266E-01  0.96124740316E-01  0.51100000000E-03 0.  1.
</event>
<event>
 8    1  0.1078274E+005  0.1043930E+01  0.7957747E-01            NaN
         13   -1    0    0    0    0  0.00000000000E+00  0.00000000000E+00  0.74505805969E-08  0.10566000000E+00  0.10566000000E+00 0. -1.
     999900   -1    0    0    0    0 -0.00000000000E+00 -0.00000000000E+00 -0.74505805969E-08  0.93827000000E+00  0.93827000000E+00 0.  1.
     999902    2    1    2    0    0 -0.35194106573E-02 -0.10133523696E-02 -0.22867788267E-01  0.10207707929E+01  0.10205080415E+01 0.  0.
     999903    2    3    3    0    0  0.38622989239E-01  0.18329164010E-01 -0.12490375437E+00  0.13366231406E+00  0.20903894189E-01 0.  0.
         14    1    1    2    0    0  0.35194106573E-02  0.10133523696E-02  0.22867788267E-01  0.23159207124E-01  0.00000000000E+00 0. -1.
     999901    1    3    3    0    0 -0.42142399897E-01 -0.19342516380E-01  0.10203596611E+00  0.88710847882E+00  0.88000000000E+00 0. -1.
        -11    1    4    4    0    0  0.19092010368E-01  0.17150742540E-01 -0.90611660521E-01  0.94177422841E-01  0.51100000000E-03 0.  1.
         11    1    4    4    0    0  0.19530978871E-01  0.11784214704E-02 -0.34292093851E-01  0.39484891218E-01  0.51100000000E-03 0. -1.
</event>
<event>
 8    1  0.1078274E+005  0.1043930E+01  0.7957747E-01            NaN
         13   -1    0    0    0    0  0.00000000000E+00  0.00000000000E+00  0.74505805969E-08  0.10566000000E+00  0.10566000000E+00 0.  1.
     999900   -1    0    0    0    0 -0.00000000000E+00 -0.00000000000E+00 -0.74505805969E-08  0.93827000000E+00  0.93827000000E+00 0. -1.
     999902    2    1    2    0    0  0.16539063667E-01 -0.18577660668E-02 -0.17238264544E-01  0.10199685792E+01  0.10196870858E+01 0.  0.
     999903    2    3    3    0    0 -0.36064914818E-01 -0.10088958535E+00  0.68997809525E-01  0.12867113152E+00  0.17781334452E-01 0.  0.
         14    1    1    2    0    0 -0.16539063667E-01  0.18577660668E-02  0.17238264544E-01  0.23961420789E-01  0.00000000000E+00 0.  1.
     999901    1    3    3    0    0  0.52603978485E-01  0.99031819285E-01 -0.86236074069E-01  0.89129744769E+00  0.88000000000E+00 0. -1.
        -11    1    4    4    0    0 -0.12725614768E-01 -0.41336542923E-01  0.38069127626E-01  0.57620921992E-01  0.51100000000E-03 0. -1.
         11    1    4    4    0    0 -0.23339300050E-01 -0.59553042429E-01  0.30928681899E-01  0.71050209531E-01  0.51100000000E-03 0.  1.
</event>
<event>
 8    1  0.1078274E+005  0.1043930E+01  0.7957747E-01            NaN
         13   -1    0    0    0    0  0.00000000000E+00  0.00000000000E+00  0.74505805969E-08  0.10566000000E+00  0.10566000000E+00 0.  1.
     999900   -1    0    0    0    0 -0.00000000000E+00 -0.00000000000E+00 -0.74505805969E-08  0.93827000000E+00  0.93827000000E+00 0. -1.
     999902    2    1    2    0    0  0.10074408173E-01  0.67493458514E-02  0.19731546130E-01  0.10207700932E+01  0.10205073258E+01 0.  0.
     999903    2    3    3    0    0  0.44513200712E-01  0.85324744163E-02 -0.11918633708E+00  0.12920551998E+00  0.20843591090E-01 0.  0.
         14    1    1    2    0    0 -0.10074408173E-01 -0.67493458514E-02 -0.19731546130E-01  0.23159906781E-01  0.00000000000E+00 0. -1.
     999901    1    3    3    0    0 -0.34438792539E-01 -0.17831285649E-02  0.13891788321E+00  0.89156457324E+00  0.88000000000E+00 0.  1.
        -11    1    4    4    0    0  0.35896292323E-01 -0.14170387728E-02 -0.96517339351E-01  0.10298742505E+00  0.51100000000E-03 0. -1.
         11    1    4    4    0    0  0.86169083893E-02  0.99495131892E-02 -0.22668997728E-01  0.26218094933E-01  0.51100000000E-03 0.  1.
</event>
<event>
 8    1  0.1078274E+005  0.1043930E+01  0.7957747E-01            NaN
         13   -1    0    0    0    0  0.00000000000E+00  0.00000000000E+00  0.74505805969E-08  0.10566000000E+00  0.10566000000E+00 0.  1.
     999900   -1    0    0    0    0 -0.00000000000E+00 -0.00000000000E+00 -0.74505805969E-08  0.93827000000E+00  0.93827000000E+00 0.  1.
     999902    2    1    2    0    0  0.78798384588E-02 -0.22756394768E-02 -0.20833136046E-01  0.10215404947E+01  0.10212951054E+01 0.  0.
     999903    2    3    3    0    0  0.25429190547E-01  0.10394753029E+00  0.71675286624E-01  0.13016562979E+00  0.18815198147E-01 0.  0.
         14    1    1    2    0    0 -0.78798384588E-02  0.22756394768E-02  0.20833136046E-01  0.22389505280E-01  0.00000000000E+00 0.  1.
     999901    1    3    3    0    0 -0.17549352089E-01 -0.10622316977E+00 -0.92508422671E-01  0.89137486492E+00  0.88000000000E+00 0.  1.
        -11    1    4    4    0    0  0.18974561172E-01  0.50467169426E-01  0.27659137399E-01  0.60599159765E-01  0.51100000000E-03 0. -1.
         11    1    4    4    0    0  0.64546293753E-02  0.53480360867E-01  0.44016149225E-01  0.69566470030E-01  0.51100000000E-03 0.  1.
</event>
<event>
 8    1  0.1078274E+005  0.1043930E+01  0.7957747E-01            NaN
         13   -1    0    0    0    0  0.00000000000E+00  0.00000000000E+00  0.74505805969E-08  0.10566000000E+00  0.10566000000E+00 0. -1.
     999900   -1    0    0    0    0 -0.00000000000E+00 -0.00000000000E+00 -0.74505805969E-08  0.93827000000E+00  0.93827000000E+00 0. -1.
     999902    2    1    2    0    0  0.86767828741E-02  0.58572641795E-02 -0.21430567959E-01  0.10200791437E+01  0.10198002726E+01 0.  0.
     999903    2    3    3    0    0 -0.17999935082E-01 -0.80697801431E-01 -0.10111385962E+00  0.13184896312E+00  0.18000101364E-01 0.  0.
         14    1    1    2    0    0 -0.86767828741E-02 -0.58572641795E-02  0.21430567959E-01  0.23850856332E-01  0.00000000000E+00 0. -1.
     999901    1    3    3    0    0  0.26676717956E-01  0.86555065610E-01  0.79683291666E-01  0.88823018055E+00  0.88000000000E+00 0. -1.
        -11    1    4    4    0    0 -0.20565042482E-01 -0.77054564783E-01 -0.92477020715E-01  0.12211710530E+00  0.51100000000E-03 0.  1.
         11    1    4    4    0    0  0.25651073998E-02 -0.36432366482E-02 -0.86368389095E-02  0.97318578183E-02  0.51100000000E-03 0. -1.
</event>
<event>
 8    1  0.1078274E+005  0.1043930E+01  0.7957747E-01            NaN
         13   -1    0    0    0    0  0.00000000000E+00  0.00000000000E+00  0.74505805969E-08  0.10566000000E+00  0.10566000000E+00 0. -1.
     999900   -1    0    0    0    0 -0.00000000000E+00 -0.00000000000E+00 -0.74505805969E-08  0.93827000000E+00  0.93827000000E+00 0.  1.
     999902    2    1    2    0    0  0.20217676845E-01  0.15532749315E-01 -0.43461637252E-02  0.10180667075E+01  0.10177381348E+01 0.  0.
     999903    2    3    3    0    0  0.12158369686E+00  0.18831867435E-01 -0.41589005193E-01  0.13145913739E+00  0.20362339688E-01 0.  0.
         14    1    1    2    0    0 -0.20217676845E-01 -0.15532749315E-01  0.43461637252E-02  0.25863292470E-01  0.00000000000E+00 0. -1.
     999901    1    3    3    0    0 -0.10136602001E+00 -0.32991181196E-02  0.37242841468E-01  0.88660757014E+00  0.88000000000E+00 0. -1.
        -11    1    4    4    0    0  0.88380300725E-01  0.13715101877E-01 -0.20400057507E-01  0.91736606887E-01  0.51100000000E-03 0.  1.
         11    1    4    4    0    0  0.33203396130E-01  0.51167655575E-02 -0.21188947686E-01  0.39722530500E-01  0.51100000000E-03 0. -1.
</event>
<event>
 8    1  0.1078274E+005  0.1043930E+01  0.7957747E-01            NaN
         13   -1    0    0    0    0  0.00000000000E+00  0.00000000000E+00  0.74505805969E-08  0.10566000000E+00  0.10566000000E+00 0.  1.
     999900   -1    0    0    0    0 -0.00000000000E+00 -0.00000000000E+00 -0.74505805969E-08  0.93827000000E+00  0.93827000000E+00 0.  1.
     999902    2    1    2    0    0  0.20195506202E-01 -0.43554010610E-02 -0.10754118055E-01  0.10206388205E+01  0.10203730312E+01 0.  0.
     999903    2    3    3    0    0 -0.31117742440E-01  0.75835802013E-01 -0.99771337529E-01  0.13103905433E+00  0.22305407555E-01 0.  0.
         14    1    1    2    0    0 -0.20195506202E-01  0.43554010610E-02  0.10754118055E-01  0.23291179538E-01  0.00000000000E+00 0. -1.
     999901    1    3    3    0    0  0.51313248642E-01 -0.80191203074E-01  0.89017219474E-01  0.88959976613E+00  0.88000000000E+00 0. -1.
        -11    1    4    4    0    0  0.20842304089E-02  0.61133782423E-02 -0.27588717706E-02  0.70420099671E-02  0.51100000000E-03 0. -1.
         11    1    4    4    0    0 -0.33201972849E-01  0.69722423770E-01 -0.97012465758E-01  0.12399704436E+00  0.51100000000E-03 0.  1.
</event>
<event>
 8    1  0.1078274E+005  0.1043930E+01  0.7957747E-01            NaN
         13   -1    0    0    0    0  0.00000000000E+00  0.00000000000E+00  0.74505805969E-08  0.10566000000E+00  0.10566000000E+00 0.  1.
     999900   -1    0    0    0    0 -0.00000000000E+00 -0.00000000000E+00 -0.74505805969E-08  0.93827000000E+00  0.93827000000E+00 0.  1.
     999902    2    1    2    0    0 -0.79610866077E-02 -0.15300037377E-01  0.15714286653E-01  0.10205974294E+01  0.10203306837E+01 0.  0.
     999903    2    3    3    0    0  0.10088249834E+00  0.25605639554E-01 -0.72978999135E-01  0.12852865444E+00  0.18993510750E-01 0.  0.
         14    1    1    2    0    0  0.79610866077E-02  0.15300037377E-01 -0.15714286653E-01  0.23332570555E-01  0.00000000000E+00 0. -1.
     999901    1    3    3    0    0 -0.10884358494E+00 -0.40905676931E-01  0.88693285788E-01  0.89206877500E+00  0.88000000000E+00 0. -1.
        -11    1    4    4    0    0  0.58642362728E-01  0.61293412495E-02 -0.45724000180E-01  0.74615285591E-01  0.51100000000E-03 0. -1.
         11    1    4    4    0    0  0.42240135609E-01  0.19476298305E-01 -0.27254998955E-01  0.53913368852E-01  0.51100000000E-03 0.  1.
</event>
<event>
 8    1  0.1078274E+005  0.1043930E+01  0.7957747E-01            NaN
         13   -1    0    0    0    0  0.00000000000E+00  0.00000000000E+00  0.74505805969E-08  0.10566000000E+00  0.10566000000E+00 0. -1.
     999900   -1    0    0    0    0 -0.00000000000E+00 -0.00000000000E+00 -0.74505805969E-08  0.93827000000E+00  0.93827000000E+00 0.  1.
     999902    2    1    2    0    0  0.53288464709E-02  0.12368383549E-01 -0.21156324860E-01  0.10188508533E+01  0.10185421433E+01 0.  0.
     999903    2    3    3    0    0 -0.74292820998E-01  0.10025331591E+00  0.28462866838E-01  0.12951096585E+00  0.19819305875E-01 0.  0.
         14    1    1    2    0    0 -0.53288464709E-02 -0.12368383549E-01  0.21156324860E-01  0.25079146674E-01  0.00000000000E+00 0.  1.
     999901    1    3    3    0    0  0.79621667469E-01 -0.87884932357E-01 -0.49619191698E-01  0.88933988747E+00  0.88000000000E+00 0. -1.
        -11    1    4    4    0    0 -0.39165778138E-01  0.36448207602E-01  0.12511916923E-01  0.54947604139E-01  0.51100000000E-03 0.  1.
         11    1    4    4    0    0 -0.35127042860E-01  0.63805108304E-01  0.15950949915E-01  0.74563361714E-01  0.51100000000E-03 0. -1.
</event>
<event>
 8    1  0.1078274E+005  0.1043930E+01  0.7957747E-01            NaN
         13   -1    0    0    0    0  0.00000000000E+00  0.00000000000E+00  0.74505805969E-08  0.10566000000E+00  0.10566000000E+00 0. -1.
     999900   -1    0    0    0    0 -0.00000000000E+00 -0.00000000000E+00 -0.74505805969E-08  0.93827000000E+00  0.93827000000E+00 0.  1.
     999902    2    1    2    0    0 -0.68625773571E-02  0.15755848916E-01 -0.18770688644E-01  0.10184804323E+01  0.10181624185E+01 0.  0.
     999903    2    3    3    0    0  0.19576135503E-01 -0.12345597133E+00 -0.10864214574E-01  0.12710988717E+00  0.20354122880E-01 0.  0.
         14    1    1    2    0    0  0.68625773571E-02 -0.15755848916E-01  0.18770688644E-01  0.25449567682E-01  0.00000000000E+00 0. -1.
     999901    1    3    3    0    0 -0.26438712860E-01  0.13921182025E+00 -0.79064740703E-02  0.89137054515E+00  0.88000000000E+00 0. -1.
        -11    1    4    4    0    0  0.65829442482E-02 -0.38131413612E-01 -0.12852483039E-01  0.40777289026E-01  0.51100000000E-03 0. -1.
         11    1    4    4    0    0  0.12993191255E-01 -0.85324557719E-01  0.19882684657E-02  0.86332598139E-01  0.51100000000E-03 0.  1.
</event>
<event>
 8    1  0.1078274E+005  0.1043930E+01  0.7957747E-01            NaN
         13   -1    0    0    0    0  0.00000000000E+00  0.00000000000E+00  0.74505805969E-08  0.10566000000E+00  0.10566000000E+00 0.  1.
     999900   -1    0    0    0    0 -0.00000000000E+00 -0.00000000000E+00 -0.74505805969E-08  0.93827000000E+00  0.93827000000E+00 0.  1.
     999902    2    1    2    0    0  0.21793742811E-01  0.14613824212E-01  0.11439075676E-01  0.10153051238E+01  0.10149015277E+01 0.  0.
     999903    2    3    3    0    0  0.31864946738E-02  0.12008697972E+00 -0.38775189074E-01  0.12739055102E+00  0.17140617109E-01 0.  0.
         14    1    1    2    0    0 -0.21793742811E-01 -0.14613824212E-01 -0.11439075676E-01  0.28624876176E-01  0.00000000000E+00 0. -1.
     999901    1    3    3    0    0  0.18607248137E-01 -0.10547315551E+00  0.50214264750E-01  0.88791457281E+00  0.88000000000E+00 0. -1.
        -11    1    4    4    0    0  0.97071501345E-02  0.85140060340E-01 -0.29734965734E-01  0.90705501193E-01  0.51100000000E-03 0. -1.
         11    1    4    4    0    0 -0.65206554608E-02  0.34946919378E-01 -0.90402233397E-02  0.36685049825E-01  0.51100000000E-03 0.  1.
</event>
<event>
 8    1  0.1078274E+005  0.1043930E+01  0.7957747E-01            NaN
         13   -1    0    0    0    0  0.00000000000E+00  0.00000000000E+00  0.74505805969E-08  0.10566000000E+00  0.10566000000E+00 0.  1.
     999900   -1    0    0    0    0 -0.00000000000E+00 -0.00000000000E+00 -0.74505805969E-08  0.93827000000E+00  0.93827000000E+00 0.  1.
     999902    2    1    2    0    0 -0.12716256051E-01 -0.12028008872E-01 -0.15348490548E-01  0.10206501304E+01  0.10203846022E+01 0.  0.
     999903    2    3    3    0    0  0.59672802886E-01  0.54179407644E-01  0.96065058399E-01  0.12821717678E+00  0.26737564587E-01 0.  0.
         14    1    1    2    0    0  0.12716256051E-01  0.12028008872E-01  0.15348490548E-01  0.23279869576E-01  0.00000000000E+00 0.  1.
     999901    1    3    3    0    0 -0.72389058937E-01 -0.66207416516E-01 -0.11141354895E+00  0.89243295364E+00  0.88000000000E+00 0.  1.
        -11    1    4    4    0    0  0.36702534370E-01  0.19164870515E-01  0.60273776004E-01  0.73126995603E-01  0.51100000000E-03 0.  1.
         11    1    4    4    0    0  0.22970268516E-01  0.35014537128E-01  0.35791282395E-01  0.55090181180E-01  0.51100000000E-03 0. -1.
</event>
<event>
 8    1  0.1078274E+005  0.1043930E+01  0.7957747E-01            NaN
         13   -1    0    0    0    0  0.00000000000E+00  0.00000000000E+00  0.74505805969E-08  0.10566000000E+00  0.10566000000E+00 0. -1.
     999900   -1    0    0    0    0 -0.00000000000E+00 -0.00000000000E+00 -0.74505805969E-08  0.93827000000E+00  0.93827000000E+00 0.  1.
     999902    2    1    2    0    0  0.83363564765E-02 -0.64578238369E-02 -0.23291727311E-01  0.10183623859E+01  0.10180413774E+01 0.  0.
     999903    2    3    3    0    0 -0.10375989000E+00  0.36108801378E-01 -0.65211881018E-01  0.12924215484E+00  0.19518833245E-01 0.  0.
         14    1    1    2    0    0 -0.83363564765E-02  0.64578238369E-02  0.23291727311E-01  0.25567614069E-01  0.00000000000E+00 0. -1.
     999901    1    3    3    0    0  0.11209624648E+00 -0.42566625215E-01  0.41920153707E-01  0.88912023110E+00  0.88000000000E+00 0. -1.
        -11    1    4    4    0    0 -0.79250365839E-01  0.19277321217E-01 -0.51793170789E-01  0.96617955165E-01  0.51100000000E-03 0.  1.
         11    1    4    4    0    0 -0.24509524160E-01  0.16831480162E-01 -0.13418710229E-01  0.32624199671E-01  0.51100000000E-03 0. -1.
</event>
<event>
 8    1  0.1078274E+005  0.1043930E+01  0.7957747E-01            NaN
         13   -1    0    0    0    0  0.00000000000E+00  0.00000000000E+00  0.74505805969E-08  0.10566000000E+00  0.10566000000E+00 0. -1.
     999900   -1    0    0    0    0 -0.00000000000E+00 -0.00000000000E+00 -0.74505805969E-08  0.93827000000E+00  0.93827000000E+00 0.  1.
     999902    2    1    2    0    0  0.19847632380E-01  0.17695932382E-03 -0.12905374407E-01  0.10202549390E+01  0.10199802116E+01 0.  0.
     999903    2    3    3    0    0  0.11158961845E+00 -0.54114247482E-01  0.39977866262E-01  0.13224549968E+00  0.22584234963E-01 0.  0.
         14    1    1    2    0    0 -0.19847632380E-01 -0.17695932382E-03  0.12905374407E-01  0.23675061019E-01  0.00000000000E+00 0. -1.
     999901    1    3    3    0    0 -0.91741986068E-01  0.54291206806E-01 -0.52883240669E-01  0.88800943930E+00  0.88000000000E+00 0.  1.
        -11    1    4    4    0    0  0.56736772819E-01 -0.18437048081E-01  0.27224604859E-01  0.65577636147E-01  0.51100000000E-03 0.  1.
         11    1    4    4    0    0  0.54852845628E-01 -0.35677199402E-01  0.12753261403E-01  0.66667863533E-01  0.51100000000E-03 0. -1.
</event>
<event>
 8    1  0.1078274E+005  0.1043930E+01  0.7957747E-01            NaN
         13   -1    0    0    0    0  0.00000000000E+00  0.00000000000E+00  0.74505805969E-08  0.10566000000E+00  0.10566000000E+00 0. -1.
     999900   -1    0    0    0    0 -0.00000000000E+00 -0.00000000000E+00 -0.74505805969E-08  0.93827000000E+00  0.93827000000E+00 0. -1.
     999902    2    1    2    0    0  0.89925254654E-02 -0.19237122259E-01 -0.12834630216E-01  0.10191175007E+01  0.10188154004E+01 0.  0.
     999903    2    3    3    0    0  0.70760827567E-01 -0.10616590357E+00  0.26460817897E-01  0.13180917303E+00  0.19879371525E-01 0.  0.
         14    1    1    2    0    0 -0.89925254654E-02  0.19237122259E-01  0.12834630216E-01  0.24812499266E-01  0.00000000000E+00 0. -1.
     999901    1    3    3    0    0 -0.61768302102E-01  0.86928781314E-01 -0.39295448112E-01  0.88730832770E+00  0.88000000000E+00 0. -1.
        -11    1    4    4    0    0  0.44950545416E-01 -0.49912302800E-01  0.11767346862E-01  0.68194729101E-01  0.51100000000E-03 0. -1.
         11    1    4    4    0    0  0.25810282152E-01 -0.56253600773E-01  0.14693471035E-01  0.63614443932E-01  0.51100000000E-03 0.  1.
</event>
<event>
 8    1  0.1078274E+005  0.1043930E+01  0.7957747E-01            NaN
         13   -1    0    0    0    0  0.00000000000E+00  0.00000000000E+00  0.74505805969E-08  0.10566000000E+00  0.10566000000E+00 0. -1.
     999900   -1    0    0    0    0 -0.00000000000E+00 -0.00000000000E+00 -0.74505805969E-08  0.93827000000E+00  0.93827000000E+00 0.  1.
     999902    2    1    2    0    0  0.10316541735E-01 -0.23167981765E-01  0.24115225879E-02  0.10184544852E+01  0.10181358144E+01 0.  0.
     999903    2    3    3    0    0  0.41046096434E-01 -0.10541987896E+00 -0.64058083770E-01  0.13159040956E+00  0.20358410509E-01 0.  0.
         14    1    1    2    0    0 -0.10316541735E-01  0.23167981765E-01 -0.24115225879E-02  0.25475514787E-01  0.00000000000E+00 0.  1.
     999901    1    3    3    0    0 -0.30729554698E-01  0.82251897194E-01  0.66469606358E-01  0.88686407566E+00  0.88000000000E+00 0. -1.
        -11    1    4    4    0    0  0.22876196186E-02 -0.30069790283E-01 -0.15129740301E-01  0.33743083050E-01  0.51100000000E-03 0.  1.
         11    1    4    4    0    0  0.38758476815E-01 -0.75350088676E-01 -0.48928343469E-01  0.97847326505E-01  0.51100000000E-03 0. -1.
</event>
<event>
 8    1  0.1078274E+005  0.1043930E+01  0.7957747E-01            NaN
         13   -1    0    0    0    0  0.00000000000E+00  0.00000000000E+00  0.74505805969E-08  0.10566000000E+00  0.10566000000E+00 0.  1.
     999900   -1    0    0    0    0 -0.00000000000E+00 -0.00000000000E+00 -0.74505805969E-08  0.93827000000E+00  0.93827000000E+00 0. -1.
     999902    2    1    2    0    0 -0.78459307691E-02  0.12631273558E-02 -0.28191910291E-01  0.10146394226E+01  0.10142165547E+01 0.  0.
     999903    2    3    3    0    0  0.67668297878E-01  0.85996893865E-01  0.53968306272E-01  0.12355440356E+00  0.19458886546E-01 0.  0.
         14    1    1    2    0    0  0.78459307691E-02 -0.12631273558E-02  0.28191910291E-01  0.29290577430E-01  0.00000000000E+00 0.  1.
     999901    1    3    3    0    0 -0.75514228647E-01 -0.84733766509E-01 -0.82160216562E-01  0.89108501901E+00  0.88000000000E+00 0. -1.
        -11    1    4    4    0    0  0.40920019439E-01  0.63256223399E-01  0.43109359768E-01  0.86801358344E-01  0.51100000000E-03 0.  1.
         11    1    4    4    0    0  0.26748278439E-01  0.22740670465E-01  0.10858946503E-01  0.36753045218E-01  0.51100000000E-03 0. -1.
</event>
<event>
 8    1  0.1078274E+005  0.1043930E+01  0.7957747E-01            NaN
         13   -1    0    0    0    0  0.00000000000E+00  0.00000000000E+00  0.74505805969E-08  0.10566000000E+00  0.10566000000E+00 0. -1.
     999900   -1    0    0    0    0 -0.00000000000E+00 -0.00000000000E+00 -0.74505805969E-08  0.93827000000E+00  0.93827000000E+00 0.  1.
     999902    2    1    2    0    0 -0.14801501353E-01 -0.46537077274E-02 -0.16753202831E-01  0.10210955689E+01  0.10208402175E+01 0.  0.
     999903    2    3    3    0    0 -0.54431698663E-01 -0.98910581010E-01  0.64387606359E-01  0.13146713995E+00  0.19792225234E-01 0.  0.
         14    1    1    2    0    0  0.14801501353E-01  0.46537077274E-02  0.16753202831E-01  0.22834431085E-01  0.00000000000E+00 0. -1.
     999901    1    3    3    0    0  0.39630197310E-01  0.94256873283E-01 -0.81140809190E-01  0.88962842896E+00  0.88000000000E+00 0.  1.
        -11    1    4    4    0    0 -0.39125247968E-01 -0.84917077162E-01  0.48446156967E-01  0.10530425570E+00  0.51100000000E-03 0. -1.
         11    1    4    4    0    0 -0.15306450695E-01 -0.13993503849E-01  0.15941449392E-01  0.26162884256E-01  0.51100000000E-03 0.  1.
</event>
<event>
 8    1  0.1078274E+005  0.1043930E+01  0.7957747E-01            NaN
         13   -1    0    0    0    0  0.00000000000E+00  0.00000000000E+00  0.74505805969E-08  0.10566000000E+00  0.10566000000E+00 0. -1.
     999900   -1    0    0    0    0 -0.00000000000E+00 -0.00000000000E+00 -0.74505805969E-08  0.93827000000E+00  0.93827000000E+00 0. -1.
     999902    2    1    2    0    0 -0.14008538493E-01 -0.15089060314E-02  0.22552305682E-01  0.10173382261E+01  0.10169906311E+01 0.  0.
     999903    2    3    3    0    0 -0.56198728019E-01  0.74919625590E-01 -0.82903510900E-01  0.12675287825E+00  0.20543921132E-01 0.  0.
         14    1    1    2    0    0  0.14008538493E-01  0.15089060314E-02 -0.22552305682E-01  0.26591773910E-01  0.00000000000E+00 0.  1.
     999901    1    3    3    0    0  0.42190189526E-01 -0.76428531621E-01  0.10545581658E+00  0.89058534784E+00  0.88000000000E+00 0.  1.
        -11    1    4    4    0    0 -0.57778989171E-02  0.22048113757E-01 -0.18563287087E-01  0.29400003140E-01  0.51100000000E-03 0. -1.
         11    1    4    4    0    0 -0.50420829102E-01  0.52871511833E-01 -0.64340223813E-01  0.97352875109E-01  0.51100000000E-03 0.  1.
</event>
<event>
 8    1  0.1078274E+005  0.1043930E+01  0.7957747E-01            NaN
         13   -1    0    0    0    0  0.00000000000E+00  0.00000000000E+00  0.74505805969E-08  0.10566000000E+00  0.10566000000E+00 0. -1.
     999900   -1    0    0    0    0 -0.00000000000E+00 -0.00000000000E+00 -0.74505805969E-08  0.93827000000E+00  0.93827000000E+00 0. -1.
     999902    2    1    2    0    0  0.19029300460E-01  0.35120393962E-02  0.13072647661E-01  0.10205774238E+01  0.10203102152E+01 0.  0.
     999903    2    3    3    0    0 -0.52296401571E-01  0.11681202051E+00  0.15157380815E-01  0.13044901310E+00  0.20180115746E-01 0.  0.
         14    1    1    2    0    0 -0.19029300460E-01 -0.35120393962E-02 -0.13072647661E-01  0.23352576166E-01  0.00000000000E+00 0. -1.
     999901    1    3    3    0    0  0.71325702032E-01 -0.11329998111E+00 -0.20847331539E-02  0.89012841074E+00  0.88000000000E+00 0.  1.
        -11    1    4    4    0    0 -0.32087118715E-01  0.89927495299E-01  0.15937341839E-01  0.96802880040E-01  0.51100000000E-03 0. -1.
         11    1    4    4    0    0 -0.20209282856E-01  0.26884525211E-01 -0.77996102450E-03  0.33646133055E-01  0.51100000000E-03 0.  1.
</event>
<event>
 8    1  0.1078274E+005  0.1043930E+01  0.7957747E-01            NaN
         13   -1    0    0    0    0  0.00000000000E+00  0.00000000000E+00  0.74505805969E-08  0.10566000000E+00  0.10566000000E+00 0.  1.
     999900   -1    0    0    0    0 -0.00000000000E+00 -0.00000000000E+00 -0.74505805969E-08  0.93827000000E+00  0.93827000000E+00 0. -1.
     999902    2    1    2    0    0 -0.98838574892E-02 -0.11034840304E-01 -0.17631554869E-01  0.10209011037E+01  0.10206413344E+01 0.  0.
     999903    2    3    3    0    0 -0.32458936229E-01 -0.45963537870E-01  0.11543305698E+00  0.12992644689E+00  0.19744913293E-01 0.  0.
         14    1    1    2    0    0  0.98838574892E-02  0.11034840304E-01  0.17631554869E-01  0.23028896336E-01  0.00000000000E+00 0.  1.
     999901    1    3    3    0    0  0.22575078740E-01  0.34928697567E-01 -0.13306461185E+00  0.89097465678E+00  0.88000000000E+00 0. -1.
        -11    1    4    4    0    0 -0.25561871662E-01 -0.44593039690E-01  0.10838997520E+00  0.11996081158E+00  0.51100000000E-03 0.  1.
         11    1    4    4    0    0 -0.68970645669E-02 -0.13704981802E-02  0.70430817859E-02  0.99656353006E-02  0.51100000000E-03 0. -1.
</event>
<event>
 8    1  0.1078274E+005  0.1043930E+01  0.7957747E-01            NaN
         13   -1    0    0    0    0  0.00000000000E+00  0.00000000000E+00  0.74505805969E-08  0.10566000000E+00  0.10566000000E+00 0. -1.
     999900   -1    0    0    0    0 -0.00000000000E+00 -0.00000000000E+00 -0.74505805969E-08  0.93827000000E+00  0.93827000000E+00 0.  1.
     999902    2    1    2    0    0  0.58325565337E-02  0.79072972062E-02  0.20606301050E-01  0.10211009898E+01  0.10208457609E+01 0.  0.
     999903    2    3    3    0    0 -0.43413192591E-01 -0.54682322899E-01 -0.10600615940E+00  0.12847939050E+00  0.19869228049E-01 0.  0.
         14    1    1    2    0    0 -0.58325565337E-02 -0.79072972062E-02 -0.20606301050E-01  0.22829010224E-01  0.00000000000E+00 0.  1.
     999901    1    3    3    0    0  0.49245749125E-01  0.62589620105E-01  0.12661246045E+00  0.89262159928E+00  0.88000000000E+00 0. -1.
        -11    1    4    4    0    0 -0.16635412920E-01 -0.33387684107E-01 -0.44247430435E-01  0.57875475239E-01  0.51100000000E-03 0.  1.
         11    1    4    4    0    0 -0.26777779671E-01 -0.21294638792E-01 -0.61758728969E-01  0.70603915261E-01  0.51100000000E-03 0. -1.
</event>
<event>
 8    1  0.1078274E+005  0.1043930E+01  0.7957747E-01            NaN
         13   -1    0    0    0    0  0.00000000000E+00  0.00000000000E+00  0.74505805969E-08  0.10566000000E+00  0.10566000000E+00 0.  1.
     999900   -1    0    0    0    0 -0.00000000000E+00 -0.00000000000E+00 -0.74505805969E-08  0.93827000000E+00  0.93827000000E+00 0. -1.
     999902    2    1    2    0    0  0.17947110103E-01 -0.13673581761E-01 -0.65130304433E-02  0.10204462787E+01  0.10201760253E+01 0.  0.
     999903    2    3    3    0    0 -0.10291280439E+00  0.16084482473E-01 -0.73567746905E-01  0.12916125343E+00  0.20510000497E-01 0.  0.
         14    1    1    2    0    0 -0.17947110103E-01  0.13673581761E-01  0.65130304433E-02  0.23483721272E-01  0.00000000000E+00 0. -1.
     999901    1    3    3    0    0  0.12085991449E+00 -0.29758064234E-01  0.67054716462E-01  0.89128502530E+00  0.88000000000E+00 0.  1.
        -11    1    4    4    0    0 -0.53469539767E-01 -0.19621357548E-02 -0.38273883323E-01  0.65787483044E-01  0.51100000000E-03 0. -1.
         11    1    4    4    0    0 -0.49443264620E-01  0.18046618228E-01 -0.35293863582E-01  0.63373770389E-01  0.51100000000E-03 0.  1.
</event>
<event>
 8    1  0.1078274E+005  0.1043930E+01  0.7957747E-01            NaN
         13   -1    0    0    0    0  0.00000000000E+00  0.00000000000E+00  0.74505805969E-08  0.10566000000E+00  0.10566000000E+00 0. -1.
     999900   -1    0    0    0    0 -0.00000000000E+00 -0.00000000000E+00 -0.74505805969E-08  0.93827000000E+00  0.93827000000E+00 0.  1.
     999902    2    1    2    0    0  0.22095005555E-01 -0.79878693973E-02  0.58565305319E-02  0.10197164856E+01  0.10194289660E+01 0.  0.
     999903    2    3    3    0    0 -0.53013700369E-01  0.99165368873E-01 -0.57272354354E-01  0.12780371508E+00  0.20234727674E-01 0.  0.
         14    1    1    2    0    0 -0.22095005555E-01  0.79878693973E-02 -0.58565305319E-02  0.24213514364E-01  0.00000000000E+00 0.  1.
     999901    1    3    3    0    0  0.75108705923E-01 -0.10715323827E+00  0.63128884886E-01  0.89191277056E+00  0.88000000000E+00 0. -1.
        -11    1    4    4    0    0 -0.44355754819E-01  0.66112887839E-01 -0.34690844497E-01  0.86845050158E-01  0.51100000000E-03 0.  1.
         11    1    4    4    0    0 -0.86579455493E-02  0.33052481034E-01 -0.22581509857E-01  0.40958664920E-01  0.51100000000E-03 0. -1.
</event>
<event>
 8    1  0.1078274E+005  0.1043930E+01  0.7957747E-01            NaN
         13   -1    0    0    0    0  0.00000000000E+00  0.00000000000E+00  0.74505805969E-08  0.10566000000E+00  0.10566000000E+00 0.  1.
     999900   -1    0    0    0    0 -0.00000000000E+00 -0.00000000000E+00 -0.74505805969E-08  0.93827000000E+00  0.93827000000E+00 0. -1.
     999902    2    1    2    0    0 -0.13369543820E-01  0.17665979297E-01 -0.76322544088E-02  0.10204974834E+01  0.10202284209E+01 0.  0.
     999903    2    3    3    0    0  0.19321184829E-01  0.14849109916E-01  0.12615311942E+00  0.12978139803E+00  0.18297472167E-01 0.  0.
         14    1    1    2    0    0  0.13369543820E-01 -0.17665979297E-01  0.76322544088E-02  0.23432516592E-01  0.00000000000E+00 0.  1.
     999901    1    3    3    0    0 -0.32690728650E-01  0.28168693811E-02 -0.13378537383E+00  0.89071608537E+00  0.88000000000E+00 0. -1.
        -11    1    4    4    0    0  0.15713434665E-01  0.91506343156E-02  0.47921911408E-01  0.51258334458E-01  0.51100000000E-03 0. -1.
         11    1    4    4    0    0  0.36077501644E-02  0.56984756002E-02  0.78231208012E-01  0.78523063576E-01  0.51100000000E-03 0.  1.
</event>
<event>
 8    1  0.1078274E+005  0.1043930E+01  0.7957747E-01            NaN
         13   -1    0    0    0    0  0.00000000000E+00  0.00000000000E+00  0.74505805969E-08  0.10566000000E+00  0.10566000000E+00 0.  1.
     999900   -1    0    0    0    0 -0.00000000000E+00 -0.00000000000E+00 -0.74505805969E-08  0.93827000000E+00  0.93827000000E+00 0.  1.
     999902    2    1    2    0    0  0.11480265180E-01 -0.21422169577E-01  0.11912654220E-02  0.10195963823E+01  0.10193059687E+01 0.  0.
     999903    2    3    3    0    0  0.41010100782E-01  0.70004567681E-01  0.98366341947E-01  0.12904944080E+00  0.19883487663E-01 0.  0.
         14    1    1    2    0    0 -0.11480265180E-01  0.21422169577E-01 -0.11912654220E-02  0.24333617719E-01  0.00000000000E+00 0.  1.
     999901    1    3    3    0    0 -0.29529835602E-01 -0.91426737258E-01 -0.97175076525E-01  0.89054694148E+00  0.88000000000E+00 0.  1.
        -11    1    4    4    0    0  0.42366124304E-01  0.61051541434E-01  0.89947464124E-01  0.11667470430E+00  0.51100000000E-03 0. -1.
         11    1    4    4    0    0 -0.13560235226E-02  0.89530262470E-02  0.84188778226E-02  0.12374736505E-01  0.51100000000E-03 0.  1.
</event>
<event>
 8    1  0.1078274E+005  0.1043930E+01  0.7957747E-01            NaN
         13   -1    0    0    0    0  0.00000000000E+00  0.00000000000E+00  0.74505805969E-08  0.10566000000E+00  0.10566000000E+00 0.  1.
     999900   -1    0    0    0    0 -0.00000000000E+00 -0.00000000000E+00 -0.74505805969E-08  0.93827000000E+00  0.93827000000E+00 0. -1.
     999902    2    1    2    0    0  0.17153548418E-01 -0.12236065595E-01  0.10891435613E-01  0.10202110436E+01  0.10199352845E+01 0.  0.
     999903    2    3    3    0    0  0.31467076722E-01 -0.10676056466E+00  0.70104386946E-01  0.13305495154E+00  0.20024983817E-01 0.  0.
         14    1    1    2    0    0 -0.17153548418E-01  0.12236065595E-01 -0.10891435613E-01  0.23718956433E-01  0.00000000000E+00 0. -1.
     999901    1    3    3    0    0 -0.14313528304E-01  0.94524499062E-01 -0.59212951333E-01  0.88715609203E+00  0.88000000000E+00 0. -1.
        -11    1    4    4    0    0  0.17875964279E-01 -0.60312694574E-01  0.27811862506E-01  0.68781771152E-01  0.51100000000E-03 0. -1.
         11    1    4    4    0    0  0.13591112443E-01 -0.46447870082E-01  0.42292524441E-01  0.64273180388E-01  0.51100000000E-03 0.  1.
</event>
<event>
 8    1  0.1078274E+005  0.1043930E+01  0.7957747E-01            NaN
         13   -1    0    0    0    0  0.00000000000E+00  0.00000000000E+00  0.74505805969E-08  0.10566000000E+00  0.10566000000E+00 0. -1.
     999900   -1    0    0    0    0 -0.00000000000E+00 -0.00000000000E+00 -0.74505805969E-08  0.93827000000E+00  0.93827000000E+00 0.  1.
     999902    2    1    2    0    0  0.17080269073E-01  0.18602855778E-02  0.16022781715E-01  0.10204368991E+01  0.10201664273E+01 0.  0.
     999903    2    3    3    0    0 -0.95882492161E-02 -0.12626078162E+00  0.25332425225E-01  0.13071060011E+00  0.20243757399E-01 0.  0.
         14    1    1    2    0    0 -0.17080269073E-01 -0.18602855778E-02 -0.16022781715E-01  0.23493100858E-01  0.00000000000E+00 0.  1.
     999901    1    3    3    0    0  0.26668518289E-01  0.12812106720E+00 -0.93096435100E-02  0.88972629903E+00  0.88000000000E+00 0.  1.
        -11    1    4    4    0    0  0.40339085156E-02 -0.35919884786E-01  0.13482673079E-01  0.38581785020E-01  0.51100000000E-03 0. -1.
         11    1    4    4    0    0 -0.13622157732E-01 -0.90340896838E-01  0.11849752147E-01  0.92128815089E-01  0.51100000000E-03 0.  1.
</event>
<event>
 8    1  0.1078274E+005  0.1043930E+01  0.7957747E-01            NaN
         13   -1    0    0    0    0  0.00000000000E+00  0.00000000000E+00  0.74505805969E-08  0.10566000000E+00  0.10566000000E+00 0.  1.
     999900   -1    0    0    0    0 -0.00000000000E+00 -0.00000000000E+00 -0.74505805969E-08  0.93827000000E+00  0.93827000000E+00 0.  1.
     999902    2    1    2    0    0  0.17562873756E-01  0.17555656131E-01  0.29576671887E-02  0.10189219335E+01  0.10186149926E+01 0.  0.
     999903    2    3    3    0    0 -0.13600227017E-01  0.10811118654E+00  0.70144097913E-01  0.13118015828E+00  0.20372643976E-01 0.  0.
         14    1    1    2    0    0 -0.17562873756E-01 -0.17555656131E-01 -0.29576671887E-02  0.25008066538E-01  0.00000000000E+00 0.  1.
     999901    1    3    3    0    0  0.31163100773E-01 -0.90555530412E-01 -0.67186430725E-01  0.88774177519E+00  0.88000000000E+00 0.  1.
        -11    1    4    4    0    0  0.29241697285E-02  0.58148333440E-01  0.36677747409E-01  0.68813499595E-01  0.51100000000E-03 0. -1.
         11    1    4    4    0    0 -0.16524396745E-01  0.49962853102E-01  0.33466350504E-01  0.62366658681E-01  0.51100000000E-03 0.  1.
</event>
<event>
 8    1  0.1078274E+005  0.1043930E+01  0.7957747E-01            NaN
         13   -1    0    0    0    0  0.00000000000E+00  0.00000000000E+00  0.74505805969E-08  0.10566000000E+00  0.10566000000E+00 0.  1.
     999900   -1    0    0    0    0 -0.00000000000E+00 -0.00000000000E+00 -0.74505805969E-08  0.93827000000E+00  0.93827000000E+00 0. -1.
     999902    2    1    2    0    0 -0.94326543363E-03  0.13744053155E-01 -0.19432015395E-01  0.10201100090E+01  0.10198318678E+01 0.  0.
     999903    2    3    3    0    0  0.56965704068E-01 -0.98811580530E-01 -0.59178053035E-01  0.13016508551E+00  0.20786717803E-01 0.  0.
         14    1    1    2    0    0  0.94326543363E-03 -0.13744053155E-01  0.19432015395E-01  0.23819990955E-01  0.00000000000E+00 0.  1.
     999901    1    3    3    0    0 -0.57908969502E-01  0.11255563369E+00  0.39746037640E-01  0.88994492354E+00  0.88000000000E+00 0. -1.
        -11    1    4    4    0    0  0.36740158473E-01 -0.58847606020E-01 -0.24712789877E-01  0.73646881016E-01  0.51100000000E-03 0. -1.
         11    1    4    4    0    0  0.20225545595E-01 -0.39963974511E-01 -0.34465263157E-01  0.56518204490E-01  0.51100000000E-03 0.  1.
</event>
<event>
 8    1  0.1078274E+005  0.1043930E+01  0.7957747E-01            NaN
         13   -1    0    0    0    0  0.00000000000E+00  0.00000000000E+00  0.74505805969E-08  0.10566000000E+00  0.10566000000E+00 0. -1.
     999900   -1    0    0    0    0 -0.00000000000E+00 -0.00000000000E+00 -0.74505805969E-08  0.93827000000E+00  0.93827000000E+00 0. -1.
     999902    2    1    2    0    0 -0.19606364355E-01 -0.94834282439E-02 -0.18142682108E-01  0.10155838918E+01  0.10151882286E+01 0.  0.
     999903    2    3    3    0    0 -0.93880685513E-01  0.66939058223E-01 -0.54789904594E-01  0.12839727666E+00  0.13766131606E-01 0.  0.
         14    1    1    2    0    0  0.19606364355E-01  0.94834282439E-02  0.18142682108E-01  0.28346108173E-01  0.00000000000E+00 0. -1.
     999901    1    3    3    0    0  0.74274321158E-01 -0.76422486467E-01  0.36647222486E-01  0.88718661517E+00  0.88000000000E+00 0.  1.
        -11    1    4    4    0    0 -0.16612819605E-01  0.10309385419E-01 -0.15067030718E-01  0.24688980105E-01  0.51100000000E-03 0. -1.
         11    1    4    4    0    0 -0.77267865908E-01  0.56629672804E-01 -0.39722873875E-01  0.10370829655E+00  0.51100000000E-03 0.  1.
</event>
<event>
 8    1  0.1078274E+005  0.1043930E+01  0.7957747E-01            NaN
         13   -1    0    0    0    0  0.00000000000E+00  0.00000000000E+00  0.74505805969E-08  0.10566000000E+00  0.10566000000E+00 0. -1.
     999900   -1    0    0    0    0 -0.00000000000E+00 -0.00000000000E+00 -0.74505805969E-08  0.93827000000E+00  0.93827000000E+00 0. -1.
     999902    2    1    2    0    0 -0.58116164963E-02 -0.18801268058E-01  0.13900819391E-01  0.10198365290E+01  0.10195518871E+01 0.  0.
     999903    2    3    3    0    0 -0.37522299430E-01 -0.95688530120E-01  0.82338485632E-01  0.13326959261E+00  0.20419117178E-01 0.  0.
         14    1    1    2    0    0  0.58116164963E-02  0.18801268058E-01 -0.13900819391E-01  0.24093471037E-01  0.00000000000E+00 0.  1.
     999901    1    3    3    0    0  0.31710682934E-01  0.76887262062E-01 -0.68437666242E-01  0.88656693636E+00  0.88000000000E+00 0. -1.
        -11    1    4    4    0    0 -0.78384582568E-02 -0.31415651537E-01  0.37134326924E-01  0.49270720986E-01  0.51100000000E-03 0.  1.
         11    1    4    4    0    0 -0.29683841173E-01 -0.64272878582E-01  0.45204158709E-01  0.83998871621E-01  0.51100000000E-03 0. -1.
</event>
<event>
 8    1  0.1304378E+005  0.1043930E+01  0.7957747E-01            NaN
         13   -1    0    0    0    0  0.00000000000E+00  0.00000000000E+00  0.74505805969E-08  0.10566000000E+00  0.10566000000E+00 0.  1.
     999900   -1    0    0    0    0 -0.00000000000E+00 -0.00000000000E+00 -0.74505805969E-08  0.93827000000E+00  0.93827000000E+00 0. -1.
     999902    2    1    2    0    0  0.12388323394E-01 -0.80408727381E-02 -0.18143278307E-01  0.10205354549E+01  0.10202672738E+01 0.  0.
     999903    2    3    3    0    0 -0.33381586993E-01 -0.97660742626E-02  0.12165487885E+00  0.12832394091E+00  0.21387325843E-01 0.  0.
         14    1    1    2    0    0 -0.12388323394E-01  0.80408727381E-02  0.18143278307E-01  0.23394545061E-01  0.00000000000E+00 0.  1.
     999901    1    3    3    0    0  0.45769910386E-01  0.17252015245E-02 -0.13979815716E+00  0.89221151403E+00  0.88000000000E+00 0. -1.
        -11    1    4    4    0    0 -0.24617179474E-01  0.11067297073E-02  0.55775563166E-01  0.60978725334E-01  0.51100000000E-03 0. -1.
         11    1    4    4    0    0 -0.87644075187E-02 -0.10872803970E-01  0.65879315684E-01  0.67345215578E-01  0.51100000000E-03 0.  1.
</event>
<event>
 8    1  0.1078274E+005  0.1043930E+01  0.7957747E-01            NaN
         13   -1    0    0    0    0  0.00000000000E+00  0.00000000000E+00  0.74505805969E-08  0.10566000000E+00  0.10566000000E+00 0.  1.
     999900   -1    0    0    0    0 -0.00000000000E+00 -0.00000000000E+00 -0.74505805969E-08  0.93827000000E+00  0.93827000000E+00 0. -1.
     999902    2    1    2    0    0  0.12860915202E-01  0.28807104393E-02  0.19900709355E-01  0.10200607758E+01  0.10197814699E+01 0.  0.
     999903    2    3    3    0    0 -0.21746522943E-01 -0.93158223208E-01  0.87981979437E-01  0.13154729197E+00  0.20309985450E-01 0.  0.
         14    1    1    2    0    0 -0.12860915202E-01 -0.28807104393E-02 -0.19900709355E-01  0.23869224229E-01  0.00000000000E+00 0. -1.
     999901    1    3    3    0    0  0.34607438145E-01  0.96038933647E-01 -0.68081270082E-01  0.88851348380E+00  0.88000000000E+00 0. -1.
        -11    1    4    4    0    0 -0.23471740748E-01 -0.65266695609E-01  0.56601829262E-01  0.89524814249E-01  0.51100000000E-03 0.  1.
         11    1    4    4    0    0  0.17252178047E-02 -0.27891527599E-01  0.31380150175E-01  0.42022477726E-01  0.51100000000E-03 0. -1.
</event>
<event>
 8    1  0.1078274E+005  0.1043930E+01  0.7957747E-01            NaN
         13   -1    0    0    0    0  0.00000000000E+00  0.00000000000E+00  0.74505805969E-08  0.10566000000E+00  0.10566000000E+00 0. -1.
     999900   -1    0    0    0    0 -0.00000000000E+00 -0.00000000000E+00 -0.74505805969E-08  0.93827000000E+00  0.93827000000E+00 0. -1.
     999902    2    1    2    0    0  0.59649648113E-02  0.73510614999E-02 -0.21625791544E-01  0.10203229297E+01  0.10200497963E+01 0.  0.
     999903    2    3    3    0    0 -0.95680249232E-01  0.72955958842E-01  0.44084320390E-01  0.12961895475E+00  0.19502925519E-01 0.  0.
         14    1    1    2    0    0 -0.59649648113E-02 -0.73510614999E-02  0.21625791544E-01  0.23607070345E-01  0.00000000000E+00 0. -1.
     999901    1    3    3    0    0  0.10164521404E+00 -0.65604897342E-01 -0.65710111934E-01  0.89070397490E+00  0.88000000000E+00 0.  1.
        -11    1    4    4    0    0 -0.77131729203E-01  0.57990286098E-01  0.43292728882E-01  0.10576718975E+00  0.51100000000E-03 0.  1.
         11    1    4    4    0    0 -0.18548520029E-01  0.14965672744E-01  0.79159150793E-03  0.23851765009E-01  0.51100000000E-03 0. -1.
</event>
<event>
 8    1  0.1078274E+005  0.1043930E+01  0.7957747E-01            NaN
         13   -1    0    0    0    0  0.00000000000E+00  0.00000000000E+00  0.74505805969E-08  0.10566000000E+00  0.10566000000E+00 0.  1.
     999900   -1    0    0    0    0 -0.00000000000E+00 -0.00000000000E+00 -0.74505805969E-08  0.93827000000E+00  0.93827000000E+00 0. -1.
     999902    2    1    2    0    0  0.20012254303E-01  0.11126245598E-01  0.51485135642E-02  0.10204610662E+01  0.10201911569E+01 0.  0.
     999903    2    3    3    0    0 -0.10020800695E+00 -0.62077045855E-01 -0.42130476150E-01  0.12802230862E+00  0.26824060183E-01 0.  0.
         14    1    1    2    0    0 -0.20012254303E-01 -0.11126245598E-01 -0.51485135642E-02  0.23468933834E-01  0.00000000000E+00 0. -1.
     999901    1    3    3    0    0  0.12022026126E+00  0.73203291453E-01  0.47278989714E-01  0.89243875754E+00  0.88000000000E+00 0. -1.
        -11    1    4    4    0    0 -0.87553717556E-01 -0.50368752655E-01 -0.25759549054E-01  0.10424241071E+00  0.51100000000E-03 0. -1.
         11    1    4    4    0    0 -0.12654289398E-01 -0.11708293200E-01 -0.16370927096E-01  0.23779897914E-01  0.51100000000E-03 0.  1.
</event>
<event>
 8    1  0.1164380E+005  0.1043930E+01  0.7957747E-01            NaN
         13   -1    0    0    0    0  0.00000000000E+00  0.00000000000E+00  0.74505805969E-08  0.10566000000E+00  0.10566000000E+00 0.  1.
     999900   -1    0    0    0    0 -0.00000000000E+00 -0.00000000000E+00 -0.74505805969E-08  0.93827000000E+00  0.93827000000E+00 0.  1.
     999902    2    1    2    0    0  0.24349961276E-02  0.10418358372E-01 -0.20870574223E-01  0.10204768069E+01  0.10202072638E+01 0.  0.
     999903    2    3    3    0    0 -0.11615859696E+00  0.43927995677E-01 -0.39062405359E-01  0.13170333812E+00  0.19935127519E-01 0.  0.
         14    1    1    2    0    0 -0.24349961276E-02 -0.10418358372E-01  0.20870574223E-01  0.23453193081E-01  0.00000000000E+00 0.  1.
     999901    1    3    3    0    0  0.11859359309E+00 -0.33509637305E-01  0.18191831136E-01  0.88877346879E+00  0.88000000000E+00 0. -1.
        -11    1    4    4    0    0 -0.79386207564E-01  0.20088603164E-01 -0.27382754145E-01  0.86346964475E-01  0.51100000000E-03 0. -1.
         11    1    4    4    0    0 -0.36772389395E-01  0.23839392513E-01 -0.11679651213E-01  0.45356373650E-01  0.51100000000E-03 0.  1.
</event>
<event>
 8    1  0.1078274E+005  0.1043930E+01  0.7957747E-01            NaN
         13   -1    0    0    0    0  0.00000000000E+00  0.00000000000E+00  0.74505805969E-08  0.10566000000E+00  0.10566000000E+00 0. -1.
     999900   -1    0    0    0    0 -0.00000000000E+00 -0.00000000000E+00 -0.74505805969E-08  0.93827000000E+00  0.93827000000E+00 0.  1.
     999902    2    1    2    0    0 -0.11323828204E-01 -0.17227792377E-01  0.10806513158E-01  0.10206532596E+01  0.10203878036E+01 0.  0.
     999903    2    3    3    0    0 -0.10788481377E+00 -0.48675562710E-01  0.58497789918E-01  0.13353013173E+00  0.19996529823E-01 0.  0.
         14    1    1    2    0    0  0.11323828204E-01  0.17227792377E-01 -0.10806513158E-01  0.23276740365E-01  0.00000000000E+00 0.  1.
     999901    1    3    3    0    0  0.96560985570E-01  0.31447770333E-01 -0.47691276760E-01  0.88712312791E+00  0.88000000000E+00 0.  1.
        -11    1    4    4    0    0 -0.39061564253E-01 -0.13459378903E-01  0.30295911233E-01  0.51235378800E-01  0.51100000000E-03 0. -1.
         11    1    4    4    0    0 -0.68823249522E-01 -0.35216183807E-01  0.28201878685E-01  0.82294752925E-01  0.51100000000E-03 0.  1.
</event>
<event>
 8    1  0.1078274E+005  0.1043930E+01  0.7957747E-01            NaN
         13   -1    0    0    0    0  0.00000000000E+00  0.00000000000E+00  0.74505805969E-08  0.10566000000E+00  0.10566000000E+00 0. -1.
     999900   -1    0    0    0    0 -0.00000000000E+00 -0.00000000000E+00 -0.74505805969E-08  0.93827000000E+00  0.93827000000E+00 0.  1.
     999902    2    1    2    0    0  0.21316661372E-01 -0.95048460668E-03  0.10174738636E-01  0.10202904404E+01  0.10200165459E+01 0.  0.
     999903    2    3    3    0    0  0.12420334042E+00  0.39212454415E-02 -0.42240883530E-01  0.13273379434E+00  0.19802070124E-01 0.  0.
         14    1    1    2    0    0 -0.21316661372E-01  0.95048460668E-03 -0.10174738636E-01  0.23639559627E-01  0.00000000000E+00 0.  1.
     999901    1    3    3    0    0 -0.10288667904E+00 -0.48717300481E-02  0.52415622166E-01  0.88755664604E+00  0.88000000000E+00 0.  1.
        -11    1    4    4    0    0  0.50481739742E-01 -0.77815357263E-02 -0.19845439406E-01  0.54800190984E-01  0.51100000000E-03 0.  1.
         11    1    4    4    0    0  0.73721600673E-01  0.11702781168E-01 -0.22395444124E-01  0.77933603352E-01  0.51100000000E-03 0. -1.
</event>
<event>
 8    1  0.1161427E+005  0.1043930E+01  0.7957747E-01            NaN
         13   -1    0    0    0    0  0.00000000000E+00  0.00000000000E+00  0.74505805969E-08  0.10566000000E+00  0.10566000000E+00 0.  1.
     999900   -1    0    0    0    0 -0.00000000000E+00 -0.00000000000E+00 -0.74505805969E-08  0.93827000000E+00  0.93827000000E+00 0.  1.
     999902    2    1    2    0    0  0.14796853652E-01  0.41218678128E-02  0.17439824050E-01  0.10206902897E+01  0.10204256873E+01 0.  0.
     999903    2    3    3    0    0 -0.19266752945E-01  0.10958237263E+00  0.68600189731E-01  0.13226492401E+00  0.20211876004E-01 0.  0.
         14    1    1    2    0    0 -0.14796853652E-01 -0.41218678128E-02 -0.17439824050E-01  0.23239710307E-01  0.00000000000E+00 0. -1.
     999901    1    3    3    0    0  0.34063606598E-01 -0.10546050482E+00 -0.51160365681E-01  0.88842536568E+00  0.88000000000E+00 0.  1.
        -11    1    4    4    0    0 -0.19565630886E-01  0.54657719077E-01  0.32469526540E-01  0.66519256170E-01  0.51100000000E-03 0.  1.
         11    1    4    4    0    0  0.29887794022E-03  0.54924653555E-01  0.36130663191E-01  0.65745667840E-01  0.51100000000E-03 0. -1.
</event>
<event>
 8    1  0.1078274E+005  0.1043930E+01  0.7957747E-01            NaN
         13   -1    0    0    0    0  0.00000000000E+00  0.00000000000E+00  0.74505805969E-08  0.10566000000E+00  0.10566000000E+00 0. -1.
     999900   -1    0    0    0    0 -0.00000000000E+00 -0.00000000000E+00 -0.74505805969E-08  0.93827000000E+00  0.93827000000E+00 0. -1.
     999902    2    1    2    0    0  0.25115395080E-02  0.22310133407E-01 -0.70133464249E-02  0.10204090113E+01  0.10201378894E+01 0.  0.
     999903    2    3    3    0    0 -0.70605438161E-01 -0.31473813727E-01 -0.10323748364E+00  0.13052256346E+00  0.20060725196E-01 0.  0.
         14    1    1    2    0    0 -0.25115395080E-02 -0.22310133407E-01  0.70133464249E-02  0.23520988742E-01  0.00000000000E+00 0. -1.
     999901    1    3    3    0    0  0.73116977669E-01  0.53783947134E-01  0.96224137214E-01  0.88988644780E+00  0.88000000000E+00 0.  1.
        -11    1    4    4    0    0 -0.40444504285E-01 -0.10330259220E-01 -0.66355692138E-01  0.78395224233E-01  0.51100000000E-03 0.  1.
         11    1    4    4    0    0 -0.30160933876E-01 -0.21143554507E-01 -0.36881791500E-01  0.52127339226E-01  0.51100000000E-03 0. -1.
</event>
<event>
 8    1  0.1078274E+005  0.1043930E+01  0.7957747E-01            NaN
         13   -1    0    0    0    0  0.00000000000E+00  0.00000000000E+00  0.74505805969E-08  0.10566000000E+00  0.10566000000E+00 0.  1.
     999900   -1    0    0    0    0 -0.00000000000E+00 -0.00000000000E+00 -0.74505805969E-08  0.93827000000E+00  0.93827000000E+00 0.  1.
     999902    2    1    2    0    0  0.15426563189E-01  0.16721500151E-01  0.73876663644E-02  0.10200100286E+01  0.10197295197E+01 0.  0.
     999903    2    3    3    0    0  0.48708822638E-01 -0.72916757740E-01 -0.92256867126E-01  0.12923971074E+00  0.22409157436E-01 0.  0.
         14    1    1    2    0    0 -0.15426563189E-01 -0.16721500151E-01 -0.73876663644E-02  0.23919971435E-01  0.00000000000E+00 0. -1.
     999901    1    3    3    0    0 -0.33282259449E-01  0.89638257891E-01  0.99644533490E-01  0.89077031783E+00  0.88000000000E+00 0. -1.
        -11    1    4    4    0    0  0.44926241009E-01 -0.73268986579E-01 -0.91080028051E-01  0.12522996509E+00  0.51100000000E-03 0.  1.
         11    1    4    4    0    0  0.37825816298E-02  0.35222883871E-03 -0.11768390747E-02  0.40097456464E-02  0.51100000000E-03 0. -1.
</event>
<event>
 8    1  0.1078274E+005  0.1043930E+01  0.7957747E-01            NaN
         13   -1    0    0    0    0  0.00000000000E+00  0.00000000000E+00  0.74505805969E-08  0.10566000000E+00  0.10566000000E+00 0.  1.
     999900   -1    0    0    0    0 -0.00000000000E+00 -0.00000000000E+00 -0.74505805969E-08  0.93827000000E+00  0.93827000000E+00 0. -1.
     999902    2    1    2    0    0 -0.17015359058E-01  0.15150397198E-01  0.65958448999E-02  0.10202116074E+01  0.10199358615E+01 0.  0.
     999903    2    3    3    0    0  0.10852078965E+00  0.57725357440E-01  0.34241580699E-01  0.12985424171E+00  0.24096878731E-01 0.  0.
         14    1    1    2    0    0  0.17015359058E-01 -0.15150397198E-01 -0.65958448999E-02  0.23718392633E-01  0.00000000000E+00 0. -1.
     999901    1    3    3    0    0 -0.12553614870E+00 -0.42574960242E-01 -0.27645735799E-01  0.89035736566E+00  0.88000000000E+00 0. -1.
        -11    1    4    4    0    0  0.49727032448E-01  0.27449436186E-01  0.34581150984E-02  0.56907547690E-01  0.51100000000E-03 0. -1.
         11    1    4    4    0    0  0.58793757198E-01  0.30275921254E-01  0.30783465601E-01  0.72946694021E-01  0.51100000000E-03 0.  1.
</event>
<event>
 8    1  0.1078274E+005  0.1043930E+01  0.7957747E-01            NaN
         13   -1    0    0    0    0  0.00000000000E+00  0.00000000000E+00  0.74505805969E-08  0.10566000000E+00  0.10566000000E+00 0.  1.
     999900   -1    0    0    0    0 -0.00000000000E+00 -0.00000000000E+00 -0.74505805969E-08  0.93827000000E+00  0.93827000000E+00 0.  1.
     999902    2    1    2    0    0  0.23165225061E-01  0.48412243977E-02  0.68777198257E-02  0.10192851601E+01  0.10189871782E+01 0.  0.
     999903    2    3    3    0    0  0.11076600963E+00  0.61531627620E-01  0.34630225104E-01  0.13268609575E+00  0.18737594006E-01 0.  0.
         14    1    1    2    0    0 -0.23165225061E-01 -0.48412243977E-02 -0.68777198257E-02  0.24644839943E-01  0.00000000000E+00 0.  1.
     999901    1    3    3    0    0 -0.87600784567E-01 -0.56690403222E-01 -0.27752505279E-01  0.88659906430E+00  0.88000000000E+00 0. -1.
        -11    1    4    4    0    0  0.88848835385E-01  0.53093623099E-01  0.21291539619E-01  0.10567231966E+00  0.51100000000E-03 0.  1.
         11    1    4    4    0    0  0.21917174244E-01  0.84380045205E-02  0.13338685485E-01  0.27013776089E-01  0.51100000000E-03 0. -1.
</event>
<event>
 8    1  0.1078274E+005  0.1043930E+01  0.7957747E-01            NaN
         13   -1    0    0    0    0  0.00000000000E+00  0.00000000000E+00  0.74505805969E-08  0.10566000000E+00  0.10566000000E+00 0. -1.
     999900   -1    0    0    0    0 -0.00000000000E+00 -0.00000000000E+00 -0.74505805969E-08  0.93827000000E+00  0.93827000000E+00 0.  1.
     999902    2    1    2    0    0 -0.74213625309E-02 -0.18282338059E-01 -0.13044803633E-01  0.10202765138E+01  0.10200022928E+01 0.  0.
     999903    2    3    3    0    0 -0.64479170389E-01  0.73408723056E-01 -0.84292966750E-01  0.13081648387E+00  0.21476595963E-01 0.  0.
         14    1    1    2    0    0  0.74213625309E-02  0.18282338059E-01  0.13044803633E-01  0.23653486181E-01  0.00000000000E+00 0. -1.
     999901    1    3    3    0    0  0.57057807858E-01 -0.91691061115E-01  0.71248163118E-01  0.88946002995E+00  0.88000000000E+00 0. -1.
        -11    1    4    4    0    0 -0.18412407000E-01  0.21776796003E-01 -0.12615183633E-01  0.31187330037E-01  0.51100000000E-03 0.  1.
         11    1    4    4    0    0 -0.46066763389E-01  0.51631927052E-01 -0.71677783117E-01  0.99629153835E-01  0.51100000000E-03 0. -1.
</event>
<event>
 8    1  0.1078274E+005  0.1043930E+01  0.7957747E-01            NaN
         13   -1    0    0    0    0  0.00000000000E+00  0.00000000000E+00  0.74505805969E-08  0.10566000000E+00  0.10566000000E+00 0. -1.
     999900   -1    0    0    0    0 -0.00000000000E+00 -0.00000000000E+00 -0.74505805969E-08  0.93827000000E+00  0.93827000000E+00 0. -1.
     999902    2    1    2    0    0 -0.26318748653E-02 -0.15670483632E-02 -0.25410828090E-01  0.10183352234E+01  0.10180135238E+01 0.  0.
     999903    2    3    3    0    0  0.83324270387E-02 -0.92586921195E-01 -0.90337602682E-01  0.13119356658E+00  0.20226273460E-01 0.  0.
         14    1    1    2    0    0  0.26318748653E-02  0.15670483632E-02  0.25410828090E-01  0.25594776618E-01  0.00000000000E+00 0. -1.
     999901    1    3    3    0    0 -0.10964301904E-01  0.91019872832E-01  0.64926774592E-01  0.88714165680E+00  0.88000000000E+00 0.  1.
        -11    1    4    4    0    0  0.39200201142E-02 -0.19865293410E-02 -0.39993735502E-02  0.59639723601E-02  0.51100000000E-03 0. -1.
         11    1    4    4    0    0  0.44124069245E-02 -0.90600391854E-01 -0.86338229132E-01  0.12522959422E+00  0.51100000000E-03 0.  1.
</event>
<event>
 8    1  0.1078274E+005  0.1043930E+01  0.7957747E-01            NaN
         13   -1    0    0    0    0  0.00000000000E+00  0.00000000000E+00  0.74505805969E-08  0.10566000000E+00  0.10566000000E+00 0. -1.
     999900   -1    0    0    0    0 -0.00000000000E+00 -0.00000000000E+00 -0.74505805969E-08  0.93827000000E+00  0.93827000000E+00 0. -1.
     999902    2    1    2    0    0  0.17089200586E-01 -0.14799743566E-01 -0.76092609818E-02  0.10200768233E+01  0.10197978973E+01 0.  0.
     999903    2    3    3    0    0  0.27376985450E-01  0.49303631978E-01 -0.11664819267E+00  0.13097358413E+00  0.19155454264E-01 0.  0.
         14    1    1    2    0    0 -0.17089200586E-01  0.14799743566E-01  0.76092609818E-02  0.23853176706E-01  0.00000000000E+00 0. -1.
     999901    1    3    3    0    0 -0.10287784864E-01 -0.64103375544E-01  0.10903893168E+00  0.88910323917E+00  0.88000000000E+00 0.  1.
        -11    1    4    4    0    0  0.22761551502E-01  0.29116615031E-01 -0.58011270186E-01  0.68785420601E-01  0.51100000000E-03 0.  1.
         11    1    4    4    0    0  0.46154339483E-02  0.20187016948E-01 -0.58636922480E-01  0.62188163526E-01  0.51100000000E-03 0. -1.
</event>
<event>
 8    1  0.1078274E+005  0.1043930E+01  0.7957747E-01            NaN
         13   -1    0    0    0    0  0.00000000000E+00  0.00000000000E+00  0.74505805969E-08  0.10566000000E+00  0.10566000000E+00 0.  1.
     999900   -1    0    0    0    0 -0.00000000000E+00 -0.00000000000E+00 -0.74505805969E-08  0.93827000000E+00  0.93827000000E+00 0.  1.
     999902    2    1    2    0    0 -0.68389195735E-02  0.14548329925E-01 -0.18864783855E-01  0.10191448271E+01  0.10188434001E+01 0.  0.
     999903    2    3    3    0    0 -0.10594299878E+00 -0.58171122254E-01 -0.44109378955E-01  0.13024268019E+00  0.20241540885E-01 0.  0.
         14    1    1    2    0    0  0.68389195735E-02 -0.14548329925E-01  0.18864783855E-01  0.24785172874E-01  0.00000000000E+00 0.  1.
     999901    1    3    3    0    0  0.99104079205E-01  0.72719452178E-01  0.25244595100E-01  0.88890214693E+00  0.88000000000E+00 0.  1.
        -11    1    4    4    0    0 -0.70493891611E-01 -0.34161915618E-01 -0.37740023882E-01  0.86953986434E-01  0.51100000000E-03 0.  1.
         11    1    4    4    0    0 -0.35449107168E-01 -0.24009206636E-01 -0.63693550733E-02  0.43288693759E-01  0.51100000000E-03 0. -1.
</event>
<event>
 8    1  0.1078274E+005  0.1043930E+01  0.7957747E-01            NaN
         13   -1    0    0    0    0  0.00000000000E+00  0.00000000000E+00  0.74505805969E-08  0.10566000000E+00  0.10566000000E+00 0. -1.
     999900   -1    0    0    0    0 -0.00000000000E+00 -0.00000000000E+00 -0.74505805969E-08  0.93827000000E+00  0.93827000000E+00 0. -1.
     999902    2    1    2    0    0 -0.22253230447E-01  0.95090431908E-02 -0.24321369414E-02  0.10196083336E+01  0.10193182086E+01 0.  0.
     999903    2    3    3    0    0  0.63856647161E-01 -0.10552061133E+00 -0.25903551382E-01  0.12764553181E+00  0.20251345980E-01 0.  0.
         14    1    1    2    0    0  0.22253230447E-01 -0.95090431908E-02  0.24321369414E-02  0.24321666428E-01  0.00000000000E+00 0. -1.
     999901    1    3    3    0    0 -0.86109877608E-01  0.11502965452E+00  0.23471414441E-01  0.89196280177E+00  0.88000000000E+00 0. -1.
        -11    1    4    4    0    0  0.52006255073E-01 -0.70056397793E-01 -0.13771647550E-01  0.88331584587E-01  0.51100000000E-03 0. -1.
         11    1    4    4    0    0  0.11850392089E-01 -0.35464213535E-01 -0.12131903833E-01  0.39313947218E-01  0.51100000000E-03 0.  1.
</event>
<event>
 8    1  0.1078274E+005  0.1043930E+01  0.7957747E-01            NaN
         13   -1    0    0    0    0  0.00000000000E+00  0.00000000000E+00  0.74505805969E-08  0.10566000000E+00  0.10566000000E+00 0. -1.
     999900   -1    0    0    0    0 -0.00000000000E+00 -0.00000000000E+00 -0.74505805969E-08  0.93827000000E+00  0.93827000000E+00 0. -1.
     999902    2    1    2    0    0 -0.15997252969E-01 -0.59478963025E-02  0.74343258045E-02  0.10253139109E+01  0.10251448957E+01 0.  0.
     999903    2    3    3    0    0  0.32449689398E-01 -0.11706498313E+00  0.57049542358E-01  0.13561970337E+00  0.19515661475E-01 0.  0.
         14    1    1    2    0    0  0.15997252969E-01  0.59478963025E-02 -0.74343258045E-02  0.18616089094E-01  0.00000000000E+00 0.  1.
     999901    1    3    3    0    0 -0.48446942368E-01  0.11111708682E+00 -0.49615216554E-01  0.88969420754E+00  0.88000000000E+00 0.  1.
        -11    1    4    4    0    0  0.16810568537E-01 -0.80484153969E-01  0.46488587903E-01  0.94454984944E-01  0.51100000000E-03 0. -1.
         11    1    4    4    0    0  0.15639120861E-01 -0.36580829156E-01  0.10560954455E-01  0.41164718426E-01  0.51100000000E-03 0.  1.
</event>
<event>
 8    1  0.1078274E+005  0.1043930E+01  0.7957747E-01            NaN
         13   -1    0    0    0    0  0.00000000000E+00  0.00000000000E+00  0.74505805969E-08  0.10566000000E+00  0.10566000000E+00 0. -1.
     999900   -1    0    0    0    0 -0.00000000000E+00 -0.00000000000E+00 -0.74505805969E-08  0.93827000000E+00  0.93827000000E+00 0.  1.
     999902    2    1    2    0    0 -0.10809982464E-01 -0.17841470464E-01 -0.87102450464E-02  0.10213237584E+01  0.10210735416E+01 0.  0.
     999903    2    3    3    0    0 -0.25809696831E-01 -0.10910666233E+00 -0.70890233215E-01  0.13429462835E+00  0.20957524295E-01 0.  0.
         14    1    1    2    0    0  0.10809982464E-01  0.17841470464E-01  0.87102450464E-02  0.22606241571E-01  0.00000000000E+00 0.  1.
     999901    1    3    3    0    0  0.14999714367E-01  0.91265191862E-01  0.62179988168E-01  0.88702913008E+00  0.88000000000E+00 0. -1.
        -11    1    4    4    0    0 -0.53899008865E-02 -0.20813306077E-01 -0.45482156656E-02  0.21981631608E-01  0.51100000000E-03 0. -1.
         11    1    4    4    0    0 -0.20419795945E-01 -0.88293356249E-01 -0.66342017549E-01  0.11231299674E+00  0.51100000000E-03 0.  1.
</event>
<event>
 8    1  0.1078274E+005  0.1043930E+01  0.7957747E-01            NaN
         13   -1    0    0    0    0  0.00000000000E+00  0.00000000000E+00  0.74505805969E-08  0.10566000000E+00  0.10566000000E+00 0.  1.
     999900   -1    0    0    0    0 -0.00000000000E+00 -0.00000000000E+00 -0.74505805969E-08  0.93827000000E+00  0.93827000000E+00 0.  1.
     999902    2    1    2    0    0  0.37696249060E-02  0.26412300064E-01 -0.10308198874E-01  0.10153279261E+01  0.10149249819E+01 0.  0.
     999903    2    3    3    0    0  0.12425781258E+00 -0.93088981444E-02  0.20687170888E-02  0.12631353061E+00  0.20595359982E-01 0.  0.
         14    1    1    2    0    0 -0.37696249060E-02 -0.26412300064E-01  0.10308198874E-01  0.28602073887E-01  0.00000000000E+00 0.  1.
     999901    1    3    3    0    0 -0.12048818767E+00  0.35721198208E-01 -0.12376915963E-01  0.88901439551E+00  0.88000000000E+00 0. -1.
        -11    1    4    4    0    0  0.71999998061E-01  0.39326211997E-02  0.53103457926E-02  0.72304399062E-01  0.51100000000E-03 0. -1.
         11    1    4    4    0    0  0.52257814516E-01 -0.13241519344E-01 -0.32416287038E-02  0.54009131545E-01  0.51100000000E-03 0.  1.
</event>
<event>
 8    1  0.1078274E+005  0.1043930E+01  0.7957747E-01            NaN
         13   -1    0    0    0    0  0.00000000000E+00  0.00000000000E+00  0.74505805969E-08  0.10566000000E+00  0.10566000000E+00 0. -1.
     999900   -1    0    0    0    0 -0.00000000000E+00 -0.00000000000E+00 -0.74505805969E-08  0.93827000000E+00  0.93827000000E+00 0. -1.
     999902    2    1    2    0    0 -0.15794192261E-01 -0.15727216996E-01  0.93468313078E-02  0.10197604920E+01  0.10194740290E+01 0.  0.
     999903    2    3    3    0    0  0.68082803146E-01 -0.10534724841E+00  0.31075334784E-01  0.13097523766E+00  0.21343046081E-01 0.  0.
         14    1    1    2    0    0  0.15794192261E-01  0.15727216996E-01 -0.93468313078E-02  0.24169508045E-01  0.00000000000E+00 0.  1.
     999901    1    3    3    0    0 -0.83876995407E-01  0.89620031416E-01 -0.21728503477E-01  0.88878525430E+00  0.88000000000E+00 0.  1.
        -11    1    4    4    0    0  0.67028653879E-01 -0.92541172842E-01  0.29545400677E-01  0.11802500131E+00  0.51100000000E-03 0.  1.
         11    1    4    4    0    0  0.10541492672E-02 -0.12806075570E-01  0.15299341071E-02  0.12950236352E-01  0.51100000000E-03 0. -1.
</event>
<event>
 8    1  0.1078274E+005  0.1043930E+01  0.7957747E-01            NaN
         13   -1    0    0    0    0  0.00000000000E+00  0.00000000000E+00  0.74505805969E-08  0.10566000000E+00  0.10566000000E+00 0.  1.
     999900   -1    0    0    0    0 -0.00000000000E+00 -0.00000000000E+00 -0.74505805969E-08  0.93827000000E+00  0.93827000000E+00 0.  1.
     999902    2    1    2    0    0  0.19010728595E-01  0.69924032882E-02 -0.12172518560E-01  0.10202979939E+01  0.10200242765E+01 0.  0.
     999903    2    3    3    0    0 -0.38980336762E-01 -0.71454510719E-01  0.97123722446E-01  0.12818670582E+00  0.19328743630E-01 0.  0.
         14    1    1    2    0    0 -0.19010728595E-01 -0.69924032882E-02  0.12172518560E-01  0.23632006127E-01  0.00000000000E+00 0.  1.
     999901    1    3    3    0    0  0.57991065357E-01  0.78446914008E-01 -0.10929624101E+00  0.89211128806E+00  0.88000000000E+00 0.  1.
        -11    1    4    4    0    0 -0.36162722125E-01 -0.48502883334E-01  0.71705487435E-01  0.93820094929E-01  0.51100000000E-03 0. -1.
         11    1    4    4    0    0 -0.28176146370E-02 -0.22951627385E-01  0.25418235011E-01  0.34366610888E-01  0.51100000000E-03 0.  1.
</event>
<event>
 8    1  0.1078274E+005  0.1043930E+01  0.7957747E-01            NaN
         13   -1    0    0    0    0  0.00000000000E+00  0.00000000000E+00  0.74505805969E-08  0.10566000000E+00  0.10566000000E+00 0. -1.
     999900   -1    0    0    0    0 -0.00000000000E+00 -0.00000000000E+00 -0.74505805969E-08  0.93827000000E+00  0.93827000000E+00 0.  1.
     999902    2    1    2    0    0  0.17333091469E-01  0.31391792642E-02 -0.15760607860E-01  0.10202934337E+01  0.10200196094E+01 0.  0.
     999903    2    3    3    0    0  0.12116068098E+00 -0.47469035514E-01  0.13368883888E-01  0.13226759678E+00  0.19564512633E-01 0.  0.
         14    1    1    2    0    0 -0.17333091469E-01 -0.31391792642E-02  0.15760607860E-01  0.23636566300E-01  0.00000000000E+00 0. -1.
     999901    1    3    3    0    0 -0.10382758951E+00  0.50608214778E-01 -0.29129491748E-01  0.88802583692E+00  0.88000000000E+00 0.  1.
        -11    1    4    4    0    0  0.69765760478E-01 -0.23918291947E-01 -0.16443112998E-02  0.73772019800E-01  0.51100000000E-03 0. -1.
         11    1    4    4    0    0  0.51394920499E-01 -0.23550743567E-01  0.15013195188E-01  0.58495576981E-01  0.51100000000E-03 0.  1.
</event>
<event>
 8    1  0.1078274E+005  0.1043930E+01  0.7957747E-01            NaN
         13   -1    0    0    0    0  0.00000000000E+00  0.00000000000E+00  0.74505805969E-08  0.10566000000E+00  0.10566000000E+00 0.  1.
     999900   -1    0    0    0    0 -0.00000000000E+00 -0.00000000000E+00 -0.74505805969E-08  0.93827000000E+00  0.93827000000E+00 0.  1.
     999902    2    1    2    0    0  0.53796872340E-02  0.11832940643E-01 -0.20506656654E-01  0.10196507396E+01  0.10193616376E+01 0.  0.
     999903    2    3    3    0    0  0.10561827735E+00 -0.10548962545E-01 -0.75753168873E-01  0.13195659088E+00  0.20186583693E-01 0.  0.
         14    1    1    2    0    0 -0.53796872340E-02 -0.11832940643E-01  0.20506656654E-01  0.24279260411E-01  0.00000000000E+00 0.  1.
     999901    1    3    3    0    0 -0.10023859012E+00  0.22381903188E-01  0.55246512219E-01  0.88769414871E+00  0.88000000000E+00 0. -1.
        -11    1    4    4    0    0  0.21293293410E-01 -0.63277782454E-02 -0.77096359450E-02  0.23519029086E-01  0.51100000000E-03 0. -1.
         11    1    4    4    0    0  0.84324983941E-01 -0.42211842994E-02 -0.68043532928E-01  0.10843756179E+00  0.51100000000E-03 0.  1.
</event>
<event>
 8    1  0.1215607E+005  0.1043930E+01  0.7957747E-01            NaN
         13   -1    0    0    0    0  0.00000000000E+00  0.00000000000E+00  0.74505805969E-08  0.10566000000E+00  0.10566000000E+00 0. -1.
     999900   -1    0    0    0    0 -0.00000000000E+00 -0.00000000000E+00 -0.74505805969E-08  0.93827000000E+00  0.93827000000E+00 0.  1.
     999902    2    1    2    0    0  0.61652749664E-02 -0.26244055001E-01  0.14658969172E-01  0.10132437422E+01  0.10127789664E+01 0.  0.
     999903    2    3    3    0    0  0.28685629286E-01  0.11323829260E+00 -0.24858987783E-01  0.12109792424E+00  0.20024029152E-01 0.  0.
         14    1    1    2    0    0 -0.61652749664E-02  0.26244055001E-01 -0.14658969172E-01  0.30686257763E-01  0.00000000000E+00 0. -1.
     999901    1    3    3    0    0 -0.22520354320E-01 -0.13948234760E+00  0.39517956955E-01  0.89214581800E+00  0.88000000000E+00 0. -1.
        -11    1    4    4    0    0  0.15722873777E-01  0.93522548197E-01 -0.21690658275E-01  0.97285258690E-01  0.51100000000E-03 0.  1.
         11    1    4    4    0    0  0.12962755509E-01  0.19715744400E-01 -0.31683295081E-02  0.23812665549E-01  0.51100000000E-03 0. -1.
</event>
<event>
 8    1  0.1078274E+005  0.1043930E+01  0.7957747E-01            NaN
         13   -1    0    0    0    0  0.00000000000E+00  0.00000000000E+00  0.74505805969E-08  0.10566000000E+00  0.10566000000E+00 0. -1.
     999900   -1    0    0    0    0 -0.00000000000E+00 -0.00000000000E+00 -0.74505805969E-08  0.93827000000E+00  0.93827000000E+00 0.  1.
     999902    2    1    2    0    0 -0.18946318762E-01  0.62347062995E-02  0.13673814475E-01  0.10197472012E+01  0.10194604193E+01 0.  0.
     999903    2    3    3    0    0  0.65654574429E-02 -0.12509480419E+00  0.24863689146E-01  0.12956547570E+00  0.21844774887E-01 0.  0.
         14    1    1    2    0    0  0.18946318762E-01 -0.62347062995E-02 -0.13673814475E-01  0.24182798836E-01  0.00000000000E+00 0.  1.
     999901    1    3    3    0    0 -0.25511776205E-01  0.13132951049E+00 -0.11189874671E-01  0.89018172546E+00  0.88000000000E+00 0. -1.
        -11    1    4    4    0    0  0.75367584684E-02 -0.23028308915E-01 -0.10383306112E-02  0.24257885134E-01  0.51100000000E-03 0. -1.
         11    1    4    4    0    0 -0.97130102549E-03 -0.10206649527E+00  0.25902019757E-01  0.10530759057E+00  0.51100000000E-03 0.  1.
</event>
<event>
 8    1  0.1078274E+005  0.1043930E+01  0.7957747E-01            NaN
         13   -1    0    0    0    0  0.00000000000E+00  0.00000000000E+00  0.74505805969E-08  0.10566000000E+00  0.10566000000E+00 0.  1.
     999900   -1    0    0    0    0 -0.00000000000E+00 -0.00000000000E+00 -0.74505805969E-08  0.93827000000E+00  0.93827000000E+00 0. -1.
     999902    2    1    2    0    0  0.14851613782E-01 -0.11908630621E-01 -0.14057693939E-01  0.10202655821E+01  0.10199911046E+01 0.  0.
     999903    2    3    3    0    0 -0.56219476947E-01 -0.35738641001E-02  0.11358758027E+00  0.12818157020E+00  0.18840765785E-01 0.  0.
         14    1    1    2    0    0 -0.14851613782E-01  0.11908630621E-01  0.14057693939E-01  0.23664417890E-01  0.00000000000E+00 0. -1.
     999901    1    3    3    0    0  0.71071090729E-01 -0.83347665207E-02 -0.12764527421E+00  0.89208401191E+00  0.88000000000E+00 0. -1.
        -11    1    4    4    0    0 -0.37300781358E-02 -0.57376969112E-02  0.13366954110E-01  0.15025685739E-01  0.51100000000E-03 0.  1.
         11    1    4    4    0    0 -0.52489398811E-01  0.21638328110E-02  0.10022062616E+00  0.11315588446E+00  0.51100000000E-03 0. -1.
</event>
<event>
 8    1  0.1078274E+005  0.1043930E+01  0.7957747E-01            NaN
         13   -1    0    0    0    0  0.00000000000E+00  0.00000000000E+00  0.74505805969E-08  0.10566000000E+00  0.10566000000E+00 0.  1.
     999900   -1    0    0    0    0 -0.00000000000E+00 -0.00000000000E+00 -0.74505805969E-08  0.93827000000E+00  0.93827000000E+00 0.  1.
     999902    2    1    2    0    0 -0.19167684083E-01  0.13031646767E-01 -0.42541001068E-03  0.10207480047E+01  0.10204847301E+01 0.  0.
     999903    2    3    3    0    0 -0.14123096731E-02 -0.57144813147E-01  0.11503405222E+00  0.13025888282E+00  0.21610624549E-01 0.  0.
         14    1    1    2    0    0  0.19167684083E-01 -0.13031646767E-01  0.42541001068E-03  0.23181995260E-01  0.00000000000E+00 0. -1.
     999901    1    3    3    0    0 -0.17755374410E-01  0.70176459914E-01 -0.11545946223E+00  0.89048912192E+00  0.88000000000E+00 0.  1.
        -11    1    4    4    0    0  0.10272184007E-03 -0.35366169755E-01  0.91776093683E-01  0.98355930210E-01  0.51100000000E-03 0.  1.
         11    1    4    4    0    0 -0.15150315132E-02 -0.21778643392E-01  0.23257958540E-01  0.31902952605E-01  0.51100000000E-03 0. -1.
</event>
<event>
 8    1  0.1078274E+005  0.1043930E+01  0.7957747E-01            NaN
         13   -1    0    0    0    0  0.00000000000E+00  0.00000000000E+00  0.74505805969E-08  0.10566000000E+00  0.10566000000E+00 0. -1.
     999900   -1    0    0    0    0 -0.00000000000E+00 -0.00000000000E+00 -0.74505805969E-08  0.93827000000E+00  0.93827000000E+00 0.  1.
     999902    2    1    2    0    0 -0.18446773230E-01  0.51504208567E-02  0.15627389492E-01  0.10192110684E+01  0.10189112701E+01 0.  0.
     999903    2    3    3    0    0  0.74980175474E-01  0.54880611770E-01  0.88564801380E-01  0.12987336387E+00  0.19734698794E-01 0.  0.
         14    1    1    2    0    0  0.18446773230E-01 -0.51504208567E-02 -0.15627389492E-01  0.24718931610E-01  0.00000000000E+00 0.  1.
     999901    1    3    3    0    0 -0.93426948703E-01 -0.49730190913E-01 -0.72937411888E-01  0.88933770452E+00  0.88000000000E+00 0.  1.
        -11    1    4    4    0    0  0.56671754004E-01  0.31310048311E-01  0.54991410717E-01  0.84948944671E-01  0.51100000000E-03 0.  1.
         11    1    4    4    0    0  0.18308421469E-01  0.23570563459E-01  0.33573390663E-01  0.44924419196E-01  0.51100000000E-03 0. -1.
</event>
<event>
 8    1  0.1078274E+005  0.1043930E+01  0.7957747E-01            NaN
         13   -1    0    0    0    0  0.00000000000E+00  0.00000000000E+00  0.74505805969E-08  0.10566000000E+00  0.10566000000E+00 0. -1.
     999900   -1    0    0    0    0 -0.00000000000E+00 -0.00000000000E+00 -0.74505805969E-08  0.93827000000E+00  0.93827000000E+00 0.  1.
     999902    2    1    2    0    0  0.15273853407E-02 -0.22712796722E-01 -0.62980042154E-02  0.10203107515E+01  0.10200373330E+01 0.  0.
     999903    2    3    3    0    0  0.86608283598E-01  0.17939918717E-01  0.92870454383E-01  0.12973465389E+00  0.19578652938E-01 0.  0.
         14    1    1    2    0    0 -0.15273853407E-02  0.22712796722E-01  0.62980042154E-02  0.23619248464E-01  0.00000000000E+00 0. -1.
     999901    1    3    3    0    0 -0.85080898258E-01 -0.40652715438E-01 -0.99168458598E-01  0.89057609765E+00  0.88000000000E+00 0.  1.
        -11    1    4    4    0    0  0.49054611628E-01  0.12823172807E-01  0.39507011066E-01  0.64279496943E-01  0.51100000000E-03 0.  1.
         11    1    4    4    0    0  0.37553671970E-01  0.51167459092E-02  0.53363443317E-01  0.65455156946E-01  0.51100000000E-03 0. -1.
</event>
<event>
 8    1  0.1078274E+005  0.1043930E+01  0.7957747E-01            NaN
         13   -1    0    0    0    0  0.00000000000E+00  0.00000000000E+00  0.74505805969E-08  0.10566000000E+00  0.10566000000E+00 0. -1.
     999900   -1    0    0    0    0 -0.00000000000E+00 -0.00000000000E+00 -0.74505805969E-08  0.93827000000E+00  0.93827000000E+00 0.  1.
     999902    2    1    2    0    0  0.29974906458E-02 -0.22126918556E-01 -0.16538383175E-02  0.10215398089E+01  0.10212944045E+01 0.  0.
     999903    2    3    3    0    0  0.45883919436E-01 -0.39499732368E-01 -0.11658316650E+00  0.13286112070E+00  0.19871581778E-01 0.  0.
         14    1    1    2    0    0 -0.29974906458E-02  0.22126918556E-01  0.16538383175E-02  0.22390191069E-01  0.00000000000E+00 0.  1.
     999901    1    3    3    0    0 -0.42886428791E-01  0.17372813813E-01  0.11492932819E+00  0.88867868823E+00  0.88000000000E+00 0. -1.
        -11    1    4    4    0    0  0.24676905789E-01 -0.20558713350E-01 -0.40868674951E-01  0.51981920772E-01  0.51100000000E-03 0. -1.
         11    1    4    4    0    0  0.21207013647E-01 -0.18941019018E-01 -0.75714491553E-01  0.80879199930E-01  0.51100000000E-03 0.  1.
</event>
<event>
 8    1  0.1078274E+005  0.1043930E+01  0.7957747E-01            NaN
         13   -1    0    0    0    0  0.00000000000E+00  0.00000000000E+00  0.74505805969E-08  0.10566000000E+00  0.10566000000E+00 0.  1.
     999900   -1    0    0    0    0 -0.00000000000E+00 -0.00000000000E+00 -0.74505805969E-08  0.93827000000E+00  0.93827000000E+00 0.  1.
     999902    2    1    2    0    0 -0.20878995871E-01  0.10168035376E-01 -0.59510294376E-02  0.10199563444E+01  0.10196745600E+01 0.  0.
     999903    2    3    3    0    0 -0.53716642975E-01  0.98118478966E-01 -0.68569830524E-01  0.13275022074E+00  0.20201133650E-01 0.  0.
         14    1    1    2    0    0  0.20878995871E-01 -0.10168035376E-01  0.59510294376E-02  0.23973655611E-01  0.00000000000E+00 0.  1.
     999901    1    3    3    0    0  0.32837647104E-01 -0.87950443590E-01  0.62618801087E-01  0.88720612365E+00  0.88000000000E+00 0. -1.
        -11    1    4    4    0    0 -0.16807058052E-01  0.21243508474E-01 -0.25530690648E-01  0.37226887308E-01  0.51100000000E-03 0. -1.
         11    1    4    4    0    0 -0.36909584923E-01  0.76874970492E-01 -0.43039139876E-01  0.95523333430E-01  0.51100000000E-03 0.  1.
</event>
<event>
 8    1  0.1078274E+005  0.1043930E+01  0.7957747E-01            NaN
         13   -1    0    0    0    0  0.00000000000E+00  0.00000000000E+00  0.74505805969E-08  0.10566000000E+00  0.10566000000E+00 0.  1.
     999900   -1    0    0    0    0 -0.00000000000E+00 -0.00000000000E+00 -0.74505805969E-08  0.93827000000E+00  0.93827000000E+00 0. -1.
     999902    2    1    2    0    0 -0.10620078035E-01 -0.17186116326E-01  0.62806382843E-02  0.10227735573E+01  0.10225547195E+01 0.  0.
     999903    2    3    3    0    0 -0.96333816033E-01  0.76690181523E-01 -0.43925370053E-01  0.13222302672E+00  0.19796530199E-01 0.  0.
         14    1    1    2    0    0  0.10620078035E-01  0.17186116326E-01 -0.62806382843E-02  0.21156442733E-01  0.00000000000E+00 0. -1.
     999901    1    3    3    0    0  0.85713737998E-01 -0.93876297850E-01  0.50206008337E-01  0.89055053054E+00  0.88000000000E+00 0.  1.
        -11    1    4    4    0    0 -0.80549586795E-01  0.53680440592E-01 -0.33530610665E-01  0.10244212321E+00  0.51100000000E-03 0.  1.
         11    1    4    4    0    0 -0.15784229237E-01  0.23009740932E-01 -0.10394759388E-01  0.29780903514E-01  0.51100000000E-03 0. -1.
</event>
<event>
 8    1  0.1078274E+005  0.1043930E+01  0.7957747E-01            NaN
         13   -1    0    0    0    0  0.00000000000E+00  0.00000000000E+00  0.74505805969E-08  0.10566000000E+00  0.10566000000E+00 0. -1.
     999900   -1    0    0    0    0 -0.00000000000E+00 -0.00000000000E+00 -0.74505805969E-08  0.93827000000E+00  0.93827000000E+00 0.  1.
     999902    2    1    2    0    0  0.67633246670E-02  0.10257342592E-01 -0.16167488142E-01  0.10236237618E+01  0.10234223285E+01 0.  0.
     999903    2    3    3    0    0  0.61963626603E-01 -0.10929741188E+00 -0.41015347392E-01  0.13347892595E+00  0.18680195061E-01 0.  0.
         14    1    1    2    0    0 -0.67633246670E-02 -0.10257342592E-01  0.16167488142E-01  0.20306238214E-01  0.00000000000E+00 0.  1.
     999901    1    3    3    0    0 -0.55200301936E-01  0.11955475447E+00  0.24847859251E-01  0.89014483583E+00  0.88000000000E+00 0. -1.
        -11    1    4    4    0    0  0.31957165095E-01 -0.69409581380E-01 -0.17970538029E-01  0.78499374178E-01  0.51100000000E-03 0.  1.
         11    1    4    4    0    0  0.30006461508E-01 -0.39887830496E-01 -0.23044809363E-01  0.54979551776E-01  0.51100000000E-03 0. -1.
</event>
<event>
 8    1  0.1078274E+005  0.1043930E+01  0.7957747E-01            NaN
         13   -1    0    0    0    0  0.00000000000E+00  0.00000000000E+00  0.74505805969E-08  0.10566000000E+00  0.10566000000E+00 0.  1.
     999900   -1    0    0    0    0 -0.00000000000E+00 -0.00000000000E+00 -0.74505805969E-08  0.93827000000E+00  0.93827000000E+00 0.  1.
     999902    2    1    2    0    0  0.23413490651E-01  0.27441111070E-03 -0.21829254550E-02  0.10204133674E+01  0.10201423471E+01 0.  0.
     999903    2    3    3    0    0  0.76908142965E-01 -0.21936912269E-01  0.10337053075E+00  0.13221488009E+00  0.19980423360E-01 0.  0.
         14    1    1    2    0    0 -0.23413490651E-01 -0.27441111070E-03  0.21829254550E-02  0.23516632613E-01  0.00000000000E+00 0. -1.
     999901    1    3    3    0    0 -0.53494652314E-01  0.22211323380E-01 -0.10555345620E+00  0.88819848729E+00  0.88000000000E+00 0.  1.
        -11    1    4    4    0    0  0.27003330486E-01 -0.69498279292E-02  0.52197184763E-01  0.59180124905E-01  0.51100000000E-03 0.  1.
         11    1    4    4    0    0  0.49904812479E-01 -0.14987084340E-01  0.51173345982E-01  0.73034755189E-01  0.51100000000E-03 0. -1.
</event>
<event>
 8    1  0.1078274E+005  0.1043930E+01  0.7957747E-01            NaN
         13   -1    0    0    0    0  0.00000000000E+00  0.00000000000E+00  0.74505805969E-08  0.10566000000E+00  0.10566000000E+00 0. -1.
     999900   -1    0    0    0    0 -0.00000000000E+00 -0.00000000000E+00 -0.74505805969E-08  0.93827000000E+00  0.93827000000E+00 0.  1.
     999902    2    1    2    0    0  0.75114338356E-02  0.21846054282E-01  0.30753508967E-02  0.10206248609E+01  0.10203587492E+01 0.  0.
     999903    2    3    3    0    0  0.82856007056E-01 -0.12897251547E-01 -0.98548019726E-01  0.13089950356E+00  0.19786632801E-01 0.  0.
         14    1    1    2    0    0 -0.75114338356E-02 -0.21846054282E-01 -0.30753508967E-02  0.23305139113E-01  0.00000000000E+00 0.  1.
     999901    1    3    3    0    0 -0.75344573220E-01  0.34743305829E-01  0.10162337062E+00  0.88972535733E+00  0.88000000000E+00 0. -1.
        -11    1    4    4    0    0  0.33393233658E-01 -0.10273459570E-01 -0.28414087204E-01  0.45036357517E-01  0.51100000000E-03 0.  1.
         11    1    4    4    0    0  0.49462773398E-01 -0.26237919768E-02 -0.70133932522E-01  0.85863146044E-01  0.51100000000E-03 0. -1.
</event>
<event>
 7    1  0.1078274E+005  0.1043930E+01  0.7957747E-01            NaN
         13   -1    0    0    0    0  0.00000000000E+00  0.00000000000E+00  0.74505805969E-08  0.10566000000E+00  0.10566000000E+00 0. -1.
     999900   -1    0    0    0    0 -0.00000000000E+00 -0.00000000000E+00 -0.74505805969E-08  0.93827000000E+00  0.93827000000E+00 0.  1.
     999903    2    1    2    0    0  0.22869062043E-01 -0.10783831621E+00 -0.58498383245E-03  0.11159948583E+00  0.17378336781E-01 0.  0.
         14    1    1    2    0    0 -0.94463227484E-02  0.31395693189E-01 -0.35311888144E-01  0.48185599598E-01  0.00000000000E+00 0.  1.
     999901    1    1    2    0    0 -0.13422739295E-01  0.76442623023E-01  0.35896871976E-01  0.88414491457E+00  0.88000000000E+00 0. -1.
        -11    1    3    3    0    0  0.23400608145E-01 -0.71182258690E-01 -0.24524819114E-04  0.74931729836E-01  0.51100000000E-03 0.  1.
         11    1    3    3    0    0 -0.53154610226E-03 -0.36656057523E-01 -0.56045901333E-03  0.36667755995E-01  0.51100000000E-03 0. -1.
</event>
<event>
 8    1  0.1078274E+005  0.1043930E+01  0.7957747E-01            NaN
         13   -1    0    0    0    0  0.00000000000E+00  0.00000000000E+00  0.74505805969E-08  0.10566000000E+00  0.10566000000E+00 0.  1.
     999900   -1    0    0    0    0 -0.00000000000E+00 -0.00000000000E+00 -0.74505805969E-08  0.93827000000E+00  0.93827000000E+00 0. -1.
     999902    2    1    2    0    0  0.17641054957E-02  0.13661682308E-01  0.18995639000E-01  0.10204653898E+01  0.10201955812E+01 0.  0.
     999903    2    3    3    0    0 -0.29656120349E-01  0.12833212612E-01  0.12801542680E+00  0.13318120132E+00  0.17467285667E-01 0.  0.
         14    1    1    2    0    0 -0.17641054957E-02 -0.13661682308E-01 -0.18995639000E-01  0.23464610218E-01  0.00000000000E+00 0. -1.
     999901    1    3    3    0    0  0.31420225845E-01  0.82846969648E-03 -0.10901978780E+00  0.88728418846E+00  0.88000000000E+00 0. -1.
        -11    1    4    4    0    0 -0.19216689573E-01  0.88927826790E-02  0.10971783733E+00  0.11174358009E+00  0.51100000000E-03 0.  1.
         11    1    4    4    0    0 -0.10439430776E-01  0.39404299327E-02  0.18297589469E-01  0.21437621238E-01  0.51100000000E-03 0. -1.
</event>
<event>
 8    1  0.1078274E+005  0.1043930E+01  0.7957747E-01            NaN
         13   -1    0    0    0    0  0.00000000000E+00  0.00000000000E+00  0.74505805969E-08  0.10566000000E+00  0.10566000000E+00 0.  1.
     999900   -1    0    0    0    0 -0.00000000000E+00 -0.00000000000E+00 -0.74505805969E-08  0.93827000000E+00  0.93827000000E+00 0.  1.
     999902    2    1    2    0    0  0.29886722027E-01 -0.63818482396E-04 -0.13916574554E-01  0.10109619659E+01  0.10104242699E+01 0.  0.
     999903    2    3    3    0    0  0.79464411211E-01 -0.32019396523E-01  0.86341644750E-01  0.12330729386E+00  0.20247831906E-01 0.  0.
         14    1    1    2    0    0 -0.29886722027E-01  0.63818482396E-04  0.13916574554E-01  0.32968034118E-01  0.00000000000E+00 0.  1.
     999901    1    3    3    0    0 -0.49577689185E-01  0.31955578040E-01 -0.10025821930E+00  0.88765467203E+00  0.88000000000E+00 0.  1.
        -11    1    4    4    0    0  0.64520629951E-01 -0.17896186659E-01  0.71402065027E-01  0.97886164484E-01  0.51100000000E-03 0. -1.
         11    1    4    4    0    0  0.14943781260E-01 -0.14123209864E-01  0.14939579723E-01  0.25421129371E-01  0.51100000000E-03 0.  1.
</event>
<event>
 8    1  0.1078274E+005  0.1043930E+01  0.7957747E-01            NaN
         13   -1    0    0    0    0  0.00000000000E+00  0.00000000000E+00  0.74505805969E-08  0.10566000000E+00  0.10566000000E+00 0. -1.
     999900   -1    0    0    0    0 -0.00000000000E+00 -0.00000000000E+00 -0.74505805969E-08  0.93827000000E+00  0.93827000000E+00 0.  1.
     999902    2    1    2    0    0 -0.16557929303E-01  0.13903832960E-01  0.82586235571E-02  0.10207850987E+01  0.10205226755E+01 0.  0.
     999903    2    3    3    0    0 -0.74829617911E-01 -0.16454813326E-01  0.10662349830E+00  0.13287018965E+00  0.20388337601E-01 0.  0.
         14    1    1    2    0    0  0.16557929303E-01 -0.13903832960E-01 -0.82586235571E-02  0.23144901314E-01  0.00000000000E+00 0.  1.
     999901    1    3    3    0    0  0.58271688608E-01  0.30358646286E-01 -0.98364874746E-01  0.88791490903E+00  0.88000000000E+00 0.  1.
        -11    1    4    4    0    0 -0.45277553018E-01 -0.14151720664E-01  0.49809228321E-01  0.68786251184E-01  0.51100000000E-03 0. -1.
         11    1    4    4    0    0 -0.29552064892E-01 -0.23030926621E-02  0.56814269982E-01  0.64083938470E-01  0.51100000000E-03 0.  1.
</event>
<event>
 8    1  0.1078274E+005  0.1043930E+01  0.7957747E-01            NaN
         13   -1    0    0    0    0  0.00000000000E+00  0.00000000000E+00  0.74505805969E-08  0.10566000000E+00  0.10566000000E+00 0.  1.
     999900   -1    0    0    0    0 -0.00000000000E+00 -0.00000000000E+00 -0.74505805969E-08  0.93827000000E+00  0.93827000000E+00 0. -1.
     999902    2    1    2    0    0 -0.21177759808E-01 -0.96191863951E-02 -0.49544222573E-02  0.10201482306E+01  0.10198709917E+01 0.  0.
     999903    2    3    3    0    0 -0.38749616635E-01 -0.37628482050E-01 -0.11909548181E+00  0.13216091519E+00  0.19113823972E-01 0.  0.
         14    1    1    2    0    0  0.21177759808E-01  0.96191863951E-02  0.49544222573E-02  0.23781769431E-01  0.00000000000E+00 0.  1.
     999901    1    3    3    0    0  0.17571856827E-01  0.28009295655E-01  0.11414105955E+00  0.88798731538E+00  0.88000000000E+00 0.  1.
        -11    1    4    4    0    0  0.12004382225E-02 -0.61889854966E-02 -0.16193893922E-01  0.17385278680E-01  0.51100000000E-03 0. -1.
         11    1    4    4    0    0 -0.39950054858E-01 -0.31439496553E-01 -0.10290158788E+00  0.11477563651E+00  0.51100000000E-03 0.  1.
</event>
<event>
 8    1  0.1078274E+005  0.1043930E+01  0.7957747E-01            NaN
         13   -1    0    0    0    0  0.00000000000E+00  0.00000000000E+00  0.74505805969E-08  0.10566000000E+00  0.10566000000E+00 0.  1.
     999900   -1    0    0    0    0 -0.00000000000E+00 -0.00000000000E+00 -0.74505805969E-08  0.93827000000E+00  0.93827000000E+00 0. -1.
     999902    2    1    2    0    0 -0.10493550353E-01 -0.29724946584E-02  0.20551154595E-01  0.10206641392E+01  0.10203989341E+01 0.  0.
     999903    2    3    3    0    0  0.12359112352E+00  0.20226193280E-01  0.29128783086E-01  0.13016402432E+00  0.20256419099E-01 0.  0.
         14    1    1    2    0    0  0.10493550353E-01  0.29724946584E-02 -0.20551154595E-01  0.23265860799E-01  0.00000000000E+00 0.  1.
     999901    1    3    3    0    0 -0.13408467388E+00 -0.23198687939E-01 -0.85776284903E-02  0.89050011488E+00  0.88000000000E+00 0.  1.
        -11    1    4    4    0    0  0.79513100597E-01  0.71516209745E-02  0.10373550052E-01  0.80506835181E-01  0.51100000000E-03 0.  1.
         11    1    4    4    0    0  0.44078022927E-01  0.13074572306E-01  0.18755233033E-01  0.49657189140E-01  0.51100000000E-03 0. -1.
</event>
<event>
 8    1  0.1078274E+005  0.1043930E+01  0.7957747E-01            NaN
         13   -1    0    0    0    0  0.00000000000E+00  0.00000000000E+00  0.74505805969E-08  0.10566000000E+00  0.10566000000E+00 0. -1.
     999900   -1    0    0    0    0 -0.00000000000E+00 -0.00000000000E+00 -0.74505805969E-08  0.93827000000E+00  0.93827000000E+00 0.  1.
     999902    2    1    2    0    0  0.49653706761E-02  0.23641145281E-01  0.64714993486E-02  0.10189212223E+01  0.10186142638E+01 0.  0.
     999903    2    3    3    0    0  0.89531216639E-01  0.53405765747E-01 -0.77032096490E-01  0.13043365042E+00  0.14525106029E-01 0.  0.
         14    1    1    2    0    0 -0.49653706761E-02 -0.23641145281E-01 -0.64714993486E-02  0.25008777659E-01  0.00000000000E+00 0.  1.
     999901    1    3    3    0    0 -0.84565845963E-01 -0.29764620465E-01  0.83503595838E-01  0.88848757192E+00  0.88000000000E+00 0. -1.
        -11    1    4    4    0    0  0.13048108556E-01  0.32769219261E-02 -0.13617748885E-01  0.19149296590E-01  0.51100000000E-03 0.  1.
         11    1    4    4    0    0  0.76483108083E-01  0.50128843821E-01 -0.63414347605E-01  0.11128435383E+00  0.51100000000E-03 0. -1.
</event>
<event>
 8    1  0.1078274E+005  0.1043930E+01  0.7957747E-01            NaN
         13   -1    0    0    0    0  0.00000000000E+00  0.00000000000E+00  0.74505805969E-08  0.10566000000E+00  0.10566000000E+00 0.  1.
     999900   -1    0    0    0    0 -0.00000000000E+00 -0.00000000000E+00 -0.74505805969E-08  0.93827000000E+00  0.93827000000E+00 0. -1.
     999902    2    1    2    0    0 -0.18910459160E-01 -0.78339031240E-03 -0.14850585483E-01  0.10198725884E+01  0.10195888080E+01 0.  0.
     999903    2    3    3    0    0  0.11826034574E+00 -0.47924183818E-01  0.27258227747E-02  0.12782605691E+00  0.70593162013E-02 0.  0.
         14    1    1    2    0    0  0.18910459160E-01  0.78339031240E-03  0.14850585483E-01  0.24057411648E-01  0.00000000000E+00 0. -1.
     999901    1    3    3    0    0 -0.13717080490E+00  0.47140793505E-01 -0.17576408258E-01  0.89204653144E+00  0.88000000000E+00 0.  1.
        -11    1    4    4    0    0  0.53610900786E-01 -0.18143944052E-01  0.22161094785E-02  0.56643654994E-01  0.51100000000E-03 0. -1.
         11    1    4    4    0    0  0.64649444958E-01 -0.29780239765E-01  0.50971329622E-03  0.71182401916E-01  0.51100000000E-03 0.  1.
</event>
<event>
 8    1  0.1078274E+005  0.1043930E+01  0.7957747E-01            NaN
         13   -1    0    0    0    0  0.00000000000E+00  0.00000000000E+00  0.74505805969E-08  0.10566000000E+00  0.10566000000E+00 0. -1.
     999900   -1    0    0    0    0 -0.00000000000E+00 -0.00000000000E+00 -0.74505805969E-08  0.93827000000E+00  0.93827000000E+00 0.  1.
     999902    2    1    2    0    0  0.96949830828E-02  0.60101485673E-02  0.21711210776E-01  0.10194046813E+01  0.10191096178E+01 0.  0.
     999903    2    3    3    0    0  0.12395767628E+00  0.33876023907E-01  0.20473414722E-01  0.13157924679E+00  0.19515300967E-01 0.  0.
         14    1    1    2    0    0 -0.96949830828E-02 -0.60101485673E-02 -0.21711210776E-01  0.24525318676E-01  0.00000000000E+00 0.  1.
     999901    1    3    3    0    0 -0.11426269319E+00 -0.27865875340E-01  0.12377960542E-02  0.88782543453E+00  0.88000000000E+00 0. -1.
        -11    1    4    4    0    0  0.17243872251E-01  0.11317525350E-01  0.63969896152E-02  0.21601391330E-01  0.51100000000E-03 0.  1.
         11    1    4    4    0    0  0.10671380403E+00  0.22558498557E-01  0.14076425107E-01  0.10997785546E+00  0.51100000000E-03 0. -1.
</event>
<event>
 8    1  0.1078274E+005  0.1043930E+01  0.7957747E-01            NaN
         13   -1    0    0    0    0  0.00000000000E+00  0.00000000000E+00  0.74505805969E-08  0.10566000000E+00  0.10566000000E+00 0. -1.
     999900   -1    0    0    0    0 -0.00000000000E+00 -0.00000000000E+00 -0.74505805969E-08  0.93827000000E+00  0.93827000000E+00 0.  1.
     999902    2    1    2    0    0  0.10772910175E-01  0.17367587596E-02 -0.20978779783E-01  0.10202829891E+01  0.10200089199E+01 0.  0.
     999903    2    3    3    0    0  0.33249189925E-01 -0.47067957540E-01  0.11336874579E+00  0.12846667328E+00  0.18174497658E-01 0.  0.
         14    1    1    2    0    0 -0.10772910175E-01 -0.17367587596E-02  0.20978779783E-01  0.23647010927E-01  0.00000000000E+00 0. -1.
     999901    1    3    3    0    0 -0.22476279750E-01  0.48804716300E-01 -0.13434752557E+00  0.89181631579E+00  0.88000000000E+00 0.  1.
        -11    1    4    4    0    0  0.15489373516E-01 -0.27994856733E-01  0.79724162113E-01  0.85905970928E-01  0.51100000000E-03 0. -1.
         11    1    4    4    0    0  0.17759816409E-01 -0.19073100807E-01  0.33644583673E-01  0.42560702353E-01  0.51100000000E-03 0.  1.
</event>
<event>
 8    1  0.1078274E+005  0.1043930E+01  0.7957747E-01            NaN
         13   -1    0    0    0    0  0.00000000000E+00  0.00000000000E+00  0.74505805969E-08  0.10566000000E+00  0.10566000000E+00 0.  1.
     999900   -1    0    0    0    0 -0.00000000000E+00 -0.00000000000E+00 -0.74505805969E-08  0.93827000000E+00  0.93827000000E+00 0. -1.
     999902    2    1    2    0    0  0.64950521552E-03  0.11902614908E-01  0.20804188954E-01  0.10199527529E+01  0.10196708831E+01 0.  0.
     999903    2    3    3    0    0 -0.97182446392E-01 -0.23427419345E-01 -0.76758762408E-01  0.12847205682E+00  0.24897588484E-01 0.  0.
         14    1    1    2    0    0 -0.64950521552E-03 -0.11902614908E-01 -0.20804188954E-01  0.23977247063E-01  0.00000000000E+00 0. -1.
     999901    1    3    3    0    0  0.97831951608E-01  0.35330034254E-01  0.97562951363E-01  0.89148069612E+00  0.88000000000E+00 0.  1.
        -11    1    4    4    0    0 -0.16307294322E-01 -0.13098006114E-01 -0.10494650528E-01  0.23406931088E-01  0.51100000000E-03 0.  1.
         11    1    4    4    0    0 -0.80875152070E-01 -0.10329413231E-01 -0.66264111880E-01  0.10506512573E+00  0.51100000000E-03 0. -1.
</event>
<event>
 8    1  0.1078274E+005  0.1043930E+01  0.7957747E-01            NaN
         13   -1    0    0    0    0  0.00000000000E+00  0.00000000000E+00  0.74505805969E-08  0.10566000000E+00  0.10566000000E+00 0.  1.
     999900   -1    0    0    0    0 -0.00000000000E+00 -0.00000000000E+00 -0.74505805969E-08  0.93827000000E+00  0.93827000000E+00 0. -1.
     999902    2    1    2    0    0 -0.95966100913E-02 -0.16421083830E-01 -0.15896332232E-01  0.10191420937E+01  0.10188405994E+01 0.  0.
     999903    2    3    3    0    0 -0.38808914631E-01  0.44136724107E-01 -0.11535713819E+00  0.13099060959E+00  0.19927072012E-01 0.  0.
         14    1    1    2    0    0  0.95966100913E-02  0.16421083830E-01  0.15896332232E-01  0.24787906281E-01  0.00000000000E+00 0.  1.
     999901    1    3    3    0    0  0.29212304540E-01 -0.60557807937E-01  0.99460805960E-01  0.88815148413E+00  0.88000000000E+00 0. -1.
        -11    1    4    4    0    0 -0.29175090310E-01  0.18212675194E-01 -0.64255142358E-01  0.72882589641E-01  0.51100000000E-03 0.  1.
         11    1    4    4    0    0 -0.96338243212E-02  0.25924048914E-01 -0.51101995834E-01  0.58108019949E-01  0.51100000000E-03 0. -1.
</event>
<event>
 8    1  0.1078274E+005  0.1043930E+01  0.7957747E-01            NaN
         13   -1    0    0    0    0  0.00000000000E+00  0.00000000000E+00  0.74505805969E-08  0.10566000000E+00  0.10566000000E+00 0.  1.
     999900   -1    0    0    0    0 -0.00000000000E+00 -0.00000000000E+00 -0.74505805969E-08  0.93827000000E+00  0.93827000000E+00 0.  1.
     999902    2    1    2    0    0 -0.27133270250E-02  0.17750759459E-01 -0.15912464948E-01  0.10199371230E+01  0.10196548812E+01 0.  0.
     999903    2    3    3    0    0 -0.22189645123E-01  0.83474480846E-01  0.95229606847E-01  0.13030152648E+00  0.21200011293E-01 0.  0.
         14    1    1    2    0    0  0.27133270250E-02 -0.17750759459E-01  0.15912464948E-01  0.23992876976E-01  0.00000000000E+00 0.  1.
     999901    1    3    3    0    0  0.19476318098E-01 -0.65723721388E-01 -0.11114207179E+00  0.88963559655E+00  0.88000000000E+00 0. -1.
        -11    1    4    4    0    0 -0.24961407199E-02  0.41170832020E-01  0.34919486797E-01  0.54045349540E-01  0.51100000000E-03 0. -1.
         11    1    4    4    0    0 -0.19693504403E-01  0.42303648827E-01  0.60310120050E-01  0.76256176937E-01  0.51100000000E-03 0.  1.
</event>
<event>
 8    1  0.1078274E+005  0.1043930E+01  0.7957747E-01            NaN
         13   -1    0    0    0    0  0.00000000000E+00  0.00000000000E+00  0.74505805969E-08  0.10566000000E+00  0.10566000000E+00 0.  1.
     999900   -1    0    0    0    0 -0.00000000000E+00 -0.00000000000E+00 -0.74505805969E-08  0.93827000000E+00  0.93827000000E+00 0. -1.
     999902    2    1    2    0    0  0.25454106721E-03  0.15902207017E-01 -0.16540202003E-01  0.10209839053E+01  0.10207260218E+01 0.  0.
     999903    2    3    3    0    0  0.71161248634E-01  0.16972124231E-01  0.10572066384E+00  0.12970582008E+00  0.17168712536E-01 0.  0.
         14    1    1    2    0    0 -0.25454106721E-03 -0.15902207017E-01  0.16540202003E-01  0.22946094689E-01  0.00000000000E+00 0.  1.
     999901    1    3    3    0    0 -0.70906707567E-01 -0.10699172137E-02 -0.12226086585E+00  0.89127808523E+00  0.88000000000E+00 0. -1.
        -11    1    4    4    0    0  0.35031622758E-01 -0.10700818942E-03  0.53388156861E-01  0.63857516847E-01  0.51100000000E-03 0.  1.
         11    1    4    4    0    0  0.36129625876E-01  0.17079132421E-01  0.52332506982E-01  0.65848303230E-01  0.51100000000E-03 0. -1.
</event>
<event>
 8    1  0.1078274E+005  0.1043930E+01  0.7957747E-01            NaN
         13   -1    0    0    0    0  0.00000000000E+00  0.00000000000E+00  0.74505805969E-08  0.10566000000E+00  0.10566000000E+00 0.  1.
     999900   -1    0    0    0    0 -0.00000000000E+00 -0.00000000000E+00 -0.74505805969E-08  0.93827000000E+00  0.93827000000E+00 0.  1.
     999902    2    1    2    0    0 -0.18253048951E-01 -0.71135755577E-02 -0.14585060824E-01  0.10195066351E+01  0.10192140493E+01 0.  0.
     999903    2    3    3    0    0 -0.84552870916E-01 -0.34081841211E-01  0.90927909724E-01  0.13031827447E+00  0.20104925109E-01 0.  0.
         14    1    1    2    0    0  0.18253048951E-01  0.71135755577E-02  0.14585060824E-01  0.24423364889E-01  0.00000000000E+00 0.  1.
     999901    1    3    3    0    0  0.66299821965E-01  0.26968265654E-01 -0.10551297055E+00  0.88918836064E+00  0.88000000000E+00 0.  1.
        -11    1    4    4    0    0 -0.77205294206E-01 -0.31453407622E-01  0.89599656202E-01  0.12238600335E+00  0.51100000000E-03 0. -1.
         11    1    4    4    0    0 -0.73475767099E-02 -0.26284335893E-02  0.13282535221E-02  0.79322711162E-02  0.51100000000E-03 0.  1.
</event>
<event>
 8    1  0.1078274E+005  0.1043930E+01  0.7957747E-01            NaN
         13   -1    0    0    0    0  0.00000000000E+00  0.00000000000E+00  0.74505805969E-08  0.10566000000E+00  0.10566000000E+00 0. -1.
     999900   -1    0    0    0    0 -0.00000000000E+00 -0.00000000000E+00 -0.74505805969E-08  0.93827000000E+00  0.93827000000E+00 0.  1.
     999902    2    1    2    0    0 -0.14086951374E-01  0.17361220569E-01  0.92617087953E-02  0.10197301358E+01  0.10194429442E+01 0.  0.
     999903    2    3    3    0    0  0.81929018959E-01  0.96986784740E-01  0.23462030730E-01  0.13082015936E+00  0.21086646185E-01 0.  0.
         14    1    1    2    0    0  0.14086951374E-01 -0.17361220569E-01 -0.92617087953E-02  0.24199864224E-01  0.00000000000E+00 0. -1.
     999901    1    3    3    0    0 -0.96015970333E-01 -0.79625564171E-01 -0.14200321935E-01  0.88890997642E+00  0.88000000000E+00 0.  1.
        -11    1    4    4    0    0  0.42891993588E-01  0.63474427085E-01  0.20394839146E-01  0.79277591995E-01  0.51100000000E-03 0. -1.
         11    1    4    4    0    0  0.39037025371E-01  0.33512357655E-01  0.30671915842E-02  0.51542567365E-01  0.51100000000E-03 0.  1.
</event>
<event>
 8    1  0.1078274E+005  0.1043930E+01  0.7957747E-01            NaN
         13   -1    0    0    0    0  0.00000000000E+00  0.00000000000E+00  0.74505805969E-08  0.10566000000E+00  0.10566000000E+00 0.  1.
     999900   -1    0    0    0    0 -0.00000000000E+00 -0.00000000000E+00 -0.74505805969E-08  0.93827000000E+00  0.93827000000E+00 0.  1.
     999902    2    1    2    0    0 -0.61681612279E-02  0.12843823027E-01 -0.19738625933E-01  0.10195861433E+01  0.10192954824E+01 0.  0.
     999903    2    3    3    0    0 -0.10185992157E+00  0.61023676493E-01 -0.55145679702E-01  0.13238161747E+00  0.19609027004E-01 0.  0.
         14    1    1    2    0    0  0.61681612279E-02 -0.12843823027E-01  0.19738625933E-01  0.24343856650E-01  0.00000000000E+00 0.  1.
     999901    1    3    3    0    0  0.95691760343E-01 -0.48179853466E-01  0.35407053769E-01  0.88720452588E+00  0.88000000000E+00 0. -1.
        -11    1    4    4    0    0 -0.66991995511E-01  0.39380959721E-01 -0.25630885313E-01  0.81829034297E-01  0.51100000000E-03 0.  1.
         11    1    4    4    0    0 -0.34867926060E-01  0.21642716773E-01 -0.29514794389E-01  0.50552583177E-01  0.51100000000E-03 0. -1.
</event>
<event>
 8    1  0.1078274E+005  0.1043930E+01  0.7957747E-01            NaN
         13   -1    0    0    0    0  0.00000000000E+00  0.00000000000E+00  0.74505805969E-08  0.10566000000E+00  0.10566000000E+00 0. -1.
     999900   -1    0    0    0    0 -0.00000000000E+00 -0.00000000000E+00 -0.74505805969E-08  0.93827000000E+00  0.93827000000E+00 0. -1.
     999902    2    1    2    0    0 -0.17097870020E-01 -0.25040591956E-02  0.16454084960E-01  0.10200690616E+01  0.10197899519E+01 0.  0.
     999903    2    3    3    0    0 -0.15210751363E-01 -0.12393228463E+00  0.36323784799E-01  0.13150663824E+00  0.19595928894E-01 0.  0.
         14    1    1    2    0    0  0.17097870020E-01  0.25040591956E-02 -0.16454084960E-01  0.23860938446E-01  0.00000000000E+00 0.  1.
     999901    1    3    3    0    0 -0.18871186571E-02  0.12142822543E+00 -0.19869699839E-01  0.88856242331E+00  0.88000000000E+00 0. -1.
        -11    1    4    4    0    0 -0.13507448896E-01 -0.52250815616E-01  0.22548761323E-01  0.58491936765E-01  0.51100000000E-03 0. -1.
         11    1    4    4    0    0 -0.17033024662E-02 -0.71681469013E-01  0.13775023477E-01  0.73014701478E-01  0.51100000000E-03 0.  1.
</event>
<event>
 8    1  0.1078274E+005  0.1043930E+01  0.7957747E-01            NaN
         13   -1    0    0    0    0  0.00000000000E+00  0.00000000000E+00  0.74505805969E-08  0.10566000000E+00  0.10566000000E+00 0.  1.
     999900   -1    0    0    0    0 -0.00000000000E+00 -0.00000000000E+00 -0.74505805969E-08  0.93827000000E+00  0.93827000000E+00 0.  1.
     999902    2    1    2    0    0  0.12387000715E-01  0.31593591056E-02  0.19624979708E-01  0.10205086600E+01  0.10202398571E+01 0.  0.
     999903    2    3    3    0    0 -0.69551263008E-01 -0.78074932362E-01  0.76204266878E-01  0.13117514279E+00  0.21604502941E-01 0.  0.
         14    1    1    2    0    0 -0.12387000715E-01 -0.31593591056E-02 -0.19624979708E-01  0.23421339954E-01  0.00000000000E+00 0.  1.
     999901    1    3    3    0    0  0.81938263723E-01  0.81234291468E-01 -0.56579287170E-01  0.88933351725E+00  0.88000000000E+00 0.  1.
        -11    1    4    4    0    0 -0.57849568563E-01 -0.64743828265E-01  0.52148200427E-01  0.10128194217E+00  0.51100000000E-03 0. -1.
         11    1    4    4    0    0 -0.11701694444E-01 -0.13331104097E-01  0.24056066451E-01  0.29893200622E-01  0.51100000000E-03 0.  1.
</event>
<event>
 8    1  0.1078274E+005  0.1043930E+01  0.7957747E-01            NaN
         13   -1    0    0    0    0  0.00000000000E+00  0.00000000000E+00  0.74505805969E-08  0.10566000000E+00  0.10566000000E+00 0. -1.
     999900   -1    0    0    0    0 -0.00000000000E+00 -0.00000000000E+00 -0.74505805969E-08  0.93827000000E+00  0.93827000000E+00 0.  1.
     999902    2    1    2    0    0  0.78798606030E-02  0.11863761488E-01  0.25998951871E-01  0.10142856660E+01  0.10138523688E+01 0.  0.
     999903    2    3    3    0    0  0.85960721551E-01 -0.73282814969E-01 -0.45360687544E-01  0.12387072988E+00  0.22951015833E-01 0.  0.
         14    1    1    2    0    0 -0.78798606030E-02 -0.11863761488E-01 -0.25998951871E-01  0.29644333998E-01  0.00000000000E+00 0.  1.
     999901    1    3    3    0    0 -0.78080860947E-01  0.85146576457E-01  0.71359639415E-01  0.89041493612E+00  0.88000000000E+00 0. -1.
        -11    1    4    4    0    0  0.40516076386E-01 -0.46180534481E-01 -0.16577597662E-01  0.63633890938E-01  0.51100000000E-03 0. -1.
         11    1    4    4    0    0  0.45444645165E-01 -0.27102280488E-01 -0.28783089882E-01  0.60236838944E-01  0.51100000000E-03 0.  1.
</event>
<event>
 8    1  0.1078274E+005  0.1043930E+01  0.7957747E-01            NaN
         13   -1    0    0    0    0  0.00000000000E+00  0.00000000000E+00  0.74505805969E-08  0.10566000000E+00  0.10566000000E+00 0.  1.
     999900   -1    0    0    0    0 -0.00000000000E+00 -0.00000000000E+00 -0.74505805969E-08  0.93827000000E+00  0.93827000000E+00 0. -1.
     999902    2    1    2    0    0  0.89235025782E-02  0.18265512577E-01 -0.20238031602E-01  0.10152448859E+01  0.10148395649E+01 0.  0.
     999903    2    3    3    0    0  0.11175879161E-01 -0.12179560386E+00 -0.29152163752E-03  0.12394243847E+00  0.20064238677E-01 0.  0.
         14    1    1    2    0    0 -0.89235025782E-02 -0.18265512577E-01  0.20238031602E-01  0.28685114103E-01  0.00000000000E+00 0.  1.
     999901    1    3    3    0    0 -0.22523765826E-02  0.14006111644E+00 -0.19946509965E-01  0.89130244743E+00  0.88000000000E+00 0.  1.
        -11    1    4    4    0    0  0.10507672130E-01 -0.58461104730E-01  0.84639073880E-02  0.60000089909E-01  0.51100000000E-03 0.  1.
         11    1    4    4    0    0  0.66820703031E-03 -0.63334499128E-01 -0.87554290255E-02  0.63942348556E-01  0.51100000000E-03 0. -1.
</event>
<event>
 8    1  0.1078274E+005  0.1043930E+01  0.7957747E-01            NaN
         13   -1    0    0    0    0  0.00000000000E+00  0.00000000000E+00  0.74505805969E-08  0.10566000000E+00  0.10566000000E+00 0. -1.
     999900   -1    0    0    0    0 -0.00000000000E+00 -0.00000000000E+00 -0.74505805969E-08  0.93827000000E+00  0.93827000000E+00 0.  1.
     999902    2    1    2    0    0  0.15443652155E-01 -0.53344487403E-02  0.17892334395E-01  0.10196998872E+01  0.10194119686E+01 0.  0.
     999903    2    3    3    0    0  0.37147187400E-01  0.50626755800E-01  0.11482248407E+00  0.13234530546E+00  0.19700129319E-01 0.  0.
         14    1    1    2    0    0 -0.15443652155E-01  0.53344487403E-02 -0.17892334395E-01  0.24230112780E-01  0.00000000000E+00 0.  1.
     999901    1    3    3    0    0 -0.21703535245E-01 -0.55961204540E-01 -0.96930149672E-01  0.88735458176E+00  0.88000000000E+00 0.  1.
        -11    1    4    4    0    0  0.26426147430E-01  0.27047010357E-01  0.51215727180E-01  0.63664698765E-01  0.51100000000E-03 0. -1.
         11    1    4    4    0    0  0.10721039970E-01  0.23579745443E-01  0.63606756887E-01  0.68680606694E-01  0.51100000000E-03 0.  1.
</event>
<event>
 8    1  0.1078274E+005  0.1043930E+01  0.7957747E-01            NaN
         13   -1    0    0    0    0  0.00000000000E+00  0.00000000000E+00  0.74505805969E-08  0.10566000000E+00  0.10566000000E+00 0.  1.
     999900   -1    0    0    0    0 -0.00000000000E+00 -0.00000000000E+00 -0.74505805969E-08  0.93827000000E+00  0.93827000000E+00 0. -1.
     999902    2    1    2    0    0  0.18038955297E-01  0.15666875381E-01  0.14823705564E-02  0.10199914889E+01  0.10197105398E+01 0.  0.
     999903    2    3    3    0    0 -0.53595382289E-02 -0.57970372120E-01 -0.11352355704E+00  0.12915126914E+00  0.20078934802E-01 0.  0.
         14    1    1    2    0    0 -0.18038955297E-01 -0.15666875381E-01 -0.14823705564E-02  0.23938511125E-01  0.00000000000E+00 0.  1.
     999901    1    3    3    0    0  0.23398493526E-01  0.73637247502E-01  0.11500592760E+00  0.89084021974E+00  0.88000000000E+00 0.  1.
        -11    1    4    4    0    0 -0.11526202186E-01 -0.44422902392E-01 -0.76047792702E-01  0.88824408186E-01  0.51100000000E-03 0.  1.
         11    1    4    4    0    0  0.61666639571E-02 -0.13547469728E-01 -0.37475764339E-01  0.40326860951E-01  0.51100000000E-03 0. -1.
</event>
<event>
 8    1  0.1078274E+005  0.1043930E+01  0.7957747E-01            NaN
         13   -1    0    0    0    0  0.00000000000E+00  0.00000000000E+00  0.74505805969E-08  0.10566000000E+00  0.10566000000E+00 0. -1.
     999900   -1    0    0    0    0 -0.00000000000E+00 -0.00000000000E+00 -0.74505805969E-08  0.93827000000E+00  0.93827000000E+00 0. -1.
     999902    2    1    2    0    0 -0.16233995280E-02 -0.36653781673E-03  0.22412466979E-01  0.10214558270E+01  0.10212085576E+01 0.  0.
     999903    2    3    3    0    0  0.10659982073E+00  0.83799218882E-02  0.76239112483E-01  0.13315065774E+00  0.21976135136E-01 0.  0.
         14    1    1    2    0    0  0.16233995280E-02  0.36653781673E-03 -0.22412466979E-01  0.22474173001E-01  0.00000000000E+00 0.  1.
     999901    1    3    3    0    0 -0.10822322025E+00 -0.87464597050E-02 -0.53826645504E-01  0.88830516926E+00  0.88000000000E+00 0. -1.
        -11    1    4    4    0    0  0.13850124847E-01  0.72338702636E-02  0.16970517270E-01  0.23074107018E-01  0.51100000000E-03 0.  1.
         11    1    4    4    0    0  0.92749695880E-01  0.11460516246E-02  0.59268595214E-01  0.11007655073E+00  0.51100000000E-03 0. -1.
</event>
<event>
 8    1  0.1078274E+005  0.1043930E+01  0.7957747E-01            NaN
         13   -1    0    0    0    0  0.00000000000E+00  0.00000000000E+00  0.74505805969E-08  0.10566000000E+00  0.10566000000E+00 0. -1.
     999900   -1    0    0    0    0 -0.00000000000E+00 -0.00000000000E+00 -0.74505805969E-08  0.93827000000E+00  0.93827000000E+00 0.  1.
     999902    2    1    2    0    0 -0.20374748595E-02  0.22806512141E-01 -0.22247900894E-02  0.10209248269E+01  0.10206655986E+01 0.  0.
     999903    2    3    3    0    0 -0.10537128657E+00  0.25344799672E-01  0.72255831103E-01  0.13175010699E+00  0.19791883630E-01 0.  0.
         14    1    1    2    0    0  0.20374748595E-02 -0.22806512141E-01  0.22247900894E-02  0.23005173130E-01  0.00000000000E+00 0. -1.
     999901    1    3    3    0    0  0.10333381171E+00 -0.25382875318E-02 -0.74480621193E-01  0.88917471988E+00  0.88000000000E+00 0. -1.
        -11    1    4    4    0    0 -0.11489273903E-01 -0.18393771291E-02  0.32062195522E-02  0.12080053306E-01  0.51100000000E-03 0.  1.
         11    1    4    4    0    0 -0.93882012671E-01  0.27184176801E-01  0.69049611551E-01  0.11967005368E+00  0.51100000000E-03 0. -1.
</event>
<event>
 8    1  0.1078274E+005  0.1043930E+01  0.7957747E-01            NaN
         13   -1    0    0    0    0  0.00000000000E+00  0.00000000000E+00  0.74505805969E-08  0.10566000000E+00  0.10566000000E+00 0.  1.
     999900   -1    0    0    0    0 -0.00000000000E+00 -0.00000000000E+00 -0.74505805969E-08  0.93827000000E+00  0.93827000000E+00 0.  1.
     999902    2    1    2    0    0 -0.18667632024E-01  0.73772565068E-02  0.11577268470E-01  0.10207580872E+01  0.10204950441E+01 0.  0.
     999903    2    3    3    0    0  0.66729888674E-01  0.35769073200E-01  0.10521561182E+00  0.13122620402E+00  0.20437392466E-01 0.  0.
         14    1    1    2    0    0  0.18667632024E-01 -0.73772565068E-02 -0.11577268470E-01  0.23171912830E-01  0.00000000000E+00 0. -1.
     999901    1    3    3    0    0 -0.85397520699E-01 -0.28391816693E-01 -0.93638343349E-01  0.88953188315E+00  0.88000000000E+00 0.  1.
        -11    1    4    4    0    0  0.22315403971E-01  0.17621122778E-01  0.54097049944E-01  0.61116553862E-01  0.51100000000E-03 0.  1.
         11    1    4    4    0    0  0.44414484704E-01  0.18147950422E-01  0.51118561875E-01  0.70109650157E-01  0.51100000000E-03 0. -1.
</event>
<event>
 8    1  0.1078274E+005  0.1043930E+01  0.7957747E-01            NaN
         13   -1    0    0    0    0  0.00000000000E+00  0.00000000000E+00  0.74505805969E-08  0.10566000000E+00  0.10566000000E+00 0.  1.
     999900   -1    0    0    0    0 -0.00000000000E+00 -0.00000000000E+00 -0.74505805969E-08  0.93827000000E+00  0.93827000000E+00 0.  1.
     999902    2    1    2    0    0  0.60833166403E-02 -0.65760107698E-02 -0.22995582173E-01  0.10192511131E+01  0.10189522973E+01 0.  0.
     999903    2    3    3    0    0 -0.10143501836E+00 -0.77835310624E-01  0.37642290118E-02  0.12944542214E+00  0.19863266682E-01 0.  0.
         14    1    1    2    0    0 -0.60833166403E-02  0.65760107698E-02  0.22995582173E-01  0.24678886897E-01  0.00000000000E+00 0.  1.
     999901    1    3    3    0    0  0.10751833500E+00  0.71259299854E-01 -0.26759811185E-01  0.88980569096E+00  0.88000000000E+00 0.  1.
        -11    1    4    4    0    0 -0.39117111049E-01 -0.18430437603E-01 -0.42104435931E-03  0.43246593004E-01  0.51100000000E-03 0. -1.
         11    1    4    4    0    0 -0.62317907310E-01 -0.59404873021E-01  0.41852733711E-02  0.86198829136E-01  0.51100000000E-03 0.  1.
</event>
<event>
 8    1  0.1078274E+005  0.1043930E+01  0.7957747E-01            NaN
         13   -1    0    0    0    0  0.00000000000E+00  0.00000000000E+00  0.74505805969E-08  0.10566000000E+00  0.10566000000E+00 0.  1.
     999900   -1    0    0    0    0 -0.00000000000E+00 -0.00000000000E+00 -0.74505805969E-08  0.93827000000E+00  0.93827000000E+00 0.  1.
     999902    2    1    2    0    0 -0.18145965630E-02  0.20315863707E-01 -0.11444027148E-01  0.10205421220E+01  0.10202740955E+01 0.  0.
     999903    2    3    3    0    0 -0.40915984978E-01 -0.11745149811E+00  0.16944932590E-01  0.12851370454E+00  0.27562098618E-01 0.  0.
         14    1    1    2    0    0  0.18145965630E-02 -0.20315863707E-01  0.11444027148E-01  0.23387877976E-01  0.00000000000E+00 0.  1.
     999901    1    3    3    0    0  0.39101388415E-01  0.13776736182E+00 -0.28388959738E-01  0.89202841748E+00  0.88000000000E+00 0.  1.
        -11    1    4    4    0    0 -0.32904179144E-01 -0.83925428797E-01  0.24083929704E-01  0.93308410097E-01  0.51100000000E-03 0. -1.
         11    1    4    4    0    0 -0.80118058332E-02 -0.33526069313E-01 -0.71389971139E-02  0.35205294447E-01  0.51100000000E-03 0.  1.
</event>
<event>
 8    1  0.1078274E+005  0.1043930E+01  0.7957747E-01            NaN
         13   -1    0    0    0    0  0.00000000000E+00  0.00000000000E+00  0.74505805969E-08  0.10566000000E+00  0.10566000000E+00 0.  1.
     999900   -1    0    0    0    0 -0.00000000000E+00 -0.00000000000E+00 -0.74505805969E-08  0.93827000000E+00  0.93827000000E+00 0.  1.
     999902    2    1    2    0    0 -0.81779343193E-02 -0.10981281857E-01 -0.24582400478E-01  0.10157917418E+01  0.10154019407E+01 0.  0.
     999903    2    3    3    0    0  0.24263073034E-02 -0.11892680538E+00  0.40435189128E-01  0.12675182541E+00  0.16779413527E-01 0.  0.
         14    1    1    2    0    0  0.81779343193E-02  0.10981281857E-01  0.24582400478E-01  0.28138258194E-01  0.00000000000E+00 0.  1.
     999901    1    3    3    0    0 -0.10604241623E-01  0.10794552353E+00 -0.65017589606E-01  0.88903991640E+00  0.88000000000E+00 0.  1.
        -11    1    4    4    0    0  0.73200116616E-02 -0.50785880237E-01  0.23071905167E-01  0.56261551091E-01  0.51100000000E-03 0. -1.
         11    1    4    4    0    0 -0.48937043583E-02 -0.68140925148E-01  0.17363283962E-01  0.70490274317E-01  0.51100000000E-03 0.  1.
</event>
<event>
 8    1  0.1078274E+005  0.1043930E+01  0.7957747E-01            NaN
         13   -1    0    0    0    0  0.00000000000E+00  0.00000000000E+00  0.74505805969E-08  0.10566000000E+00  0.10566000000E+00 0.  1.
     999900   -1    0    0    0    0 -0.00000000000E+00 -0.00000000000E+00 -0.74505805969E-08  0.93827000000E+00  0.93827000000E+00 0.  1.
     999902    2    1    2    0    0  0.14840891064E-01 -0.11036178545E-01  0.14392480429E-01  0.10204951376E+01  0.10202260206E+01 0.  0.
     999903    2    3    3    0    0 -0.22334540854E-01  0.47332788097E-01 -0.11552240859E+00  0.12826936603E+00  0.19193197499E-01 0.  0.
         14    1    1    2    0    0 -0.14840891064E-01  0.11036178545E-01 -0.14392480429E-01  0.23434862435E-01  0.00000000000E+00 0. -1.
     999901    1    3    3    0    0  0.37175431918E-01 -0.58368966642E-01  0.12991488902E+00  0.89222577154E+00  0.88000000000E+00 0. -1.
        -11    1    4    4    0    0 -0.50553991032E-02  0.29134215511E-01 -0.49832515109E-01  0.57947392146E-01  0.51100000000E-03 0.  1.
         11    1    4    4    0    0 -0.17279141750E-01  0.18198572586E-01 -0.65689893483E-01  0.70321973881E-01  0.51100000000E-03 0. -1.
</event>
<event>
 8    1  0.1078274E+005  0.1043930E+01  0.7957747E-01            NaN
         13   -1    0    0    0    0  0.00000000000E+00  0.00000000000E+00  0.74505805969E-08  0.10566000000E+00  0.10566000000E+00 0.  1.
     999900   -1    0    0    0    0 -0.00000000000E+00 -0.00000000000E+00 -0.74505805969E-08  0.93827000000E+00  0.93827000000E+00 0. -1.
     999902    2    1    2    0    0  0.54294963007E-02 -0.20177635479E-01  0.11753454573E-01  0.10199558452E+01  0.10196740489E+01 0.  0.
     999903    2    3    3    0    0 -0.39261704239E-01  0.54083986893E-01 -0.10698197334E+00  0.12776181149E+00  0.20282475115E-01 0.  0.
         14    1    1    2    0    0 -0.54294963007E-02  0.20177635479E-01 -0.11753454573E-01  0.23974154792E-01  0.00000000000E+00 0. -1.
     999901    1    3    3    0    0  0.44691200540E-01 -0.74261622372E-01  0.11873542791E+00  0.89219403372E+00  0.88000000000E+00 0.  1.
        -11    1    4    4    0    0 -0.53810875093E-02  0.15862778821E-01 -0.41196534528E-01  0.44474705540E-01  0.51100000000E-03 0.  1.
         11    1    4    4    0    0 -0.33880616730E-01  0.38221208072E-01 -0.65785438813E-01  0.83287105949E-01  0.51100000000E-03 0. -1.
</event>
<event>
 8    1  0.1078274E+005  0.1043930E+01  0.7957747E-01            NaN
         13   -1    0    0    0    0  0.00000000000E+00  0.00000000000E+00  0.74505805969E-08  0.10566000000E+00  0.10566000000E+00 0.  1.
     999900   -1    0    0    0    0 -0.00000000000E+00 -0.00000000000E+00 -0.74505805969E-08  0.93827000000E+00  0.93827000000E+00 0. -1.
     999902    2    1    2    0    0  0.17289460271E-01 -0.63198615679E-02 -0.15473554904E-01  0.10198821937E+01  0.10195986426E+01 0.  0.
     999903    2    3    3    0    0 -0.99054499959E-01 -0.77559899604E-01 -0.19720309751E-01  0.12936038317E+00  0.22757111580E-01 0.  0.
         14    1    1    2    0    0 -0.17289460271E-01  0.63198615679E-02  0.15473554904E-01  0.24047806305E-01  0.00000000000E+00 0.  1.
     999901    1    3    3    0    0  0.11634396023E+00  0.71240038036E-01  0.42467548476E-02  0.89052181053E+00  0.88000000000E+00 0. -1.
        -11    1    4    4    0    0 -0.72407653976E-01 -0.44946865327E-01 -0.77640065234E-02  0.85578209700E-01  0.51100000000E-03 0. -1.
         11    1    4    4    0    0 -0.26646845983E-01 -0.32613034277E-01 -0.11956303228E-01  0.43782173467E-01  0.51100000000E-03 0.  1.
</event>
<event>
 8    1  0.1078274E+005  0.1043930E+01  0.7957747E-01            NaN
         13   -1    0    0    0    0  0.00000000000E+00  0.00000000000E+00  0.74505805969E-08  0.10566000000E+00  0.10566000000E+00 0.  1.
     999900   -1    0    0    0    0 -0.00000000000E+00 -0.00000000000E+00 -0.74505805969E-08  0.93827000000E+00  0.93827000000E+00 0.  1.
     999902    2    1    2    0    0 -0.13914424949E-01  0.14668223977E-01  0.12556121147E-01  0.10201303320E+01  0.10198526708E+01 0.  0.
     999903    2    3    3    0    0 -0.36966444180E-01 -0.12212121411E+00  0.41515127969E-02  0.12922439796E+00  0.20039985983E-01 0.  0.
         14    1    1    2    0    0  0.13914424949E-01 -0.14668223977E-01 -0.12556121147E-01  0.23799667951E-01  0.00000000000E+00 0. -1.
     999901    1    3    3    0    0  0.23052019231E-01  0.13678943808E+00  0.84046083504E-02  0.89090593409E+00  0.88000000000E+00 0. -1.
        -11    1    4    4    0    0 -0.23039144308E-01 -0.77177077564E-01  0.12271314223E-01  0.81473613799E-01  0.51100000000E-03 0.  1.
         11    1    4    4    0    0 -0.13927299872E-01 -0.44944136543E-01 -0.81198014265E-02  0.47750784156E-01  0.51100000000E-03 0. -1.
</event>
<event>
 8    1  0.1078274E+005  0.1043930E+01  0.7957747E-01            NaN
         13   -1    0    0    0    0  0.00000000000E+00  0.00000000000E+00  0.74505805969E-08  0.10566000000E+00  0.10566000000E+00 0. -1.
     999900   -1    0    0    0    0 -0.00000000000E+00 -0.00000000000E+00 -0.74505805969E-08  0.93827000000E+00  0.93827000000E+00 0. -1.
     999902    2    1    2    0    0 -0.42502547961E-02  0.19998851661E-01 -0.11236345734E-01  0.10206003151E+01  0.10203336361E+01 0.  0.
     999903    2    3    3    0    0 -0.36296014251E-01  0.45570793340E-01  0.11543283366E+00  0.13058574445E+00  0.18270186432E-01 0.  0.
         14    1    1    2    0    0  0.42502547961E-02 -0.19998851661E-01  0.11236345734E-01  0.23329684932E-01  0.00000000000E+00 0.  1.
     999901    1    3    3    0    0  0.32045759455E-01 -0.25571941680E-01 -0.12666917939E+00  0.89001457062E+00  0.88000000000E+00 0. -1.
        -11    1    4    4    0    0 -0.19680063018E-01  0.13831464553E-01  0.59272225139E-01  0.63969305811E-01  0.51100000000E-03 0. -1.
         11    1    4    4    0    0 -0.16615951233E-01  0.31739328788E-01  0.56160608517E-01  0.66616438641E-01  0.51100000000E-03 0.  1.
</event>
<event>
 7    1  0.1078274E+005  0.1043930E+01  0.7957747E-01            NaN
         13   -1    0    0    0    0  0.00000000000E+00  0.00000000000E+00  0.74505805969E-08  0.10566000000E+00  0.10566000000E+00 0. -1.
     999900   -1    0    0    0    0 -0.00000000000E+00 -0.00000000000E+00 -0.74505805969E-08  0.93827000000E+00  0.93827000000E+00 0. -1.
     999903    2    1    2    0    0 -0.51630188239E-04  0.18622192669E-01 -0.10504715019E+00  0.10858661868E+00  0.20232678170E-01 0.  0.
         14    1    1    2    0    0 -0.39010109841E-01 -0.19489656109E-01  0.26390741389E-01  0.50971625402E-01  0.00000000000E+00 0.  1.
     999901    1    1    2    0    0  0.39061740029E-01  0.86746344053E-03  0.78656408806E-01  0.88437175592E+00  0.88000000000E+00 0.  1.
        -11    1    3    3    0    0  0.85407730547E-02  0.96250848760E-02 -0.74404671968E-01  0.75510948841E-01  0.51100000000E-03 0. -1.
         11    1    3    3    0    0 -0.85924032429E-02  0.89971077927E-02 -0.30642478227E-01  0.33075669834E-01  0.51100000000E-03 0.  1.
</event>
<event>
 8    1  0.1078274E+005  0.1043930E+01  0.7957747E-01            NaN
         13   -1    0    0    0    0  0.00000000000E+00  0.00000000000E+00  0.74505805969E-08  0.10566000000E+00  0.10566000000E+00 0. -1.
     999900   -1    0    0    0    0 -0.00000000000E+00 -0.00000000000E+00 -0.74505805969E-08  0.93827000000E+00  0.93827000000E+00 0. -1.
     999902    2    1    2    0    0 -0.24304435737E-02  0.13496652710E-01  0.20555537894E-01  0.10192197424E+01  0.10189201571E+01 0.  0.
     999903    2    3    3    0    0 -0.84228452770E-01  0.88338915586E-01  0.45941412258E-01  0.13189977691E+00  0.19716529243E-01 0.  0.
         14    1    1    2    0    0  0.24304435737E-02 -0.13496652710E-01 -0.20555537894E-01  0.24710257556E-01  0.00000000000E+00 0.  1.
     999901    1    3    3    0    0  0.81798009196E-01 -0.74842262876E-01 -0.25385874364E-01  0.88731996554E+00  0.88000000000E+00 0. -1.
        -11    1    4    4    0    0 -0.19170657300E-01  0.14162837156E-01  0.21005078357E-02  0.23932682921E-01  0.51100000000E-03 0. -1.
         11    1    4    4    0    0 -0.65057795470E-01  0.74176078429E-01  0.43840904423E-01  0.10796709399E+00  0.51100000000E-03 0.  1.
</event>
<event>
 8    1  0.1078274E+005  0.1043930E+01  0.7957747E-01            NaN
         13   -1    0    0    0    0  0.00000000000E+00  0.00000000000E+00  0.74505805969E-08  0.10566000000E+00  0.10566000000E+00 0. -1.
     999900   -1    0    0    0    0 -0.00000000000E+00 -0.00000000000E+00 -0.74505805969E-08  0.93827000000E+00  0.93827000000E+00 0.  1.
     999902    2    1    2    0    0  0.19203272856E-01  0.12790227116E-01 -0.59480183430E-02  0.10201028197E+01  0.10198245086E+01 0.  0.
     999903    2    3    3    0    0  0.66837235139E-02  0.73680559760E-01  0.10603508781E+00  0.13083087718E+00  0.19994537481E-01 0.  0.
         14    1    1    2    0    0 -0.19203272856E-01 -0.12790227116E-01  0.59480183430E-02  0.23827180284E-01  0.00000000000E+00 0.  1.
     999901    1    3    3    0    0  0.12519549342E-01 -0.60890332644E-01 -0.11198310615E+00  0.88927194254E+00  0.88000000000E+00 0.  1.
        -11    1    4    4    0    0  0.10514772920E-01  0.41741894520E-01  0.72796571511E-01  0.84572738825E-01  0.51100000000E-03 0. -1.
         11    1    4    4    0    0 -0.38310494059E-02  0.31938665241E-01  0.33238516300E-01  0.46258138351E-01  0.51100000000E-03 0.  1.
</event>
<event>
 8    1  0.1078274E+005  0.1043930E+01  0.7957747E-01            NaN
         13   -1    0    0    0    0  0.00000000000E+00  0.00000000000E+00  0.74505805969E-08  0.10566000000E+00  0.10566000000E+00 0.  1.
     999900   -1    0    0    0    0 -0.00000000000E+00 -0.00000000000E+00 -0.74505805969E-08  0.93827000000E+00  0.93827000000E+00 0. -1.
     999902    2    1    2    0    0 -0.18719608774E-01  0.10853571147E-01  0.86890149788E-02  0.10206121369E+01  0.10203457312E+01 0.  0.
     999903    2    3    3    0    0  0.88564766717E-01 -0.51119073273E-01 -0.74128835923E-01  0.12808239378E+00  0.21287031871E-01 0.  0.
         14    1    1    2    0    0  0.18719608774E-01 -0.10853571147E-01 -0.86890149788E-02  0.23317863123E-01  0.00000000000E+00 0. -1.
     999901    1    3    3    0    0 -0.10728437549E+00  0.61972644420E-01  0.82817850902E-01  0.89252974309E+00  0.88000000000E+00 0. -1.
        -11    1    4    4    0    0  0.83901329016E-01 -0.49087982494E-01 -0.63005308643E-01  0.11584037756E+00  0.51100000000E-03 0.  1.
         11    1    4    4    0    0  0.46634377008E-02 -0.20310907782E-02 -0.11123527280E-01  0.12242016218E-01  0.51100000000E-03 0. -1.
</event>
<event>
 8    1  0.1078274E+005  0.1043930E+01  0.7957747E-01            NaN
         13   -1    0    0    0    0  0.00000000000E+00  0.00000000000E+00  0.74505805969E-08  0.10566000000E+00  0.10566000000E+00 0. -1.
     999900   -1    0    0    0    0 -0.00000000000E+00 -0.00000000000E+00 -0.74505805969E-08  0.93827000000E+00  0.93827000000E+00 0.  1.
     999902    2    1    2    0    0 -0.17047417794E-01  0.33511108653E-02  0.16240326203E-01  0.10201478093E+01  0.10198705606E+01 0.  0.
     999903    2    3    3    0    0 -0.44944913522E-01  0.90497519640E-01 -0.79141951592E-01  0.13027672556E+00  0.22332272788E-01 0.  0.
         14    1    1    2    0    0  0.17047417794E-01 -0.33511108653E-02 -0.16240326203E-01  0.23782190661E-01  0.00000000000E+00 0.  1.
     999901    1    3    3    0    0  0.27897495728E-01 -0.87146408775E-01  0.95382277795E-01  0.88987108378E+00  0.88000000000E+00 0. -1.
        -11    1    4    4    0    0 -0.44551234528E-01  0.79946762860E-01 -0.76735657156E-01  0.11943583880E+00  0.51100000000E-03 0.  1.
         11    1    4    4    0    0 -0.39367899403E-03  0.10550756781E-01 -0.24062944360E-02  0.10840886758E-01  0.51100000000E-03 0. -1.
</event>
<event>
 8    1  0.1078274E+005  0.1043930E+01  0.7957747E-01            NaN
         13   -1    0    0    0    0  0.00000000000E+00  0.00000000000E+00  0.74505805969E-08  0.10566000000E+00  0.10566000000E+00 0.  1.
     999900   -1    0    0    0    0 -0.00000000000E+00 -0.00000000000E+00 -0.74505805969E-08  0.93827000000E+00  0.93827000000E+00 0.  1.
     999902    2    1    2    0    0 -0.78195662484E-02  0.18498488455E-01  0.13661167609E-01  0.10196407598E+01  0.10193514172E+01 0.  0.
     999903    2    3    3    0    0  0.62235618065E-01 -0.10949810047E+00  0.25959328467E-02  0.12755707811E+00  0.20024064198E-01 0.  0.
         14    1    1    2    0    0  0.78195662484E-02 -0.18498488455E-01 -0.13661167609E-01  0.24289240249E-01  0.00000000000E+00 0.  1.
     999901    1    3    3    0    0 -0.70055184314E-01  0.12799658892E+00  0.11065234763E-01  0.89208368164E+00  0.88000000000E+00 0. -1.
        -11    1    4    4    0    0  0.24929238249E-01 -0.54201362809E-01 -0.73517726990E-02  0.60112929830E-01  0.51100000000E-03 0. -1.
         11    1    4    4    0    0  0.37306379816E-01 -0.55296737660E-01  0.99477055457E-02  0.67444148282E-01  0.51100000000E-03 0.  1.
</event>
<event>
 8    1  0.1078274E+005  0.1043930E+01  0.7957747E-01            NaN
         13   -1    0    0    0    0  0.00000000000E+00  0.00000000000E+00  0.74505805969E-08  0.10566000000E+00  0.10566000000E+00 0. -1.
     999900   -1    0    0    0    0 -0.00000000000E+00 -0.00000000000E+00 -0.74505805969E-08  0.93827000000E+00  0.93827000000E+00 0. -1.
     999902    2    1    2    0    0 -0.58807158777E-02  0.20756607302E-01 -0.76598017844E-02  0.10210369415E+01  0.10207802622E+01 0.  0.
     999903    2    3    3    0    0  0.37775139413E-01  0.12635292111E+00 -0.97709386636E-02  0.13364702035E+00  0.19339932178E-01 0.  0.
         14    1    1    2    0    0  0.58807158777E-02 -0.20756607302E-01  0.76598017844E-02  0.22893058539E-01  0.00000000000E+00 0.  1.
     999901    1    3    3    0    0 -0.43655855290E-01 -0.10559631380E+00  0.21111368792E-02  0.88738992111E+00  0.88000000000E+00 0. -1.
        -11    1    4    4    0    0 -0.13795506322E-02  0.17185732978E-01 -0.26495031618E-02  0.17450890118E-01  0.51100000000E-03 0. -1.
         11    1    4    4    0    0  0.39154690045E-01  0.10916718813E+00 -0.71214355018E-02  0.11619613023E+00  0.51100000000E-03 0.  1.
</event>
<event>
 8    1  0.1078274E+005  0.1043930E+01  0.7957747E-01            NaN
         13   -1    0    0    0    0  0.00000000000E+00  0.00000000000E+00  0.74505805969E-08  0.10566000000E+00  0.10566000000E+00 0. -1.
     999900   -1    0    0    0    0 -0.00000000000E+00 -0.00000000000E+00 -0.74505805969E-08  0.93827000000E+00  0.93827000000E+00 0.  1.
     999902    2    1    2    0    0  0.66059703984E-02  0.60884183279E-02 -0.25298646115E-01  0.10170836003E+01  0.10167292269E+01 0.  0.
     999903    2    3    3    0    0  0.99119739062E-01 -0.96606705568E-02  0.75252443675E-01  0.12639995675E+00  0.19898933647E-01 0.  0.
         14    1    1    2    0    0 -0.66059703984E-02 -0.60884183279E-02  0.25298646115E-01  0.26846399719E-01  0.00000000000E+00 0. -1.
     999901    1    3    3    0    0 -0.92513768663E-01  0.15749088885E-01 -0.10055108979E+00  0.89068364353E+00  0.88000000000E+00 0. -1.
        -11    1    4    4    0    0  0.40033736152E-01  0.12786932395E-02  0.20024326812E-01  0.44783589315E-01  0.51100000000E-03 0. -1.
         11    1    4    4    0    0  0.59086002910E-01 -0.10939363796E-01  0.55228116864E-01  0.81616367436E-01  0.51100000000E-03 0.  1.
</event>
<event>
 8    1  0.1078274E+005  0.1043930E+01  0.7957747E-01            NaN
         13   -1    0    0    0    0  0.00000000000E+00  0.00000000000E+00  0.74505805969E-08  0.10566000000E+00  0.10566000000E+00 0.  1.
     999900   -1    0    0    0    0 -0.00000000000E+00 -0.00000000000E+00 -0.74505805969E-08  0.93827000000E+00  0.93827000000E+00 0.  1.
     999902    2    1    2    0    0  0.15208057189E-01  0.12467325034E-01 -0.13130715197E-01  0.10202839670E+01  0.10200099207E+01 0.  0.
     999903    2    3    3    0    0  0.88711998048E-01 -0.92452358921E-01  0.12883184119E-01  0.13062802652E+00  0.21919115212E-01 0.  0.
         14    1    1    2    0    0 -0.15208057189E-01 -0.12467325034E-01  0.13130715197E-01  0.23646033041E-01  0.00000000000E+00 0.  1.
     999901    1    3    3    0    0 -0.73503940858E-01  0.10491968395E+00 -0.26013899316E-01  0.88965594044E+00  0.88000000000E+00 0. -1.
        -11    1    4    4    0    0  0.58591915985E-01 -0.45881387627E-01  0.47689637527E-02  0.74572907182E-01  0.51100000000E-03 0.  1.
         11    1    4    4    0    0  0.30120082063E-01 -0.46570971294E-01  0.81142203661E-02  0.56055119337E-01  0.51100000000E-03 0. -1.
</event>
<event>
 8    1  0.1078274E+005  0.1043930E+01  0.7957747E-01            NaN
         13   -1    0    0    0    0  0.00000000000E+00  0.00000000000E+00  0.74505805969E-08  0.10566000000E+00  0.10566000000E+00 0. -1.
     999900   -1    0    0    0    0 -0.00000000000E+00 -0.00000000000E+00 -0.74505805969E-08  0.93827000000E+00  0.93827000000E+00 0. -1.
     999902    2    1    2    0    0  0.68777515914E-02  0.22647509830E-01  0.12611435998E-02  0.10202276024E+01  0.10199522327E+01 0.  0.
     999903    2    3    3    0    0 -0.51098404718E-01 -0.84514346402E-01 -0.79296799527E-01  0.12818809637E+00  0.19760666062E-01 0.  0.
         14    1    1    2    0    0 -0.68777515914E-02 -0.22647509830E-01 -0.12611435998E-02  0.23702397592E-01  0.00000000000E+00 0.  1.
     999901    1    3    3    0    0  0.57976156310E-01  0.10716185623E+00  0.80557943127E-01  0.89203950604E+00  0.88000000000E+00 0.  1.
        -11    1    4    4    0    0 -0.20787759987E-01 -0.45534112978E-01 -0.29724601362E-01  0.58217690241E-01  0.51100000000E-03 0.  1.
         11    1    4    4    0    0 -0.30310644731E-01 -0.38980233425E-01 -0.49572198165E-01  0.69970406129E-01  0.51100000000E-03 0. -1.
</event>
<event>
 8    1  0.1078274E+005  0.1043930E+01  0.7957747E-01            NaN
         13   -1    0    0    0    0  0.00000000000E+00  0.00000000000E+00  0.74505805969E-08  0.10566000000E+00  0.10566000000E+00 0. -1.
     999900   -1    0    0    0    0 -0.00000000000E+00 -0.00000000000E+00 -0.74505805969E-08  0.93827000000E+00  0.93827000000E+00 0.  1.
     999902    2    1    2    0    0  0.10805255508E-01 -0.23655352613E-01  0.40172418794E-02  0.10176152230E+01  0.10172749258E+01 0.  0.
     999903    2    3    3    0    0 -0.63592786673E-01  0.57270071700E-03  0.10904808290E+00  0.12792227331E+00  0.20694277486E-01 0.  0.
         14    1    1    2    0    0 -0.10805255508E-01  0.23655352613E-01 -0.40172418794E-02  0.26314776954E-01  0.00000000000E+00 0. -1.
     999901    1    3    3    0    0  0.74398042180E-01 -0.24228053330E-01 -0.10503084102E+00  0.88969294974E+00  0.88000000000E+00 0.  1.
        -11    1    4    4    0    0 -0.45468703031E-01 -0.49725853960E-02  0.60824847011E-01  0.76105536564E-01  0.51100000000E-03 0. -1.
         11    1    4    4    0    0 -0.18124083642E-01  0.55452861130E-02  0.48223235891E-01  0.51816736743E-01  0.51100000000E-03 0.  1.
</event>
<event>
 8    1  0.1078274E+005  0.1043930E+01  0.7957747E-01            NaN
         13   -1    0    0    0    0  0.00000000000E+00  0.00000000000E+00  0.74505805969E-08  0.10566000000E+00  0.10566000000E+00 0. -1.
     999900   -1    0    0    0    0 -0.00000000000E+00 -0.00000000000E+00 -0.74505805969E-08  0.93827000000E+00  0.93827000000E+00 0.  1.
     999902    2    1    2    0    0 -0.14166436428E-01  0.12139802732E-01 -0.13490494539E-01  0.10209070511E+01  0.10206474175E+01 0.  0.
     999903    2    3    3    0    0  0.26456649487E-01  0.17605065936E-01  0.12408383861E+00  0.12927551213E+00  0.17477596607E-01 0.  0.
         14    1    1    2    0    0  0.14166436428E-01 -0.12139802732E-01  0.13490494539E-01  0.23022948863E-01  0.00000000000E+00 0.  1.
     999901    1    3    3    0    0 -0.40623085914E-01 -0.54652632039E-02 -0.13757433315E+00  0.89163153901E+00  0.88000000000E+00 0.  1.
        -11    1    4    4    0    0  0.46727706169E-02 -0.96465149517E-03  0.55663869079E-02  0.73492259425E-02  0.51100000000E-03 0.  1.
         11    1    4    4    0    0  0.21783878870E-01  0.18569717431E-01  0.11851745170E+00  0.12192628619E+00  0.51100000000E-03 0. -1.
</event>
<event>
 8    1  0.1191710E+005  0.1043930E+01  0.7957747E-01            NaN
         13   -1    0    0    0    0  0.00000000000E+00  0.00000000000E+00  0.74505805969E-08  0.10566000000E+00  0.10566000000E+00 0. -1.
     999900   -1    0    0    0    0 -0.00000000000E+00 -0.00000000000E+00 -0.74505805969E-08  0.93827000000E+00  0.93827000000E+00 0. -1.
     999902    2    1    2    0    0 -0.40782604993E-02  0.59206694497E-02  0.23296877837E-01  0.10195490432E+01  0.10192574849E+01 0.  0.
     999903    2    3    3    0    0  0.92394932070E-01 -0.86693285179E-01  0.17812829897E-01  0.12942854788E+00  0.19542336893E-01 0.  0.
         14    1    1    2    0    0  0.40782604993E-02 -0.59206694497E-02 -0.23296877837E-01  0.24380956757E-01  0.00000000000E+00 0.  1.
     999901    1    3    3    0    0 -0.96473192569E-01  0.92613954629E-01  0.54840479398E-02  0.89012049536E+00  0.88000000000E+00 0. -1.
        -11    1    4    4    0    0  0.32776331368E-01 -0.43899429318E-01  0.87459232702E-02  0.55481529244E-01  0.51100000000E-03 0.  1.
         11    1    4    4    0    0  0.59618600701E-01 -0.42793855861E-01  0.90669066265E-02  0.73947018641E-01  0.51100000000E-03 0. -1.
</event>
<event>
 8    1  0.1078274E+005  0.1043930E+01  0.7957747E-01            NaN
         13   -1    0    0    0    0  0.00000000000E+00  0.00000000000E+00  0.74505805969E-08  0.10566000000E+00  0.10566000000E+00 0.  1.
     999900   -1    0    0    0    0 -0.00000000000E+00 -0.00000000000E+00 -0.74505805969E-08  0.93827000000E+00  0.93827000000E+00 0.  1.
     999902    2    1    2    0    0 -0.89348424888E-02 -0.20968604917E-01 -0.68763091532E-02  0.10201224921E+01  0.10198446458E+01 0.  0.
     999903    2    3    3    0    0 -0.12009310773E+00  0.44424906309E-01  0.15134683475E-01  0.13045010580E+00  0.19805166812E-01 0.  0.
         14    1    1    2    0    0  0.89348424888E-02  0.20968604917E-01  0.68763091532E-02  0.23807507850E-01  0.00000000000E+00 0. -1.
     999901    1    3    3    0    0  0.11115826525E+00 -0.65393511226E-01 -0.22010992629E-01  0.88967238635E+00  0.88000000000E+00 0. -1.
        -11    1    4    4    0    0 -0.48938111341E-01  0.28549369787E-01  0.61312661634E-02  0.56989988617E-01  0.51100000000E-03 0. -1.
         11    1    4    4    0    0 -0.71154996394E-01  0.15875536522E-01  0.90034173120E-02  0.73460117179E-01  0.51100000000E-03 0.  1.
</event>
<event>
 8    1  0.1078274E+005  0.1043930E+01  0.7957747E-01            NaN
         13   -1    0    0    0    0  0.00000000000E+00  0.00000000000E+00  0.74505805969E-08  0.10566000000E+00  0.10566000000E+00 0. -1.
     999900   -1    0    0    0    0 -0.00000000000E+00 -0.00000000000E+00 -0.74505805969E-08  0.93827000000E+00  0.93827000000E+00 0.  1.
     999902    2    1    2    0    0  0.25323561908E-02 -0.14461475014E-01 -0.17684629042E-01  0.10209453705E+01  0.10206866103E+01 0.  0.
     999903    2    3    3    0    0  0.59398176900E-02  0.77210416414E-01 -0.10481763523E+00  0.13189671762E+00  0.20329230883E-01 0.  0.
         14    1    1    2    0    0 -0.25323561908E-02  0.14461475014E-01  0.17684629042E-01  0.22984629468E-01  0.00000000000E+00 0. -1.
     999901    1    3    3    0    0 -0.34074614992E-02 -0.91671891428E-01  0.87133006184E-01  0.88904865291E+00  0.88000000000E+00 0.  1.
        -11    1    4    4    0    0 -0.18275123518E-02  0.24349972490E-01 -0.48281628334E-01  0.54107649341E-01  0.51100000000E-03 0.  1.
         11    1    4    4    0    0  0.77673300418E-02  0.52860443924E-01 -0.56536006892E-01  0.77789068282E-01  0.51100000000E-03 0. -1.
</event>
<event>
 8    1  0.1078274E+005  0.1043930E+01  0.7957747E-01            NaN
         13   -1    0    0    0    0  0.00000000000E+00  0.00000000000E+00  0.74505805969E-08  0.10566000000E+00  0.10566000000E+00 0.  1.
     999900   -1    0    0    0    0 -0.00000000000E+00 -0.00000000000E+00 -0.74505805969E-08  0.93827000000E+00  0.93827000000E+00 0. -1.
     999902    2    1    2    0    0 -0.19299499875E-01  0.36148925136E-02  0.13270648677E-01  0.10202308806E+01  0.10199555880E+01 0.  0.
     999903    2    3    3    0    0  0.88078554558E-01 -0.89300791444E-01 -0.18412129699E-01  0.12828515954E+00  0.19637018930E-01 0.  0.
         14    1    1    2    0    0  0.19299499875E-01 -0.36148925136E-02 -0.13270648677E-01  0.23699119385E-01  0.00000000000E+00 0. -1.
     999901    1    3    3    0    0 -0.10737805443E+00  0.92915683958E-01  0.31682778376E-01  0.89194572108E+00  0.88000000000E+00 0. -1.
        -11    1    4    4    0    0  0.33639643341E-01 -0.41369175024E-01  0.50191820056E-03  0.53324921839E-01  0.51100000000E-03 0. -1.
         11    1    4    4    0    0  0.54438911217E-01 -0.47931616421E-01 -0.18914047900E-01  0.74960237701E-01  0.51100000000E-03 0.  1.
</event>
<event>
 8    1  0.1078274E+005  0.1043930E+01  0.7957747E-01            NaN
         13   -1    0    0    0    0  0.00000000000E+00  0.00000000000E+00  0.74505805969E-08  0.10566000000E+00  0.10566000000E+00 0. -1.
     999900   -1    0    0    0    0 -0.00000000000E+00 -0.00000000000E+00 -0.74505805969E-08  0.93827000000E+00  0.93827000000E+00 0.  1.
     999902    2    1    2    0    0 -0.23151602654E-01  0.15397400434E-02  0.16111539217E-02  0.10206713818E+01  0.10204063437E+01 0.  0.
     999903    2    3    3    0    0  0.10477073859E+00  0.69211511419E-01 -0.19451621623E-01  0.12860230679E+00  0.19825406698E-01 0.  0.
         14    1    1    2    0    0  0.23151602654E-01 -0.15397400434E-02 -0.16111539217E-02  0.23258618226E-01  0.00000000000E+00 0. -1.
     999901    1    3    3    0    0 -0.12792234124E+00 -0.67671771376E-01  0.21062775544E-01  0.89206907498E+00  0.88000000000E+00 0.  1.
        -11    1    4    4    0    0  0.67021911621E-01  0.55287100795E-01 -0.13400829250E-01  0.87911566345E-01  0.51100000000E-03 0. -1.
         11    1    4    4    0    0  0.37748826967E-01  0.13924410624E-01 -0.60507923730E-02  0.40690740445E-01  0.51100000000E-03 0.  1.
</event>
<event>
 8    1  0.1078274E+005  0.1043930E+01  0.7957747E-01            NaN
         13   -1    0    0    0    0  0.00000000000E+00  0.00000000000E+00  0.74505805969E-08  0.10566000000E+00  0.10566000000E+00 0.  1.
     999900   -1    0    0    0    0 -0.00000000000E+00 -0.00000000000E+00 -0.74505805969E-08  0.93827000000E+00  0.93827000000E+00 0.  1.
     999902    2    1    2    0    0  0.13894455364E-01 -0.11440171795E-01  0.15424674617E-01  0.10202265402E+01  0.10199511455E+01 0.  0.
     999903    2    3    3    0    0  0.98790815188E-02 -0.80883269770E-01  0.10361790327E+00  0.13308702879E+00  0.18324512897E-01 0.  0.
         14    1    1    2    0    0 -0.13894455364E-01  0.11440171795E-01 -0.15424674617E-01  0.23703459824E-01  0.00000000000E+00 0.  1.
     999901    1    3    3    0    0  0.40153738453E-02  0.69443097974E-01 -0.88193228656E-01  0.88713951139E+00  0.88000000000E+00 0.  1.
        -11    1    4    4    0    0  0.11794599259E-01 -0.60356362720E-01  0.66173717307E-01  0.90339498978E-01  0.51100000000E-03 0. -1.
         11    1    4    4    0    0 -0.19155177403E-02 -0.20526907050E-01  0.37444185966E-01  0.42747529811E-01  0.51100000000E-03 0.  1.
</event>
<event>
 8    1  0.1078274E+005  0.1043930E+01  0.7957747E-01            NaN
         13   -1    0    0    0    0  0.00000000000E+00  0.00000000000E+00  0.74505805969E-08  0.10566000000E+00  0.10566000000E+00 0. -1.
     999900   -1    0    0    0    0 -0.00000000000E+00 -0.00000000000E+00 -0.74505805969E-08  0.93827000000E+00  0.93827000000E+00 0. -1.
     999902    2    1    2    0    0 -0.19388983252E-01  0.13078868478E-01 -0.34243165368E-02  0.10202928382E+01  0.10200190000E+01 0.  0.
     999903    2    3    3    0    0 -0.81413911349E-01  0.59274040813E-01 -0.84681426479E-01  0.13317176219E+00  0.20545982090E-01 0.  0.
         14    1    1    2    0    0  0.19388983252E-01 -0.13078868478E-01  0.34243165368E-02  0.23637161757E-01  0.00000000000E+00 0.  1.
     999901    1    3    3    0    0  0.62024928097E-01 -0.46195172335E-01  0.81257109942E-01  0.88712107605E+00  0.88000000000E+00 0.  1.
        -11    1    4    4    0    0 -0.34404435255E-01  0.26927820813E-01 -0.23907276626E-01  0.49805538805E-01  0.51100000000E-03 0.  1.
         11    1    4    4    0    0 -0.47009476094E-01  0.32346219999E-01 -0.60774149853E-01  0.83366223389E-01  0.51100000000E-03 0. -1.
</event>
<event>
 8    1  0.1078274E+005  0.1043930E+01  0.7957747E-01            NaN
         13   -1    0    0    0    0  0.00000000000E+00  0.00000000000E+00  0.74505805969E-08  0.10566000000E+00  0.10566000000E+00 0.  1.
     999900   -1    0    0    0    0 -0.00000000000E+00 -0.00000000000E+00 -0.74505805969E-08  0.93827000000E+00  0.93827000000E+00 0. -1.
     999902    2    1    2    0    0  0.13245001770E-01 -0.16887850269E-01 -0.24526541821E-02  0.10223280309E+01  0.10220997787E+01 0.  0.
     999903    2    3    3    0    0 -0.10229208069E-02 -0.43495834184E-01 -0.12294256183E+00  0.13360457765E+00  0.29023709291E-01 0.  0.
         14    1    1    2    0    0 -0.13245001770E-01  0.16887850269E-01  0.24526541821E-02  0.21601969149E-01  0.00000000000E+00 0. -1.
     999901    1    3    3    0    0  0.14267922577E-01  0.26607983916E-01  0.12048990765E+00  0.88872345320E+00  0.88000000000E+00 0.  1.
        -11    1    4    4    0    0 -0.11427150520E-01 -0.39329101797E-01 -0.92589497277E-01  0.10124442772E+00  0.51100000000E-03 0.  1.
         11    1    4    4    0    0  0.10404229713E-01 -0.41667323870E-02 -0.30353064555E-01  0.32360149931E-01  0.51100000000E-03 0. -1.
</event>
<event>
 8    1  0.1078274E+005  0.1043930E+01  0.7957747E-01            NaN
         13   -1    0    0    0    0  0.00000000000E+00  0.00000000000E+00  0.74505805969E-08  0.10566000000E+00  0.10566000000E+00 0.  1.
     999900   -1    0    0    0    0 -0.00000000000E+00 -0.00000000000E+00 -0.74505805969E-08  0.93827000000E+00  0.93827000000E+00 0. -1.
     999902    2    1    2    0    0 -0.19302343858E-01  0.12421942664E-01 -0.35913587979E-02  0.10206967696E+01  0.10204323164E+01 0.  0.
     999903    2    3    3    0    0  0.97899020718E-01  0.78460314562E-01  0.27769825508E-01  0.12992140491E+00  0.19187731117E-01 0.  0.
         14    1    1    2    0    0  0.19302343858E-01 -0.12421942664E-01  0.35913587979E-02  0.23233230425E-01  0.00000000000E+00 0. -1.
     999901    1    3    3    0    0 -0.11720136458E+00 -0.66038371898E-01 -0.31361184306E-01  0.89077536467E+00  0.88000000000E+00 0.  1.
        -11    1    4    4    0    0  0.51232111885E-01  0.36018614198E-01  0.22777815020E-01  0.66642027543E-01  0.51100000000E-03 0.  1.
         11    1    4    4    0    0  0.46666908833E-01  0.42441700364E-01  0.49920104884E-02  0.63279377363E-01  0.51100000000E-03 0. -1.
</event>
<event>
 8    1  0.1078274E+005  0.1043930E+01  0.7957747E-01            NaN
         13   -1    0    0    0    0  0.00000000000E+00  0.00000000000E+00  0.74505805969E-08  0.10566000000E+00  0.10566000000E+00 0. -1.
     999900   -1    0    0    0    0 -0.00000000000E+00 -0.00000000000E+00 -0.74505805969E-08  0.93827000000E+00  0.93827000000E+00 0. -1.
     999902    2    1    2    0    0  0.79337139445E-02  0.79723286388E-03 -0.21755672397E-01  0.10207591416E+01  0.10204961227E+01 0.  0.
     999903    2    3    3    0    0  0.11185741563E+00 -0.12486287400E-01  0.63099826745E-01  0.13049118003E+00  0.19451764065E-01 0.  0.
         14    1    1    2    0    0 -0.79337139445E-02 -0.79723286388E-03  0.21755672397E-01  0.23170858392E-01  0.00000000000E+00 0. -1.
     999901    1    3    3    0    0 -0.10392370169E+00  0.13283520264E-01 -0.84855499141E-01  0.89026796158E+00  0.88000000000E+00 0.  1.
        -11    1    4    4    0    0  0.42860272820E-01 -0.13947538495E-01  0.27995994335E-01  0.53061979195E-01  0.51100000000E-03 0. -1.
         11    1    4    4    0    0  0.68997142810E-01  0.14612510945E-02  0.35103832410E-01  0.77429200833E-01  0.51100000000E-03 0.  1.
</event>
<event>
 8    1  0.1078274E+005  0.1043930E+01  0.7957747E-01            NaN
         13   -1    0    0    0    0  0.00000000000E+00  0.00000000000E+00  0.74505805969E-08  0.10566000000E+00  0.10566000000E+00 0. -1.
     999900   -1    0    0    0    0 -0.00000000000E+00 -0.00000000000E+00 -0.74505805969E-08  0.93827000000E+00  0.93827000000E+00 0. -1.
     999902    2    1    2    0    0  0.37659365950E-02 -0.23268579091E-01 -0.25385695821E-02  0.10202223348E+01  0.10199468413E+01 0.  0.
     999903    2    3    3    0    0 -0.76739380102E-01  0.89408168888E-01  0.46763368581E-01  0.12802962211E+00  0.17944870447E-01 0.  0.
         14    1    1    2    0    0 -0.37659365950E-02  0.23268579091E-01  0.25385695821E-02  0.23707665150E-01  0.00000000000E+00 0.  1.
     999901    1    3    3    0    0  0.80505316697E-01 -0.11267674798E+00 -0.49301938163E-01  0.89219271274E+00  0.88000000000E+00 0. -1.
        -11    1    4    4    0    0 -0.23320130783E-01  0.16569405389E-01  0.14792236471E-01  0.32209394212E-01  0.51100000000E-03 0.  1.
         11    1    4    4    0    0 -0.53419249320E-01  0.72838763499E-01  0.31971132109E-01  0.95820227903E-01  0.51100000000E-03 0. -1.
</event>
<event>
 8    1  0.1078274E+005  0.1043930E+01  0.7957747E-01            NaN
         13   -1    0    0    0    0  0.00000000000E+00  0.00000000000E+00  0.74505805969E-08  0.10566000000E+00  0.10566000000E+00 0. -1.
     999900   -1    0    0    0    0 -0.00000000000E+00 -0.00000000000E+00 -0.74505805969E-08  0.93827000000E+00  0.93827000000E+00 0.  1.
     999902    2    1    2    0    0 -0.15616499586E-01  0.12884084068E-01 -0.11813240896E-01  0.10204901335E+01  0.10202209002E+01 0.  0.
     999903    2    3    3    0    0  0.64548493763E-01  0.95675348263E-01  0.57113204496E-01  0.13030381902E+00  0.19922018278E-01 0.  0.
         14    1    1    2    0    0  0.15616499586E-01 -0.12884084068E-01  0.11813240896E-01  0.23439866511E-01  0.00000000000E+00 0. -1.
     999901    1    3    3    0    0 -0.80164993349E-01 -0.82791264194E-01 -0.68926445392E-01  0.89018631446E+00  0.88000000000E+00 0.  1.
        -11    1    4    4    0    0 -0.15195572012E-03  0.12730744311E-02  0.38101463026E-02  0.40524245699E-02  0.51100000000E-03 0. -1.
         11    1    4    4    0    0  0.64700449483E-01  0.94402273831E-01  0.53303058193E-01  0.12625139445E+00  0.51100000000E-03 0.  1.
</event>
<event>
 8    1  0.1078274E+005  0.1043930E+01  0.7957747E-01            NaN
         13   -1    0    0    0    0  0.00000000000E+00  0.00000000000E+00  0.74505805969E-08  0.10566000000E+00  0.10566000000E+00 0. -1.
     999900   -1    0    0    0    0 -0.00000000000E+00 -0.00000000000E+00 -0.74505805969E-08  0.93827000000E+00  0.93827000000E+00 0.  1.
     999902    2    1    2    0    0  0.67789538555E-03 -0.12242452653E-01 -0.18607528375E-01  0.10216459855E+01  0.10214029285E+01 0.  0.
     999903    2    3    3    0    0  0.12508747960E+00 -0.99553602971E-02 -0.38416283274E-01  0.13267165394E+00  0.19492823979E-01 0.  0.
         14    1    1    2    0    0 -0.67789538555E-03  0.12242452653E-01  0.18607528375E-01  0.22284014480E-01  0.00000000000E+00 0. -1.
     999901    1    3    3    0    0 -0.12440958422E+00 -0.22870923558E-02  0.19808754899E-01  0.88897433158E+00  0.88000000000E+00 0. -1.
        -11    1    4    4    0    0  0.76866837482E-01 -0.61365669365E-02 -0.13599755318E-01  0.78303145684E-01  0.51100000000E-03 0. -1.
         11    1    4    4    0    0  0.48220642121E-01 -0.38187933606E-02 -0.24816527956E-01  0.54368508257E-01  0.51100000000E-03 0.  1.
</event>
<event>
 8    1  0.1078274E+005  0.1043930E+01  0.7957747E-01            NaN
         13   -1    0    0    0    0  0.00000000000E+00  0.00000000000E+00  0.74505805969E-08  0.10566000000E+00  0.10566000000E+00 0. -1.
     999900   -1    0    0    0    0 -0.00000000000E+00 -0.00000000000E+00 -0.74505805969E-08  0.93827000000E+00  0.93827000000E+00 0. -1.
     999902    2    1    2    0    0  0.14350145512E-02  0.23297536510E-01 -0.69713473082E-02  0.10195694960E+01  0.10192784325E+01 0.  0.
     999903    2    3    3    0    0 -0.39889915947E-01 -0.96333774257E-01 -0.68252576843E-01  0.12840464617E+00  0.30950564697E-01 0.  0.
         14    1    1    2    0    0 -0.14350145512E-02 -0.23297536510E-01  0.69713473082E-02  0.24360504048E-01  0.00000000000E+00 0.  1.
     999901    1    3    3    0    0  0.41324930498E-01  0.11963131077E+00  0.61281229535E-01  0.89116484978E+00  0.88000000000E+00 0. -1.
        -11    1    4    4    0    0 -0.27499245999E-01 -0.45601677996E-01 -0.50093670221E-01  0.73111958555E-01  0.51100000000E-03 0.  1.
         11    1    4    4    0    0 -0.12390669948E-01 -0.50732096261E-01 -0.18158906622E-01  0.55292687614E-01  0.51100000000E-03 0. -1.
</event>
<event>
 8    1  0.1086786E+005  0.1043930E+01  0.7957747E-01            NaN
         13   -1    0    0    0    0  0.00000000000E+00  0.00000000000E+00  0.74505805969E-08  0.10566000000E+00  0.10566000000E+00 0. -1.
     999900   -1    0    0    0    0 -0.00000000000E+00 -0.00000000000E+00 -0.74505805969E-08  0.93827000000E+00  0.93827000000E+00 0. -1.
     999902    2    1    2    0    0  0.20307335677E-01  0.11622935623E-01 -0.16893697837E-02  0.10204707910E+01  0.10202011081E+01 0.  0.
     999903    2    3    3    0    0  0.41524132426E-01  0.27489115636E-01 -0.12058178194E+00  0.13208050867E+00  0.20624974747E-01 0.  0.
         14    1    1    2    0    0 -0.20307335677E-01 -0.11622935623E-01  0.16893697837E-02  0.23459208960E-01  0.00000000000E+00 0.  1.
     999901    1    3    3    0    0 -0.21216796750E-01 -0.15866180013E-01  0.11889241216E+00  0.88839028237E+00  0.88000000000E+00 0.  1.
        -11    1    4    4    0    0  0.15819251259E-01  0.17284896170E-02 -0.52764176761E-01  0.55114025956E-01  0.51100000000E-03 0. -1.
         11    1    4    4    0    0  0.25704881167E-01  0.25760626019E-01 -0.67817605180E-01  0.76966482719E-01  0.51100000000E-03 0.  1.
</event>
<event>
 8    1  0.1078274E+005  0.1043930E+01  0.7957747E-01            NaN
         13   -1    0    0    0    0  0.00000000000E+00  0.00000000000E+00  0.74505805969E-08  0.10566000000E+00  0.10566000000E+00 0.  1.
     999900   -1    0    0    0    0 -0.00000000000E+00 -0.00000000000E+00 -0.74505805969E-08  0.93827000000E+00  0.93827000000E+00 0. -1.
     999902    2    1    2    0    0 -0.60658426394E-02 -0.25547357141E-01  0.15930271269E-02  0.10176241140E+01  0.10172840497E+01 0.  0.
     999903    2    3    3    0    0 -0.87241885789E-01  0.14352487362E-01  0.91123327010E-01  0.12846877200E+00  0.19586324950E-01 0.  0.
         14    1    1    2    0    0  0.60658426394E-02  0.25547357141E-01 -0.15930271269E-02  0.26305886019E-01  0.00000000000E+00 0. -1.
     999901    1    3    3    0    0  0.81176043149E-01 -0.39899844502E-01 -0.89530299883E-01  0.88915534198E+00  0.88000000000E+00 0. -1.
        -11    1    4    4    0    0 -0.29668347398E-01  0.68556031978E-02  0.19067284355E-01  0.35930941905E-01  0.51100000000E-03 0. -1.
         11    1    4    4    0    0 -0.57573538391E-01  0.74968841640E-02  0.72056042655E-01  0.92537830097E-01  0.51100000000E-03 0.  1.
</event>
<event>
 8    1  0.1078274E+005  0.1043930E+01  0.7957747E-01            NaN
         13   -1    0    0    0    0  0.00000000000E+00  0.00000000000E+00  0.74505805969E-08  0.10566000000E+00  0.10566000000E+00 0. -1.
     999900   -1    0    0    0    0 -0.00000000000E+00 -0.00000000000E+00 -0.74505805969E-08  0.93827000000E+00  0.93827000000E+00 0.  1.
     999902    2    1    2    0    0 -0.13366528071E-01  0.20723570215E-02  0.18964353832E-01  0.10206361070E+01  0.10203702551E+01 0.  0.
     999903    2    3    3    0    0 -0.23518821645E-01  0.10193160085E+00 -0.74523083818E-01  0.13001001335E+00  0.20142674217E-01 0.  0.
         14    1    1    2    0    0  0.13366528071E-01 -0.20723570215E-02 -0.18964353832E-01  0.23293893031E-01  0.00000000000E+00 0.  1.
     999901    1    3    3    0    0  0.10152293574E-01 -0.99859243830E-01  0.93487437650E-01  0.89062609362E+00  0.88000000000E+00 0.  1.
        -11    1    4    4    0    0 -0.15726018442E-01  0.27949699361E-01 -0.20398950488E-01  0.38011467380E-01  0.51100000000E-03 0.  1.
         11    1    4    4    0    0 -0.77928032029E-02  0.73981901491E-01 -0.54124133331E-01  0.91998545966E-01  0.51100000000E-03 0. -1.
</event>
<event>
 8    1  0.1078274E+005  0.1043930E+01  0.7957747E-01            NaN
         13   -1    0    0    0    0  0.00000000000E+00  0.00000000000E+00  0.74505805969E-08  0.10566000000E+00  0.10566000000E+00 0.  1.
     999900   -1    0    0    0    0 -0.00000000000E+00 -0.00000000000E+00 -0.74505805969E-08  0.93827000000E+00  0.93827000000E+00 0. -1.
     999902    2    1    2    0    0 -0.24451796669E-02 -0.20221380915E-01  0.12620153526E-01  0.10199685429E+01  0.10196870486E+01 0.  0.
     999903    2    3    3    0    0 -0.10828989453E+00 -0.53993435005E-01  0.49466812577E-01  0.13221782816E+00  0.19814041906E-01 0.  0.
         14    1    1    2    0    0  0.24451796669E-02  0.20221380915E-01 -0.12620153526E-01  0.23961457066E-01  0.00000000000E+00 0.  1.
     999901    1    3    3    0    0  0.10584471486E+00  0.33772054090E-01 -0.36846659051E-01  0.88775071478E+00  0.88000000000E+00 0.  1.
        -11    1    4    4    0    0 -0.94697749068E-01 -0.42386199072E-01  0.47877395037E-01  0.11426617884E+00  0.51100000000E-03 0. -1.
         11    1    4    4    0    0 -0.13592145457E-01 -0.11607235933E-01  0.15894175401E-02  0.17951649318E-01  0.51100000000E-03 0.  1.
</event>
<event>
 8    1  0.1078274E+005  0.1043930E+01  0.7957747E-01            NaN
         13   -1    0    0    0    0  0.00000000000E+00  0.00000000000E+00  0.74505805969E-08  0.10566000000E+00  0.10566000000E+00 0.  1.
     999900   -1    0    0    0    0 -0.00000000000E+00 -0.00000000000E+00 -0.74505805969E-08  0.93827000000E+00  0.93827000000E+00 0.  1.
     999902    2    1    2    0    0 -0.65029499370E-02 -0.12092572013E-01 -0.18627503290E-01  0.10207890723E+01  0.10205267403E+01 0.  0.
     999903    2    3    3    0    0 -0.38129363195E-02  0.11365678340E+00  0.57661763557E-01  0.12857822906E+00  0.16585509217E-01 0.  0.
         14    1    1    2    0    0  0.65029499370E-02  0.12092572013E-01  0.18627503290E-01  0.23140927695E-01  0.00000000000E+00 0.  1.
     999901    1    3    3    0    0 -0.26900136175E-02 -0.12574935542E+00 -0.76289266847E-01  0.89221084324E+00  0.88000000000E+00 0.  1.
        -11    1    4    4    0    0 -0.86584332223E-02  0.94309051660E-01  0.44227741566E-01  0.10452521196E+00  0.51100000000E-03 0.  1.
         11    1    4    4    0    0  0.48454969028E-02  0.19347731742E-01  0.13434021991E-01  0.24053017101E-01  0.51100000000E-03 0. -1.
</event>
<event>
 8    1  0.1078274E+005  0.1043930E+01  0.7957747E-01            NaN
         13   -1    0    0    0    0  0.00000000000E+00  0.00000000000E+00  0.74505805969E-08  0.10566000000E+00  0.10566000000E+00 0. -1.
     999900   -1    0    0    0    0 -0.00000000000E+00 -0.00000000000E+00 -0.74505805969E-08  0.93827000000E+00  0.93827000000E+00 0.  1.
     999902    2    1    2    0    0  0.63221014038E-02  0.88916454728E-02  0.20453764165E-01  0.10207483954E+01  0.10204851296E+01 0.  0.
     999903    2    3    3    0    0 -0.13977258856E-01 -0.12010134546E+00 -0.40589659220E-01  0.12902110785E+00  0.19473800052E-01 0.  0.
         14    1    1    2    0    0 -0.63221014038E-02 -0.88916454728E-02 -0.20453764165E-01  0.23181604645E-01  0.00000000000E+00 0.  1.
     999901    1    3    3    0    0  0.20299360260E-01  0.12899299094E+00  0.61043423385E-01  0.89172728750E+00  0.88000000000E+00 0. -1.
        -11    1    4    4    0    0  0.56274876698E-04 -0.79425167725E-01 -0.25489555928E-01  0.83416659112E-01  0.51100000000E-03 0. -1.
         11    1    4    4    0    0 -0.14033533733E-01 -0.40676177740E-01 -0.15100103292E-01  0.45604448741E-01  0.51100000000E-03 0.  1.
</event>
<event>
 8    1  0.1078274E+005  0.1043930E+01  0.7957747E-01            NaN
         13   -1    0    0    0    0  0.00000000000E+00  0.00000000000E+00  0.74505805969E-08  0.10566000000E+00  0.10566000000E+00 0. -1.
     999900   -1    0    0    0    0 -0.00000000000E+00 -0.00000000000E+00 -0.74505805969E-08  0.93827000000E+00  0.93827000000E+00 0. -1.
     999902    2    1    2    0    0  0.39362705642E-02 -0.71013818427E-02 -0.21771498302E-01  0.10206937785E+01  0.10204292565E+01 0.  0.
     999903    2    3    3    0    0  0.76278746293E-02 -0.11110314149E+00 -0.70648654508E-01  0.13321478139E+00  0.18784383858E-01 0.  0.
         14    1    1    2    0    0 -0.39362705642E-02  0.71013818427E-02  0.21771498302E-01  0.23236221474E-01  0.00000000000E+00 0. -1.
     999901    1    3    3    0    0 -0.36916040651E-02  0.10400175965E+00  0.48877156205E-01  0.88747899713E+00  0.88000000000E+00 0.  1.
        -11    1    4    4    0    0 -0.36104811547E-02 -0.60511213759E-01 -0.44236592732E-01  0.75045185204E-01  0.51100000000E-03 0.  1.
         11    1    4    4    0    0  0.11238355784E-01 -0.50591927736E-01 -0.26412061775E-01  0.58169596191E-01  0.51100000000E-03 0. -1.
</event>
<event>
 8    1  0.1078274E+005  0.1043930E+01  0.7957747E-01            NaN
         13   -1    0    0    0    0  0.00000000000E+00  0.00000000000E+00  0.74505805969E-08  0.10566000000E+00  0.10566000000E+00 0.  1.
     999900   -1    0    0    0    0 -0.00000000000E+00 -0.00000000000E+00 -0.74505805969E-08  0.93827000000E+00  0.93827000000E+00 0. -1.
     999902    2    1    2    0    0 -0.13018108085E-01 -0.18931457940E-01  0.98635730130E-02  0.10189267740E+01  0.10186199534E+01 0.  0.
     999903    2    3    3    0    0 -0.84884486367E-01  0.48904624694E-01  0.83092697308E-01  0.13037232149E+00  0.22259998243E-01 0.  0.
         14    1    1    2    0    0  0.13018108085E-01  0.18931457940E-01 -0.98635730130E-02  0.25003226001E-01  0.00000000000E+00 0. -1.
     999901    1    3    3    0    0  0.71866378282E-01 -0.67836082634E-01 -0.73229124295E-01  0.88855445251E+00  0.88000000000E+00 0.  1.
        -11    1    4    4    0    0 -0.15846387604E-01  0.12557662958E-02  0.19157398409E-01  0.24898834990E-01  0.51100000000E-03 0.  1.
         11    1    4    4    0    0 -0.69038098763E-01  0.47648858398E-01  0.63935298899E-01  0.10547348650E+00  0.51100000000E-03 0. -1.
</event>
<event>
 8    1  0.1078274E+005  0.1043930E+01  0.7957747E-01            NaN
         13   -1    0    0    0    0  0.00000000000E+00  0.00000000000E+00  0.74505805969E-08  0.10566000000E+00  0.10566000000E+00 0. -1.
     999900   -1    0    0    0    0 -0.00000000000E+00 -0.00000000000E+00 -0.74505805969E-08  0.93827000000E+00  0.93827000000E+00 0. -1.
     999902    2    1    2    0    0  0.14593013699E-01 -0.17863947803E-02 -0.18757641561E-01  0.10200973255E+01  0.10198188845E+01 0.  0.
     999903    2    3    3    0    0  0.49564895946E-01 -0.34375541715E-01 -0.11744076309E+00  0.13329213638E+00  0.18333139577E-01 0.  0.
         14    1    1    2    0    0 -0.14593013699E-01  0.17863947803E-02  0.18757641561E-01  0.23832674463E-01  0.00000000000E+00 0. -1.
     999901    1    3    3    0    0 -0.34971882247E-01  0.32589146935E-01  0.98683121528E-01  0.88680518916E+00  0.88000000000E+00 0.  1.
        -11    1    4    4    0    0  0.37118798582E-01 -0.23287874940E-01 -0.66067158528E-01  0.79279637262E-01  0.51100000000E-03 0. -1.
         11    1    4    4    0    0  0.12446097364E-01 -0.11087666775E-01 -0.51373604561E-01  0.54012499116E-01  0.51100000000E-03 0.  1.
</event>
<event>
 8    1  0.1078274E+005  0.1043930E+01  0.7957747E-01            NaN
         13   -1    0    0    0    0  0.00000000000E+00  0.00000000000E+00  0.74505805969E-08  0.10566000000E+00  0.10566000000E+00 0. -1.
     999900   -1    0    0    0    0 -0.00000000000E+00 -0.00000000000E+00 -0.74505805969E-08  0.93827000000E+00  0.93827000000E+00 0.  1.
     999902    2    1    2    0    0 -0.11005478946E-01 -0.38453988199E-03 -0.20399743965E-01  0.10207477225E+01  0.10204844413E+01 0.  0.
     999903    2    3    3    0    0  0.14923879154E-01  0.13271677600E-01 -0.13152964309E+00  0.13327452379E+00  0.79493450401E-02 0.  0.
         14    1    1    2    0    0  0.11005478946E-01  0.38453988199E-03  0.20399743965E-01  0.23182277532E-01  0.00000000000E+00 0. -1.
     999901    1    3    3    0    0 -0.25929358100E-01 -0.13656217482E-01  0.11112989912E+00  0.88747319867E+00  0.88000000000E+00 0. -1.
        -11    1    4    4    0    0  0.63747490563E-02  0.13898148573E-02 -0.30980289809E-01  0.31663993566E-01  0.51100000000E-03 0. -1.
         11    1    4    4    0    0  0.85491300982E-02  0.11881862743E-01 -0.10054935328E+00  0.10161053023E+00  0.51100000000E-03 0.  1.
</event>
<event>
 8    1  0.1078274E+005  0.1043930E+01  0.7957747E-01            NaN
         13   -1    0    0    0    0  0.00000000000E+00  0.00000000000E+00  0.74505805969E-08  0.10566000000E+00  0.10566000000E+00 0.  1.
     999900   -1    0    0    0    0 -0.00000000000E+00 -0.00000000000E+00 -0.74505805969E-08  0.93827000000E+00  0.93827000000E+00 0.  1.
     999902    2    1    2    0    0 -0.84724025687E-03 -0.71198574114E-04  0.23860040148E-01  0.10200548162E+01  0.10197753692E+01 0.  0.
     999903    2    3    3    0    0 -0.27456390687E-01 -0.10532867476E+00 -0.66136969600E-01  0.12882721063E+00  0.19348600322E-01 0.  0.
         14    1    1    2    0    0  0.84724025687E-03  0.71198574114E-04 -0.23860040148E-01  0.23875183793E-01  0.00000000000E+00 0. -1.
     999901    1    3    3    0    0  0.26609150430E-01  0.10525747619E+00  0.89997009748E-01  0.89122760558E+00  0.88000000000E+00 0. -1.
        -11    1    4    4    0    0 -0.17169215856E-01 -0.81061177640E-01 -0.41199413753E-01  0.92538366681E-01  0.51100000000E-03 0.  1.
         11    1    4    4    0    0 -0.10287174831E-01 -0.24267497121E-01 -0.24937555846E-01  0.36288843948E-01  0.51100000000E-03 0. -1.
</event>
<event>
 8    1  0.1078274E+005  0.1043930E+01  0.7957747E-01            NaN
         13   -1    0    0    0    0  0.00000000000E+00  0.00000000000E+00  0.74505805969E-08  0.10566000000E+00  0.10566000000E+00 0.  1.
     999900   -1    0    0    0    0 -0.00000000000E+00 -0.00000000000E+00 -0.74505805969E-08  0.93827000000E+00  0.93827000000E+00 0. -1.
     999902    2    1    2    0    0 -0.12378849868E-01 -0.23548044670E-02 -0.20634456184E-01  0.10197522869E+01  0.10194656271E+01 0.  0.
     999903    2    3    3    0    0  0.12184610509E+00 -0.36107528195E-01 -0.82887996256E-03  0.12871477606E+00  0.20410282109E-01 0.  0.
         14    1    1    2    0    0  0.12378849868E-01  0.23548044670E-02  0.20634456184E-01  0.24177713088E-01  0.00000000000E+00 0.  1.
     999901    1    3    3    0    0 -0.13422495496E+00  0.33752723728E-01 -0.19805576222E-01  0.89103751085E+00  0.88000000000E+00 0.  1.
        -11    1    4    4    0    0  0.27399623870E-01 -0.94610097243E-03  0.45274099379E-02  0.27791960295E-01  0.51100000000E-03 0. -1.
         11    1    4    4    0    0  0.94446481223E-01 -0.35161427223E-01 -0.53562899005E-02  0.10092281577E+00  0.51100000000E-03 0.  1.
</event>
<event>
 8    1  0.1078274E+005  0.1043930E+01  0.7957747E-01            NaN
         13   -1    0    0    0    0  0.00000000000E+00  0.00000000000E+00  0.74505805969E-08  0.10566000000E+00  0.10566000000E+00 0.  1.
     999900   -1    0    0    0    0 -0.00000000000E+00 -0.00000000000E+00 -0.74505805969E-08  0.93827000000E+00  0.93827000000E+00 0. -1.
     999902    2    1    2    0    0  0.14029044944E-01 -0.10738734297E-01  0.15887485663E-01  0.10201698081E+01  0.10198930781E+01 0.  0.
     999903    2    3    3    0    0 -0.54005981902E-01  0.21724877210E-01  0.11582094722E+00  0.13131135615E+00  0.20965783213E-01 0.  0.
         14    1    1    2    0    0 -0.14029044944E-01  0.10738734297E-01 -0.15887485663E-01  0.23760191856E-01  0.00000000000E+00 0. -1.
     999901    1    3    3    0    0  0.68035026846E-01 -0.32463611506E-01 -0.99933461561E-01  0.88885845200E+00  0.88000000000E+00 0. -1.
        -11    1    4    4    0    0 -0.35349990812E-01  0.19946792722E-01  0.94913550707E-01  0.10322954819E+00  0.51100000000E-03 0. -1.
         11    1    4    4    0    0 -0.18655991090E-01  0.17780844880E-02  0.20907396518E-01  0.28081807957E-01  0.51100000000E-03 0.  1.
</event>
<event>
 8    1  0.1078274E+005  0.1043930E+01  0.7957747E-01            NaN
         13   -1    0    0    0    0  0.00000000000E+00  0.00000000000E+00  0.74505805969E-08  0.10566000000E+00  0.10566000000E+00 0.  1.
     999900   -1    0    0    0    0 -0.00000000000E+00 -0.00000000000E+00 -0.74505805969E-08  0.93827000000E+00  0.93827000000E+00 0. -1.
     999902    2    1    2    0    0  0.22609772223E-01 -0.12519876643E-01 -0.29256818099E-02  0.10179202187E+01  0.10175878649E+01 0.  0.
     999903    2    3    3    0    0 -0.88347458836E-01 -0.15664508133E-01  0.86758589697E-01  0.12642447308E+00  0.20135645269E-01 0.  0.
         14    1    1    2    0    0 -0.22609772223E-01  0.12519876643E-01  0.29256818099E-02  0.26009781336E-01  0.00000000000E+00 0. -1.
     999901    1    3    3    0    0  0.11095723106E+00  0.31446314905E-02 -0.89684271507E-01  0.89149574558E+00  0.88000000000E+00 0. -1.
        -11    1    4    4    0    0 -0.11738689850E-01  0.66482814873E-03  0.21334098509E-01  0.24364804864E-01  0.51100000000E-03 0. -1.
         11    1    4    4    0    0 -0.76608768986E-01 -0.16329336282E-01  0.65424491188E-01  0.10205966822E+00  0.51100000000E-03 0.  1.
</event>
<event>
 8    1  0.1078274E+005  0.1043930E+01  0.7957747E-01            NaN
         13   -1    0    0    0    0  0.00000000000E+00  0.00000000000E+00  0.74505805969E-08  0.10566000000E+00  0.10566000000E+00 0. -1.
     999900   -1    0    0    0    0 -0.00000000000E+00 -0.00000000000E+00 -0.74505805969E-08  0.93827000000E+00  0.93827000000E+00 0.  1.
     999902    2    1    2    0    0 -0.18846929579E-01 -0.11118285226E-01  0.38222813473E-02  0.10217166514E+01  0.10214751504E+01 0.  0.
     999903    2    3    3    0    0 -0.88727629881E-01 -0.50295561540E-01 -0.84454422811E-01  0.13367895640E+00  0.18310599050E-01 0.  0.
         14    1    1    2    0    0  0.18846929579E-01  0.11118285226E-01 -0.38222813473E-02  0.22213348592E-01  0.00000000000E+00 0. -1.
     999901    1    3    3    0    0  0.69880700301E-01  0.39177276314E-01  0.88276704159E-01  0.88803769501E+00  0.88000000000E+00 0. -1.
        -11    1    4    4    0    0 -0.41377146793E-01 -0.24079275890E-01 -0.51470283112E-01  0.70294601277E-01  0.51100000000E-03 0.  1.
         11    1    4    4    0    0 -0.47350483088E-01 -0.26216285650E-01 -0.32984139700E-01  0.63384355126E-01  0.51100000000E-03 0. -1.
</event>
<event>
 8    1  0.1078274E+005  0.1043930E+01  0.7957747E-01            NaN
         13   -1    0    0    0    0  0.00000000000E+00  0.00000000000E+00  0.74505805969E-08  0.10566000000E+00  0.10566000000E+00 0.  1.
     999900   -1    0    0    0    0 -0.00000000000E+00 -0.00000000000E+00 -0.74505805969E-08  0.93827000000E+00  0.93827000000E+00 0. -1.
     999902    2    1    2    0    0  0.41763548959E-02  0.90621197887E-02 -0.27294670080E-01  0.10148686344E+01  0.10144524543E+01 0.  0.
     999903    2    3    3    0    0 -0.10124244246E-02  0.10500532464E+00  0.64588340098E-01  0.12488295500E+00  0.19923743799E-01 0.  0.
         14    1    1    2    0    0 -0.41763548959E-02 -0.90621197887E-02  0.27294670080E-01  0.29061365591E-01  0.00000000000E+00 0.  1.
     999901    1    3    3    0    0  0.51887793205E-02 -0.95943204854E-01 -0.91883010178E-01  0.88998567941E+00  0.88000000000E+00 0. -1.
        -11    1    4    4    0    0  0.31198508821E-02  0.47146343420E-01  0.18309210392E-01  0.50675432644E-01  0.51100000000E-03 0. -1.
         11    1    4    4    0    0 -0.41322753067E-02  0.57858981223E-01  0.46279129706E-01  0.74207522359E-01  0.51100000000E-03 0.  1.
</event>
<event>
 8    1  0.1078274E+005  0.1043930E+01  0.7957747E-01            NaN
         13   -1    0    0    0    0  0.00000000000E+00  0.00000000000E+00  0.74505805969E-08  0.10566000000E+00  0.10566000000E+00 0. -1.
     999900   -1    0    0    0    0 -0.00000000000E+00 -0.00000000000E+00 -0.74505805969E-08  0.93827000000E+00  0.93827000000E+00 0. -1.
     999902    2    1    2    0    0 -0.79990045353E-02 -0.98176725621E-02  0.16939048176E-01  0.10227804818E+01  0.10225617887E+01 0.  0.
     999903    2    3    3    0    0 -0.12949319756E+00 -0.23939266073E-01  0.16414157702E-01  0.13432084068E+00  0.20762634526E-01 0.  0.
         14    1    1    2    0    0  0.79990045353E-02  0.98176725621E-02 -0.16939048176E-01  0.21149518226E-01  0.00000000000E+00 0.  1.
     999901    1    3    3    0    0  0.12149419303E+00  0.14121593511E-01  0.52489047441E-03  0.88845964109E+00  0.88000000000E+00 0. -1.
        -11    1    4    4    0    0 -0.96834509860E-01 -0.17774026945E-01  0.30657019987E-02  0.98501258791E-01  0.51100000000E-03 0. -1.
         11    1    4    4    0    0 -0.32658687704E-01 -0.61652391282E-02  0.13348455703E-01  0.35819581889E-01  0.51100000000E-03 0.  1.
</event>
<event>
 8    1  0.1078274E+005  0.1043930E+01  0.7957747E-01            NaN
         13   -1    0    0    0    0  0.00000000000E+00  0.00000000000E+00  0.74505805969E-08  0.10566000000E+00  0.10566000000E+00 0.  1.
     999900   -1    0    0    0    0 -0.00000000000E+00 -0.00000000000E+00 -0.74505805969E-08  0.93827000000E+00  0.93827000000E+00 0. -1.
     999902    2    1    2    0    0  0.20342230286E-02  0.22116864165E-01  0.91722873668E-02  0.10199003392E+01  0.10196172209E+01 0.  0.
     999903    2    3    3    0    0 -0.95730365549E-01  0.17326416275E-01  0.85699321288E-01  0.13117245614E+00  0.19933188165E-01 0.  0.
         14    1    1    2    0    0 -0.20342230286E-02 -0.22116864165E-01 -0.91722873668E-02  0.24029660825E-01  0.00000000000E+00 0. -1.
     999901    1    3    3    0    0  0.97764588577E-01  0.47904478897E-02 -0.76527033922E-01  0.88872788304E+00  0.88000000000E+00 0. -1.
        -11    1    4    4    0    0 -0.85929189100E-01  0.16200689643E-01  0.67505500985E-01  0.11046964139E+00  0.51100000000E-03 0. -1.
         11    1    4    4    0    0 -0.98011764491E-02  0.11257266319E-02  0.18193820304E-01  0.20702814748E-01  0.51100000000E-03 0.  1.
</event>
<event>
 8    1  0.1078274E+005  0.1043930E+01  0.7957747E-01            NaN
         13   -1    0    0    0    0  0.00000000000E+00  0.00000000000E+00  0.74505805969E-08  0.10566000000E+00  0.10566000000E+00 0. -1.
     999900   -1    0    0    0    0 -0.00000000000E+00 -0.00000000000E+00 -0.74505805969E-08  0.93827000000E+00  0.93827000000E+00 0.  1.
     999902    2    1    2    0    0  0.16393619731E-01 -0.16742521453E-01  0.31956287293E-02  0.10202810077E+01  0.10200068921E+01 0.  0.
     999903    2    3    3    0    0 -0.50449399702E-01  0.10321769239E+00  0.53507430408E-01  0.12821053992E+00  0.19387199000E-01 0.  0.
         14    1    1    2    0    0 -0.16393619731E-01  0.16742521453E-01 -0.31956287293E-02  0.23648992271E-01  0.00000000000E+00 0.  1.
     999901    1    3    3    0    0  0.66843019432E-01 -0.11996021384E+00 -0.50311801679E-01  0.89207046781E+00  0.88000000000E+00 0.  1.
        -11    1    4    4    0    0 -0.20228491157E-01  0.51175503210E-01  0.16051290296E-01  0.57323895755E-01  0.51100000000E-03 0. -1.
         11    1    4    4    0    0 -0.30220908544E-01  0.52042189178E-01  0.37456140112E-01  0.70886644163E-01  0.51100000000E-03 0.  1.
</event>
<event>
 8    1  0.1078274E+005  0.1043930E+01  0.7957747E-01            NaN
         13   -1    0    0    0    0  0.00000000000E+00  0.00000000000E+00  0.74505805969E-08  0.10566000000E+00  0.10566000000E+00 0.  1.
     999900   -1    0    0    0    0 -0.00000000000E+00 -0.00000000000E+00 -0.74505805969E-08  0.93827000000E+00  0.93827000000E+00 0. -1.
     999902    2    1    2    0    0 -0.97173875804E-03  0.48725433624E-02  0.21792211276E-01  0.10215785699E+01  0.10213340237E+01 0.  0.
     999903    2    3    3    0    0  0.13176843912E-01 -0.10212152456E+00  0.81694006745E-01  0.13296384008E+00  0.20075782340E-01 0.  0.
         14    1    1    2    0    0  0.97173875804E-03 -0.48725433624E-02 -0.21792211276E-01  0.22351430096E-01  0.00000000000E+00 0. -1.
     999901    1    3    3    0    0 -0.14148582670E-01  0.10699406792E+00 -0.59901795469E-01  0.88861472983E+00  0.88000000000E+00 0. -1.
        -11    1    4    4    0    0  0.95696794483E-02 -0.31282829731E-01  0.35701072037E-01  0.48425425825E-01  0.51100000000E-03 0.  1.
         11    1    4    4    0    0  0.36071644636E-02 -0.70838694829E-01  0.45992934708E-01  0.84538414254E-01  0.51100000000E-03 0. -1.
</event>
<event>
 8    1  0.1078274E+005  0.1043930E+01  0.7957747E-01            NaN
         13   -1    0    0    0    0  0.00000000000E+00  0.00000000000E+00  0.74505805969E-08  0.10566000000E+00  0.10566000000E+00 0.  1.
     999900   -1    0    0    0    0 -0.00000000000E+00 -0.00000000000E+00 -0.74505805969E-08  0.93827000000E+00  0.93827000000E+00 0. -1.
     999902    2    1    2    0    0 -0.22994383862E-01 -0.51394196535E-02  0.66820324459E-02  0.10194390857E+01  0.10191448595E+01 0.  0.
     999903    2    3    3    0    0 -0.61690804481E-01  0.89605227506E-01 -0.68851576238E-01  0.13029382923E+00  0.20027237241E-01 0.  0.
         14    1    1    2    0    0  0.22994383862E-01  0.51394196535E-02 -0.66820324459E-02  0.24490914258E-01  0.00000000000E+00 0. -1.
     999901    1    3    3    0    0  0.38696420618E-01 -0.94744647159E-01  0.75533608684E-01  0.88914525651E+00  0.88000000000E+00 0. -1.
        -11    1    4    4    0    0 -0.54613842999E-01  0.75770164057E-01 -0.50291024854E-01  0.10608127973E+00  0.51100000000E-03 0.  1.
         11    1    4    4    0    0 -0.70769614815E-02  0.13835063449E-01 -0.18560551384E-01  0.24212549497E-01  0.51100000000E-03 0. -1.
</event>
<event>
 8    1  0.1078274E+005  0.1043930E+01  0.7957747E-01            NaN
         13   -1    0    0    0    0  0.00000000000E+00  0.00000000000E+00  0.74505805969E-08  0.10566000000E+00  0.10566000000E+00 0. -1.
     999900   -1    0    0    0    0 -0.00000000000E+00 -0.00000000000E+00 -0.74505805969E-08  0.93827000000E+00  0.93827000000E+00 0.  1.
     999902    2    1    2    0    0  0.18408246460E-01 -0.14159873827E-01  0.37103437075E-02  0.10204112370E+01  0.10201401670E+01 0.  0.
     999903    2    3    3    0    0  0.11664902699E-01  0.99976768290E-01 -0.78887440692E-01  0.12917892171E+00  0.18235716666E-01 0.  0.
         14    1    1    2    0    0 -0.18408246460E-01  0.14159873827E-01 -0.37103437075E-02  0.23518763041E-01  0.00000000000E+00 0. -1.
     999901    1    3    3    0    0  0.67433437613E-02 -0.11413664212E+00  0.82597784400E-01  0.89123231525E+00  0.88000000000E+00 0. -1.
        -11    1    4    4    0    0  0.13422469633E-01  0.39236231815E-01 -0.29952581769E-01  0.51157236572E-01  0.51100000000E-03 0.  1.
         11    1    4    4    0    0 -0.17575669336E-02  0.60740536474E-01 -0.48934858923E-01  0.78021685137E-01  0.51100000000E-03 0. -1.
</event>
<event>
 8    1  0.1078274E+005  0.1043930E+01  0.7957747E-01            NaN
         13   -1    0    0    0    0  0.00000000000E+00  0.00000000000E+00  0.74505805969E-08  0.10566000000E+00  0.10566000000E+00 0. -1.
     999900   -1    0    0    0    0 -0.00000000000E+00 -0.00000000000E+00 -0.74505805969E-08  0.93827000000E+00  0.93827000000E+00 0.  1.
     999902    2    1    2    0    0  0.87688122130E-02 -0.20661002709E-01 -0.75234047448E-02  0.10202578493E+01  0.10199831902E+01 0.  0.
     999903    2    3    3    0    0  0.88608068394E-01  0.99184887728E-02  0.93075042957E-01  0.13040985114E+00  0.19849419329E-01 0.  0.
         14    1    1    2    0    0 -0.87688122130E-02  0.20661002709E-01  0.75234047448E-02  0.23672150716E-01  0.00000000000E+00 0. -1.
     999901    1    3    3    0    0 -0.79839256181E-01 -0.30579491482E-01 -0.10059844770E+00  0.88984799815E+00  0.88000000000E+00 0.  1.
        -11    1    4    4    0    0  0.22331208472E-01  0.61143656636E-02  0.13607575903E-01  0.26860669803E-01  0.51100000000E-03 0. -1.
         11    1    4    4    0    0  0.66276859922E-01  0.38041231092E-02  0.79467467054E-01  0.10354918133E+00  0.51100000000E-03 0.  1.
</event>
<event>
 8    1  0.1078274E+005  0.1043930E+01  0.7957747E-01            NaN
         13   -1    0    0    0    0  0.00000000000E+00  0.00000000000E+00  0.74505805969E-08  0.10566000000E+00  0.10566000000E+00 0. -1.
     999900   -1    0    0    0    0 -0.00000000000E+00 -0.00000000000E+00 -0.74505805969E-08  0.93827000000E+00  0.93827000000E+00 0.  1.
     999902    2    1    2    0    0 -0.18546521489E-01  0.82779295428E-02  0.11780287756E-01  0.10204508016E+01  0.10201806535E+01 0.  0.
     999903    2    3    3    0    0 -0.40077962541E-01  0.19939355913E-01 -0.12060038704E+00  0.13021249932E+00  0.20174752320E-01 0.  0.
         14    1    1    2    0    0  0.18546521489E-01 -0.82779295428E-02 -0.11780287756E-01  0.23479198378E-01  0.00000000000E+00 0.  1.
     999901    1    3    3    0    0  0.21531441052E-01 -0.11661426370E-01  0.13238067479E+00  0.89023830230E+00  0.88000000000E+00 0. -1.
        -11    1    4    4    0    0 -0.79305388790E-02  0.14102733300E-01 -0.46147943364E-01  0.48904747532E-01  0.51100000000E-03 0. -1.
         11    1    4    4    0    0 -0.32147423662E-01  0.58366226123E-02 -0.74452443674E-01  0.81307751793E-01  0.51100000000E-03 0.  1.
</event>
<event>
 8    1  0.1078274E+005  0.1043930E+01  0.7957747E-01            NaN
         13   -1    0    0    0    0  0.00000000000E+00  0.00000000000E+00  0.74505805969E-08  0.10566000000E+00  0.10566000000E+00 0.  1.
     999900   -1    0    0    0    0 -0.00000000000E+00 -0.00000000000E+00 -0.74505805969E-08  0.93827000000E+00  0.93827000000E+00 0.  1.
     999902    2    1    2    0    0  0.47622406882E-02 -0.65434771320E-02  0.20870163291E-01  0.10215456361E+01  0.10213003608E+01 0.  0.
     999903    2    3    3    0    0 -0.26381810072E-01 -0.55746171364E-01  0.11762808162E+00  0.13432922975E+00  0.20108228568E-01 0.  0.
         14    1    1    2    0    0 -0.47622406882E-02  0.65434771320E-02 -0.20870163291E-01  0.22384363854E-01  0.00000000000E+00 0. -1.
     999901    1    3    3    0    0  0.31144050760E-01  0.49202694232E-01 -0.96757918327E-01  0.88721640639E+00  0.88000000000E+00 0.  1.
        -11    1    4    4    0    0 -0.12445540585E-01 -0.79086530760E-02  0.32448558478E-01  0.35645593588E-01  0.51100000000E-03 0.  1.
         11    1    4    4    0    0 -0.13936269486E-01 -0.47837518288E-01  0.85179523140E-01  0.98683636164E-01  0.51100000000E-03 0. -1.
</event>
<event>
 8    1  0.1078274E+005  0.1043930E+01  0.7957747E-01            NaN
         13   -1    0    0    0    0  0.00000000000E+00  0.00000000000E+00  0.74505805969E-08  0.10566000000E+00  0.10566000000E+00 0.  1.
     999900   -1    0    0    0    0 -0.00000000000E+00 -0.00000000000E+00 -0.74505805969E-08  0.93827000000E+00  0.93827000000E+00 0.  1.
     999902    2    1    2    0    0  0.10822646543E-01  0.78197966745E-02  0.18802631255E-01  0.10208688240E+01  0.10206083176E+01 0.  0.
     999903    2    3    3    0    0 -0.18527399455E-01  0.63329984446E-01 -0.10982867242E+00  0.12930344866E+00  0.17409568922E-01 0.  0.
         14    1    1    2    0    0 -0.10822646543E-01 -0.78197966745E-02 -0.18802631255E-01  0.23061176040E-01  0.00000000000E+00 0. -1.
     999901    1    3    3    0    0  0.29350045999E-01 -0.55510187772E-01  0.12863130367E+00  0.89156537530E+00  0.88000000000E+00 0. -1.
        -11    1    4    4    0    0  0.13215162228E-02  0.19674105643E-01 -0.39894468775E-01  0.44504455932E-01  0.51100000000E-03 0.  1.
         11    1    4    4    0    0 -0.19848915678E-01  0.43655878803E-01 -0.69934203643E-01  0.84798992729E-01  0.51100000000E-03 0. -1.
</event>
<event>
 8    1  0.1078274E+005  0.1043930E+01  0.7957747E-01            NaN
         13   -1    0    0    0    0  0.00000000000E+00  0.00000000000E+00  0.74505805969E-08  0.10566000000E+00  0.10566000000E+00 0. -1.
     999900   -1    0    0    0    0 -0.00000000000E+00 -0.00000000000E+00 -0.74505805969E-08  0.93827000000E+00  0.93827000000E+00 0. -1.
     999902    2    1    2    0    0 -0.17942694303E-01 -0.11737038560E-01 -0.97739763257E-02  0.10203667030E+01  0.10200945935E+01 0.  0.
     999903    2    3    3    0    0  0.12118880344E-01 -0.60792909909E-01 -0.11501456419E+00  0.13223058835E+00  0.20345352391E-01 0.  0.
         14    1    1    2    0    0  0.17942694303E-01  0.11737038560E-01  0.97739763257E-02  0.23563297015E-01  0.00000000000E+00 0. -1.
     999901    1    3    3    0    0 -0.30061574647E-01  0.49055871350E-01  0.10524058786E+00  0.88813611463E+00  0.88000000000E+00 0.  1.
        -11    1    4    4    0    0  0.16719095208E-01 -0.56226601974E-01 -0.10537763327E+00  0.12060541293E+00  0.51100000000E-03 0. -1.
         11    1    4    4    0    0 -0.46002148641E-02 -0.45663079353E-02 -0.96369309224E-02  0.11625175421E-01  0.51100000000E-03 0.  1.
</event>
<event>
 8    1  0.1078274E+005  0.1043930E+01  0.7957747E-01            NaN
         13   -1    0    0    0    0  0.00000000000E+00  0.00000000000E+00  0.74505805969E-08  0.10566000000E+00  0.10566000000E+00 0.  1.
     999900   -1    0    0    0    0 -0.00000000000E+00 -0.00000000000E+00 -0.74505805969E-08  0.93827000000E+00  0.93827000000E+00 0. -1.
     999902    2    1    2    0    0 -0.40865598693E-03 -0.11250822054E-01 -0.21420172892E-01  0.10197314091E+01  0.10194442480E+01 0.  0.
     999903    2    3    3    0    0 -0.75304999796E-01  0.10085221274E+00 -0.22116560656E-01  0.12946345070E+00  0.20727542135E-01 0.  0.
         14    1    1    2    0    0  0.40865598693E-03  0.11250822054E-01  0.21420172892E-01  0.24198590937E-01  0.00000000000E+00 0.  1.
     999901    1    3    3    0    0  0.74896343809E-01 -0.11210303480E+00  0.69638776384E-03  0.89026795836E+00  0.88000000000E+00 0. -1.
        -11    1    4    4    0    0 -0.18088985102E-01  0.11553008306E-01 -0.48261366018E-02  0.22005365219E-01  0.51100000000E-03 0. -1.
         11    1    4    4    0    0 -0.57216014694E-01  0.89299204438E-01 -0.17290424054E-01  0.10745808548E+00  0.51100000000E-03 0.  1.
</event>
<event>
 8    1  0.1078274E+005  0.1043930E+01  0.7957747E-01            NaN
         13   -1    0    0    0    0  0.00000000000E+00  0.00000000000E+00  0.74505805969E-08  0.10566000000E+00  0.10566000000E+00 0. -1.
     999900   -1    0    0    0    0 -0.00000000000E+00 -0.00000000000E+00 -0.74505805969E-08  0.93827000000E+00  0.93827000000E+00 0. -1.
     999902    2    1    2    0    0  0.19431366233E-01  0.55668812257E-02 -0.11041678410E-01  0.10208977005E+01  0.10206378535E+01 0.  0.
     999903    2    3    3    0    0 -0.87050352035E-01 -0.93135925972E-01 -0.42693078884E-02  0.12897479713E+00  0.19084203115E-01 0.  0.
         14    1    1    2    0    0 -0.19431366233E-01 -0.55668812257E-02  0.11041678410E-01  0.23032299546E-01  0.00000000000E+00 0. -1.
     999901    1    3    3    0    0  0.10648171827E+00  0.98702807198E-01 -0.67723705216E-02  0.89192290333E+00  0.88000000000E+00 0.  1.
        -11    1    4    4    0    0 -0.32813042430E-01 -0.47688338665E-01  0.20878243957E-02  0.57926621944E-01  0.51100000000E-03 0.  1.
         11    1    4    4    0    0 -0.54237309605E-01 -0.45447587307E-01 -0.63571322841E-02  0.71048175185E-01  0.51100000000E-03 0. -1.
</event>
<event>
 8    1  0.1078274E+005  0.1043930E+01  0.7957747E-01            NaN
         13   -1    0    0    0    0  0.00000000000E+00  0.00000000000E+00  0.74505805969E-08  0.10566000000E+00  0.10566000000E+00 0.  1.
     999900   -1    0    0    0    0 -0.00000000000E+00 -0.00000000000E+00 -0.74505805969E-08  0.93827000000E+00  0.93827000000E+00 0.  1.
     999902    2    1    2    0    0  0.12919689133E-01  0.87833781103E-03  0.20117214117E-01  0.10200052816E+01  0.10197246601E+01 0.  0.
     999903    2    3    3    0    0 -0.54488084176E-01  0.64037064832E-01 -0.94306704529E-01  0.12780257718E+00  0.19236611555E-01 0.  0.
         14    1    1    2    0    0 -0.12919689133E-01 -0.87833781103E-03 -0.20117214117E-01  0.23924718356E-01  0.00000000000E+00 0. -1.
     999901    1    3    3    0    0  0.67407773309E-01 -0.63158727021E-01  0.11442391865E+00  0.89220270447E+00  0.88000000000E+00 0. -1.
        -11    1    4    4    0    0 -0.27855712687E-01  0.18979461523E-01 -0.32738249434E-01  0.46991645917E-01  0.51100000000E-03 0. -1.
         11    1    4    4    0    0 -0.26632371489E-01  0.45057603309E-01 -0.61568455095E-01  0.80810931259E-01  0.51100000000E-03 0.  1.
</event>
<event>
 8    1  0.1078274E+005  0.1043930E+01  0.7957747E-01            NaN
         13   -1    0    0    0    0  0.00000000000E+00  0.00000000000E+00  0.74505805969E-08  0.10566000000E+00  0.10566000000E+00 0. -1.
     999900   -1    0    0    0    0 -0.00000000000E+00 -0.00000000000E+00 -0.74505805969E-08  0.93827000000E+00  0.93827000000E+00 0.  1.
     999902    2    1    2    0    0 -0.17016985670E-01 -0.84138157400E-02  0.13352798624E-01  0.10207207922E+01  0.10204568919E+01 0.  0.
     999903    2    3    3    0    0  0.12076712304E+00 -0.40476079563E-01  0.95336735065E-02  0.12941442785E+00  0.20837278629E-01 0.  0.
         14    1    1    2    0    0  0.17016985670E-01  0.84138157400E-02 -0.13352798624E-01  0.23209207821E-01  0.00000000000E+00 0.  1.
     999901    1    3    3    0    0 -0.13778410871E+00  0.32062263823E-01  0.38191251172E-02  0.89130636433E+00  0.88000000000E+00 0.  1.
        -11    1    4    4    0    0  0.11008520355E+00 -0.31026080283E-01  0.11731307031E-01  0.11497501635E+00  0.51100000000E-03 0.  1.
         11    1    4    4    0    0  0.10681919488E-01 -0.94499992803E-02 -0.21976335242E-02  0.14439411500E-01  0.51100000000E-03 0. -1.
</event>
<event>
 8    1  0.1078274E+005  0.1043930E+01  0.7957747E-01            NaN
         13   -1    0    0    0    0  0.00000000000E+00  0.00000000000E+00  0.74505805969E-08  0.10566000000E+00  0.10566000000E+00 0.  1.
     999900   -1    0    0    0    0 -0.00000000000E+00 -0.00000000000E+00 -0.74505805969E-08  0.93827000000E+00  0.93827000000E+00 0. -1.
     999902    2    1    2    0    0  0.24141433928E-01 -0.84691433567E-02 -0.39328858635E-02  0.10180455875E+01  0.10177164710E+01 0.  0.
     999903    2    3    3    0    0 -0.86715694116E-01  0.16206152614E-01 -0.88820820024E-01  0.12669597343E+00  0.19505912556E-01 0.  0.
         14    1    1    2    0    0 -0.24141433928E-01  0.84691433567E-02  0.39328858635E-02  0.25884412540E-01  0.00000000000E+00 0. -1.
     999901    1    3    3    0    0  0.11085712804E+00 -0.24675295970E-01  0.84887934160E-01  0.89134961403E+00  0.88000000000E+00 0.  1.
        -11    1    4    4    0    0 -0.47269217325E-01  0.18652986192E-01 -0.49431613858E-01  0.70894699167E-01  0.51100000000E-03 0.  1.
         11    1    4    4    0    0 -0.39446476791E-01 -0.24468335782E-02 -0.39389206165E-01  0.55801274261E-01  0.51100000000E-03 0. -1.
</event>
<event>
 8    1  0.1078274E+005  0.1043930E+01  0.7957747E-01            NaN
         13   -1    0    0    0    0  0.00000000000E+00  0.00000000000E+00  0.74505805969E-08  0.10566000000E+00  0.10566000000E+00 0. -1.
     999900   -1    0    0    0    0 -0.00000000000E+00 -0.00000000000E+00 -0.74505805969E-08  0.93827000000E+00  0.93827000000E+00 0.  1.
     999902    2    1    2    0    0  0.28504021939E-02  0.20232365202E-01 -0.11809339023E-01  0.10203305533E+01  0.10200575985E+01 0.  0.
     999903    2    3    3    0    0 -0.72356359327E-01  0.39156196002E-01 -0.10201637688E+00  0.13232634275E+00  0.18283036211E-01 0.  0.
         14    1    1    2    0    0 -0.28504021939E-02 -0.20232365202E-01  0.11809339023E-01  0.23599446656E-01  0.00000000000E+00 0. -1.
     999901    1    3    3    0    0  0.75206761521E-01 -0.18923830801E-01  0.90207037860E-01  0.88800421059E+00  0.88000000000E+00 0. -1.
        -11    1    4    4    0    0 -0.39993999332E-01  0.30224681006E-01 -0.53430441291E-01  0.73267485982E-01  0.51100000000E-03 0.  1.
         11    1    4    4    0    0 -0.32362359995E-01  0.89315149962E-02 -0.48585935592E-01  0.59058856769E-01  0.51100000000E-03 0. -1.
</event>
<event>
 8    1  0.1078274E+005  0.1043930E+01  0.7957747E-01            NaN
         13   -1    0    0    0    0  0.00000000000E+00  0.00000000000E+00  0.74505805969E-08  0.10566000000E+00  0.10566000000E+00 0.  1.
     999900   -1    0    0    0    0 -0.00000000000E+00 -0.00000000000E+00 -0.74505805969E-08  0.93827000000E+00  0.93827000000E+00 0.  1.
     999902    2    1    2    0    0  0.14096008178E-01 -0.15848732731E-01 -0.71996777490E-02  0.10215310015E+01  0.10212854017E+01 0.  0.
     999903    2    3    3    0    0 -0.82025720433E-01 -0.77477211851E-02 -0.10039472348E+00  0.13136790986E+00  0.19753005948E-01 0.  0.
         14    1    1    2    0    0 -0.14096008178E-01  0.15848732731E-01  0.71996777490E-02  0.22398998536E-01  0.00000000000E+00 0.  1.
     999901    1    3    3    0    0  0.96121728611E-01 -0.81010115455E-02  0.93195045728E-01  0.89016309160E+00  0.88000000000E+00 0. -1.
        -11    1    4    4    0    0 -0.46978224185E-01  0.21136467576E-02 -0.67698713559E-01  0.82430564651E-01  0.51100000000E-03 0.  1.
         11    1    4    4    0    0 -0.35047496247E-01 -0.98613679426E-02 -0.32696009918E-01  0.48937345213E-01  0.51100000000E-03 0. -1.
</event>
<event>
 8    1  0.1078274E+005  0.1043930E+01  0.7957747E-01            NaN
         13   -1    0    0    0    0  0.00000000000E+00  0.00000000000E+00  0.74505805969E-08  0.10566000000E+00  0.10566000000E+00 0.  1.
     999900   -1    0    0    0    0 -0.00000000000E+00 -0.00000000000E+00 -0.74505805969E-08  0.93827000000E+00  0.93827000000E+00 0.  1.
     999902    2    1    2    0    0 -0.20986453712E-01  0.34198789991E-02  0.94246008668E-02  0.10206716700E+01  0.10204066386E+01 0.  0.
     999903    2    3    3    0    0 -0.95007746157E-01  0.85604568432E-01  0.33312786679E-01  0.13342642753E+00  0.18391732929E-01 0.  0.
         14    1    1    2    0    0  0.20986453712E-01 -0.34198789991E-02 -0.94246008668E-02  0.23258329976E-01  0.00000000000E+00 0. -1.
     999901    1    3    3    0    0  0.74021292445E-01 -0.82184689433E-01 -0.23888185812E-01  0.88724524250E+00  0.88000000000E+00 0. -1.
        -11    1    4    4    0    0 -0.31316618110E-01  0.18125929151E-01  0.58559845149E-02  0.36658335383E-01  0.51100000000E-03 0. -1.
         11    1    4    4    0    0 -0.63691128047E-01  0.67478639281E-01  0.27456802164E-01  0.96768092144E-01  0.51100000000E-03 0.  1.
</event>
<event>
 8    1  0.1078274E+005  0.1043930E+01  0.7957747E-01            NaN
         13   -1    0    0    0    0  0.00000000000E+00  0.00000000000E+00  0.74505805969E-08  0.10566000000E+00  0.10566000000E+00 0.  1.
     999900   -1    0    0    0    0 -0.00000000000E+00 -0.00000000000E+00 -0.74505805969E-08  0.93827000000E+00  0.93827000000E+00 0.  1.
     999902    2    1    2    0    0  0.11772527494E-01  0.21531627720E-01  0.69754323959E-03  0.10193802553E+01  0.10190845966E+01 0.  0.
     999903    2    3    3    0    0 -0.11556249940E+00  0.95424055419E-02  0.51830813599E-01  0.12866561987E+00  0.20558689785E-01 0.  0.
         14    1    1    2    0    0 -0.11772527494E-01 -0.21531627720E-01 -0.69754323959E-03  0.24549744651E-01  0.00000000000E+00 0. -1.
     999901    1    3    3    0    0  0.12733502690E+00  0.11989222178E-01 -0.51133270359E-01  0.89071463548E+00  0.88000000000E+00 0.  1.
        -11    1    4    4    0    0 -0.85964204956E-01 -0.17281899736E-02  0.40271087411E-01  0.94946578540E-01  0.51100000000E-03 0.  1.
         11    1    4    4    0    0 -0.29598294448E-01  0.11270595515E-01  0.11559726188E-01  0.33719041327E-01  0.51100000000E-03 0. -1.
</event>
<event>
 8    1  0.1078274E+005  0.1043930E+01  0.7957747E-01            NaN
         13   -1    0    0    0    0  0.00000000000E+00  0.00000000000E+00  0.74505805969E-08  0.10566000000E+00  0.10566000000E+00 0. -1.
     999900   -1    0    0    0    0 -0.00000000000E+00 -0.00000000000E+00 -0.74505805969E-08  0.93827000000E+00  0.93827000000E+00 0.  1.
     999902    2    1    2    0    0 -0.17355096490E-02 -0.11837158900E-01 -0.18680691741E-01  0.10217467052E+01  0.10215058644E+01 0.  0.
     999903    2    3    3    0    0  0.33263370443E-01 -0.12164277548E+00  0.35715396155E-01  0.13256667313E+00  0.19872510210E-01 0.  0.
         14    1    1    2    0    0  0.17355096490E-02  0.11837158900E-01  0.18680691741E-01  0.22183294807E-01  0.00000000000E+00 0. -1.
     999901    1    3    3    0    0 -0.34998880092E-01  0.10980561658E+00 -0.54396087896E-01  0.88918003206E+00  0.88000000000E+00 0.  1.
        -11    1    4    4    0    0  0.28360945890E-01 -0.68912609724E-01  0.24363709337E-01  0.78403714736E-01  0.51100000000E-03 0.  1.
         11    1    4    4    0    0  0.49024245529E-02 -0.52730165759E-01  0.11351686818E-01  0.54162958395E-01  0.51100000000E-03 0. -1.
</event>
<event>
 8    1  0.1078274E+005  0.1043930E+01  0.7957747E-01            NaN
         13   -1    0    0    0    0  0.00000000000E+00  0.00000000000E+00  0.74505805969E-08  0.10566000000E+00  0.10566000000E+00 0.  1.
     999900   -1    0    0    0    0 -0.00000000000E+00 -0.00000000000E+00 -0.74505805969E-08  0.93827000000E+00  0.93827000000E+00 0. -1.
     999902    2    1    2    0    0 -0.18822824755E-01  0.14737928513E-01 -0.70793844246E-03  0.10200133438E+01  0.10197329136E+01 0.  0.
     999903    2    3    3    0    0  0.22584598278E-01  0.11922103737E+00 -0.47165371821E-01  0.13164991147E+00  0.19580782979E-01 0.  0.
         14    1    1    2    0    0  0.18822824755E-01 -0.14737928513E-01  0.70793844246E-03  0.23916656235E-01  0.00000000000E+00 0. -1.
     999901    1    3    3    0    0 -0.41407423033E-01 -0.10448310885E+00  0.46457433379E-01  0.88836343229E+00  0.88000000000E+00 0. -1.
        -11    1    4    4    0    0  0.13384922141E-01  0.26229315016E-01 -0.10506278659E-01  0.31269411878E-01  0.51100000000E-03 0. -1.
         11    1    4    4    0    0  0.91996761367E-02  0.92991722349E-01 -0.36659093162E-01  0.10038049960E+00  0.51100000000E-03 0.  1.
</event>
<event>
 8    1  0.1078274E+005  0.1043930E+01  0.7957747E-01            NaN
         13   -1    0    0    0    0  0.00000000000E+00  0.00000000000E+00  0.74505805969E-08  0.10566000000E+00  0.10566000000E+00 0. -1.
     999900   -1    0    0    0    0 -0.00000000000E+00 -0.00000000000E+00 -0.74505805969E-08  0.93827000000E+00  0.93827000000E+00 0. -1.
     999902    2    1    2    0    0  0.20437152806E-01  0.96229489343E-02  0.16209363458E-02  0.10212825764E+01  0.10210314369E+01 0.  0.
     999903    2    3    3    0    0  0.26239627687E-01  0.12179621747E+00  0.42410195920E-01  0.13320584853E+00  0.20550832432E-01 0.  0.
         14    1    1    2    0    0 -0.20437152806E-01 -0.96229489343E-02 -0.16209363458E-02  0.22647423598E-01  0.00000000000E+00 0.  1.
     999901    1    3    3    0    0 -0.58024748809E-02 -0.11217326854E+00 -0.40789259574E-01  0.88807672787E+00  0.88000000000E+00 0. -1.
        -11    1    4    4    0    0  0.12289206708E-01  0.26217798414E-01  0.39061449267E-02  0.29221852172E-01  0.51100000000E-03 0.  1.
         11    1    4    4    0    0  0.13950420978E-01  0.95578419057E-01  0.38504050993E-01  0.10398399636E+00  0.51100000000E-03 0. -1.
</event>
<event>
 8    1  0.1078274E+005  0.1043930E+01  0.7957747E-01            NaN
         13   -1    0    0    0    0  0.00000000000E+00  0.00000000000E+00  0.74505805969E-08  0.10566000000E+00  0.10566000000E+00 0. -1.
     999900   -1    0    0    0    0 -0.00000000000E+00 -0.00000000000E+00 -0.74505805969E-08  0.93827000000E+00  0.93827000000E+00 0. -1.
     999902    2    1    2    0    0  0.59527789240E-02  0.13159922485E-01 -0.11286826049E-01  0.10255993814E+01  0.10254355560E+01 0.  0.
     999903    2    3    3    0    0  0.59549119764E-01  0.41870404076E-01  0.11186591995E+00  0.13494599293E+00  0.19930091803E-01 0.  0.
         14    1    1    2    0    0 -0.59527789240E-02 -0.13159922485E-01  0.11286826049E-01  0.18330618620E-01  0.00000000000E+00 0. -1.
     999901    1    3    3    0    0 -0.53596340840E-01 -0.28710481590E-01 -0.12315274600E+00  0.89065338845E+00  0.88000000000E+00 0. -1.
        -11    1    4    4    0    0  0.37094461127E-01  0.24721247400E-01  0.84862676645E-01  0.95859658499E-01  0.51100000000E-03 0.  1.
         11    1    4    4    0    0  0.22454658637E-01  0.17149156676E-01  0.27003243309E-01  0.39086334433E-01  0.51100000000E-03 0. -1.
</event>
<event>
 8    1  0.1078274E+005  0.1043930E+01  0.7957747E-01            NaN
         13   -1    0    0    0    0  0.00000000000E+00  0.00000000000E+00  0.74505805969E-08  0.10566000000E+00  0.10566000000E+00 0. -1.
     999900   -1    0    0    0    0 -0.00000000000E+00 -0.00000000000E+00 -0.74505805969E-08  0.93827000000E+00  0.93827000000E+00 0.  1.
     999902    2    1    2    0    0  0.21767991193E-02 -0.24424565341E-01 -0.25580686490E-02  0.10192755570E+01  0.10189773400E+01 0.  0.
     999903    2    3    3    0    0 -0.11426110287E+00 -0.25574772438E-01  0.52186316285E-01  0.12991845451E+00  0.21112190779E-01 0.  0.
         14    1    1    2    0    0 -0.21767991193E-02  0.24424565341E-01  0.25580686490E-02  0.24654443043E-01  0.00000000000E+00 0. -1.
     999901    1    3    3    0    0  0.11643790199E+00  0.11502070970E-02 -0.54744384934E-01  0.88935710245E+00  0.88000000000E+00 0.  1.
        -11    1    4    4    0    0 -0.47897216854E-01 -0.67091434363E-02  0.11129518070E-01  0.49631474706E-01  0.51100000000E-03 0.  1.
         11    1    4    4    0    0 -0.66363886018E-01 -0.18865629002E-01  0.41056798215E-01  0.80286979802E-01  0.51100000000E-03 0. -1.
</event>
<event>
 8    1  0.1078274E+005  0.1043930E+01  0.7957747E-01            NaN
         13   -1    0    0    0    0  0.00000000000E+00  0.00000000000E+00  0.74505805969E-08  0.10566000000E+00  0.10566000000E+00 0.  1.
     999900   -1    0    0    0    0 -0.00000000000E+00 -0.00000000000E+00 -0.74505805969E-08  0.93827000000E+00  0.93827000000E+00 0. -1.
     999902    2    1    2    0    0 -0.13461363158E-01 -0.70532225577E-02  0.18079800338E-01  0.10203114601E+01  0.10200380582E+01 0.  0.
     999903    2    3    3    0    0 -0.10652615198E+00 -0.80597366974E-02 -0.74059226202E-01  0.13061956501E+00  0.12803177972E-01 0.  0.
         14    1    1    2    0    0  0.13461363158E-01  0.70532225577E-02 -0.18079800338E-01  0.23618539895E-01  0.00000000000E+00 0. -1.
     999901    1    3    3    0    0  0.93064788821E-01  0.10065141397E-02  0.92139026540E-01  0.88969189510E+00  0.88000000000E+00 0.  1.
        -11    1    4    4    0    0 -0.73203132293E-01 -0.10763291758E-01 -0.47599210457E-01  0.87980071517E-01  0.51100000000E-03 0.  1.
         11    1    4    4    0    0 -0.33323019686E-01  0.27035550610E-02 -0.26460015745E-01  0.42639493491E-01  0.51100000000E-03 0. -1.
</event>
<event>
 8    1  0.1078274E+005  0.1043930E+01  0.7957747E-01            NaN
         13   -1    0    0    0    0  0.00000000000E+00  0.00000000000E+00  0.74505805969E-08  0.10566000000E+00  0.10566000000E+00 0.  1.
     999900   -1    0    0    0    0 -0.00000000000E+00 -0.00000000000E+00 -0.74505805969E-08  0.93827000000E+00  0.93827000000E+00 0.  1.
     999902    2    1    2    0    0  0.16296928423E-02  0.16604117632E-01 -0.17289888025E-01  0.10199030807E+01  0.10196200279E+01 0.  0.
     999903    2    3    3    0    0  0.12859236689E+00 -0.12832540000E-01  0.81419629085E-02  0.12994082511E+00  0.10846914977E-01 0.  0.
         14    1    1    2    0    0 -0.16296928423E-02 -0.16604117632E-01  0.17289888025E-01  0.24026919257E-01  0.00000000000E+00 0.  1.
     999901    1    3    3    0    0 -0.12696267405E+00  0.29436657631E-01 -0.25431850933E-01  0.88996225564E+00  0.88000000000E+00 0. -1.
        -11    1    4    4    0    0  0.83606072039E-01 -0.13179214023E-01  0.71159558623E-02  0.84938594955E-01  0.51100000000E-03 0. -1.
         11    1    4    4    0    0  0.44986294850E-01  0.34667402377E-03  0.10260070462E-02  0.45002230153E-01  0.51100000000E-03 0.  1.
</event>
<event>
 8    1  0.1078274E+005  0.1043930E+01  0.7957747E-01            NaN
         13   -1    0    0    0    0  0.00000000000E+00  0.00000000000E+00  0.74505805969E-08  0.10566000000E+00  0.10566000000E+00 0. -1.
     999900   -1    0    0    0    0 -0.00000000000E+00 -0.00000000000E+00 -0.74505805969E-08  0.93827000000E+00  0.93827000000E+00 0.  1.
     999902    2    1    2    0    0  0.18798239409E-02  0.23937692848E-01 -0.28929641767E-02  0.10197449609E+01  0.10194581252E+01 0.  0.
     999903    2    3    3    0    0  0.64933249765E-01 -0.71683677503E-01 -0.82385330116E-01  0.12876896947E+00  0.20957775031E-01 0.  0.
         14    1    1    2    0    0 -0.18798239409E-02 -0.23937692848E-01  0.28929641767E-02  0.24185039149E-01  0.00000000000E+00 0. -1.
     999901    1    3    3    0    0 -0.63053425824E-01  0.95621370351E-01  0.79492365940E-01  0.89097599138E+00  0.88000000000E+00 0.  1.
        -11    1    4    4    0    0  0.30734968503E-01 -0.48657130017E-01 -0.51807393613E-01  0.77436565939E-01  0.51100000000E-03 0.  1.
         11    1    4    4    0    0  0.34198281262E-01 -0.23026547486E-01 -0.30577936504E-01  0.51332403530E-01  0.51100000000E-03 0. -1.
</event>
<event>
 8    1  0.1078274E+005  0.1043930E+01  0.7957747E-01            NaN
         13   -1    0    0    0    0  0.00000000000E+00  0.00000000000E+00  0.74505805969E-08  0.10566000000E+00  0.10566000000E+00 0.  1.
     999900   -1    0    0    0    0 -0.00000000000E+00 -0.00000000000E+00 -0.74505805969E-08  0.93827000000E+00  0.93827000000E+00 0. -1.
     999902    2    1    2    0    0  0.21862711928E-01  0.15537039617E-01  0.72648298901E-02  0.10161423134E+01  0.10157622978E+01 0.  0.
     999903    2    3    3    0    0 -0.10757963598E+00  0.51905411784E-01  0.33173263437E-01  0.12555305519E+00  0.19888549714E-01 0.  0.
         14    1    1    2    0    0 -0.21862711928E-01 -0.15537039617E-01 -0.72648298901E-02  0.27787686594E-01  0.00000000000E+00 0. -1.
     999901    1    3    3    0    0  0.12944234791E+00 -0.36368372166E-01 -0.25908433547E-01  0.89058925822E+00  0.88000000000E+00 0. -1.
        -11    1    4    4    0    0 -0.60049025596E-01  0.18608531319E-01  0.13756931379E-01  0.64355863718E-01  0.51100000000E-03 0.  1.
         11    1    4    4    0    0 -0.47530610384E-01  0.33296880465E-01  0.19416332057E-01  0.61197191470E-01  0.51100000000E-03 0. -1.
</event>
<event>
 8    1  0.1078274E+005  0.1043930E+01  0.7957747E-01            NaN
         13   -1    0    0    0    0  0.00000000000E+00  0.00000000000E+00  0.74505805969E-08  0.10566000000E+00  0.10566000000E+00 0. -1.
     999900   -1    0    0    0    0 -0.00000000000E+00 -0.00000000000E+00 -0.74505805969E-08  0.93827000000E+00  0.93827000000E+00 0.  1.
     999902    2    1    2    0    0 -0.19343141031E-01 -0.70673244980E-02  0.13652591300E-01  0.10192217538E+01  0.10189222178E+01 0.  0.
     999903    2    3    3    0    0  0.31787703206E-01  0.12140082723E+00  0.18873918465E-01  0.12840993783E+00  0.19602765294E-01 0.  0.
         14    1    1    2    0    0  0.19343141031E-01  0.70673244980E-02 -0.13652591300E-01  0.24708246189E-01  0.00000000000E+00 0. -1.
     999901    1    3    3    0    0 -0.51130844237E-01 -0.12846815173E+00 -0.52213271649E-02  0.89081181598E+00  0.88000000000E+00 0.  1.
        -11    1    4    4    0    0  0.22537289438E-01  0.91480280698E-01  0.22535603387E-01  0.96874587549E-01  0.51100000000E-03 0.  1.
         11    1    4    4    0    0  0.92504137680E-02  0.29920546532E-01 -0.36616849222E-02  0.31535350277E-01  0.51100000000E-03 0. -1.
</event>
<event>
 8    1  0.1078274E+005  0.1043930E+01  0.7957747E-01            NaN
         13   -1    0    0    0    0  0.00000000000E+00  0.00000000000E+00  0.74505805969E-08  0.10566000000E+00  0.10566000000E+00 0.  1.
     999900   -1    0    0    0    0 -0.00000000000E+00 -0.00000000000E+00 -0.74505805969E-08  0.93827000000E+00  0.93827000000E+00 0. -1.
     999902    2    1    2    0    0  0.22696059618E-01  0.65161347631E-02 -0.34195994053E-02  0.10200707294E+01  0.10197916592E+01 0.  0.
     999903    2    3    3    0    0 -0.69031410315E-01  0.46492900144E-01  0.96461085999E-01  0.12878613856E+00  0.18820281615E-01 0.  0.
         14    1    1    2    0    0 -0.22696059618E-01 -0.65161347631E-02  0.34195994053E-02  0.23859270620E-01  0.00000000000E+00 0. -1.
     999901    1    3    3    0    0  0.91727469933E-01 -0.39976765381E-01 -0.99880685404E-01  0.89128459082E+00  0.88000000000E+00 0.  1.
        -11    1    4    4    0    0 -0.16841995927E-01  0.17086943728E-01  0.38908938489E-01  0.45714145383E-01  0.51100000000E-03 0.  1.
         11    1    4    4    0    0 -0.52189414388E-01  0.29405956416E-01  0.57552147509E-01  0.83071993180E-01  0.51100000000E-03 0. -1.
</event>
<event>
 8    1  0.1078274E+005  0.1043930E+01  0.7957747E-01            NaN
         13   -1    0    0    0    0  0.00000000000E+00  0.00000000000E+00  0.74505805969E-08  0.10566000000E+00  0.10566000000E+00 0. -1.
     999900   -1    0    0    0    0 -0.00000000000E+00 -0.00000000000E+00 -0.74505805969E-08  0.93827000000E+00  0.93827000000E+00 0. -1.
     999902    2    1    2    0    0  0.24125542341E-02 -0.14452049857E-01  0.17426232692E-01  0.10211625726E+01  0.10209087344E+01 0.  0.
     999903    2    3    3    0    0 -0.49396821716E-01 -0.33334946608E-01  0.11683973426E+00  0.13384987718E+00  0.26702087125E-01 0.  0.
         14    1    1    2    0    0 -0.24125542341E-02  0.14452049857E-01 -0.17426232692E-01  0.22767427366E-01  0.00000000000E+00 0.  1.
     999901    1    3    3    0    0  0.51809375950E-01  0.18882896751E-01 -0.99413501570E-01  0.88731269546E+00  0.88000000000E+00 0. -1.
        -11    1    4    4    0    0 -0.21346110587E-01 -0.49096229528E-02  0.22503065671E-01  0.31407163519E-01  0.51100000000E-03 0.  1.
         11    1    4    4    0    0 -0.28050711130E-01 -0.28425323655E-01  0.94336668590E-01  0.10244271366E+00  0.51100000000E-03 0. -1.
</event>
<event>
 8    1  0.1078274E+005  0.1043930E+01  0.7957747E-01            NaN
         13   -1    0    0    0    0  0.00000000000E+00  0.00000000000E+00  0.74505805969E-08  0.10566000000E+00  0.10566000000E+00 0.  1.
     999900   -1    0    0    0    0 -0.00000000000E+00 -0.00000000000E+00 -0.74505805969E-08  0.93827000000E+00  0.93827000000E+00 0.  1.
     999902    2    1    2    0    0  0.62048386766E-02  0.18369690589E-01 -0.13129017377E-01  0.10205138378E+01  0.10202451551E+01 0.  0.
     999903    2    3    3    0    0  0.23020253089E-01 -0.12045024535E+00 -0.35539601088E-01  0.12919124353E+00  0.19726137565E-01 0.  0.
         14    1    1    2    0    0 -0.62048386766E-02 -0.18369690589E-01  0.13129017377E-01  0.23416162209E-01  0.00000000000E+00 0. -1.
     999901    1    3    3    0    0 -0.16815414413E-01  0.13881993594E+00  0.22410583710E-01  0.89132259426E+00  0.88000000000E+00 0. -1.
        -11    1    4    4    0    0  0.95851525813E-02 -0.93972682634E-01 -0.25474848371E-01  0.97836441329E-01  0.51100000000E-03 0. -1.
         11    1    4    4    0    0  0.13435100508E-01 -0.26477562713E-01 -0.10064752717E-01  0.31354802202E-01  0.51100000000E-03 0.  1.
</event>
<event>
 8    1  0.1078274E+005  0.1043930E+01  0.7957747E-01            NaN
         13   -1    0    0    0    0  0.00000000000E+00  0.00000000000E+00  0.74505805969E-08  0.10566000000E+00  0.10566000000E+00 0. -1.
     999900   -1    0    0    0    0 -0.00000000000E+00 -0.00000000000E+00 -0.74505805969E-08  0.93827000000E+00  0.93827000000E+00 0. -1.
     999902    2    1    2    0    0  0.37493582312E-02 -0.18431297198E-01  0.22638878369E-01  0.10144972085E+01  0.10140701636E+01 0.  0.
     999903    2    3    3    0    0  0.10799398408E+00  0.10461572204E-01 -0.58001076021E-01  0.12421380294E+00  0.17111368445E-01 0.  0.
         14    1    1    2    0    0 -0.37493582312E-02  0.18431297198E-01 -0.22638878369E-01  0.29432791532E-01  0.00000000000E+00 0.  1.
     999901    1    3    3    0    0 -0.10424462585E+00 -0.28892869402E-01  0.80639954391E-01  0.89028340553E+00  0.88000000000E+00 0.  1.
        -11    1    4    4    0    0  0.87456658609E-01  0.20386337513E-02 -0.48866282425E-01  0.10020477953E+00  0.51100000000E-03 0. -1.
         11    1    4    4    0    0  0.20537325471E-01  0.84229384529E-02 -0.91347935960E-02  0.24009023402E-01  0.51100000000E-03 0.  1.
</event>
<event>
 8    1  0.1078274E+005  0.1043930E+01  0.7957747E-01            NaN
         13   -1    0    0    0    0  0.00000000000E+00  0.00000000000E+00  0.74505805969E-08  0.10566000000E+00  0.10566000000E+00 0. -1.
     999900   -1    0    0    0    0 -0.00000000000E+00 -0.00000000000E+00 -0.74505805969E-08  0.93827000000E+00  0.93827000000E+00 0.  1.
     999902    2    1    2    0    0  0.27666473264E-02  0.19002024138E-01  0.40831837457E-02  0.10242982999E+01  0.10241101521E+01 0.  0.
     999903    2    3    3    0    0 -0.72677945836E-01 -0.61059485551E-01 -0.90463482423E-01  0.13242341852E+00  0.18492580530E-01 0.  0.
         14    1    1    2    0    0 -0.27666473264E-02 -0.19002024138E-01 -0.40831837457E-02  0.19631700086E-01  0.00000000000E+00 0. -1.
     999901    1    3    3    0    0  0.75444593163E-01  0.80061509689E-01  0.94546666168E-01  0.89187488139E+00  0.88000000000E+00 0. -1.
        -11    1    4    4    0    0 -0.16035774632E-01 -0.13659990726E-01 -0.10411836954E-01  0.23503380277E-01  0.51100000000E-03 0.  1.
         11    1    4    4    0    0 -0.56642171204E-01 -0.47399494825E-01 -0.80051645469E-01  0.10892003825E+00  0.51100000000E-03 0. -1.
</event>
<event>
 8    1  0.1078274E+005  0.1043930E+01  0.7957747E-01            NaN
         13   -1    0    0    0    0  0.00000000000E+00  0.00000000000E+00  0.74505805969E-08  0.10566000000E+00  0.10566000000E+00 0.  1.
     999900   -1    0    0    0    0 -0.00000000000E+00 -0.00000000000E+00 -0.74505805969E-08  0.93827000000E+00  0.93827000000E+00 0.  1.
     999902    2    1    2    0    0  0.81760721464E-02  0.17133893007E-01  0.14751155094E-01  0.10198880570E+01  0.10196046459E+01 0.  0.
     999903    2    3    3    0    0 -0.41715366687E-01  0.31835237920E-01 -0.11587082470E+00  0.12872736062E+00  0.19774507945E-01 0.  0.
         14    1    1    2    0    0 -0.81760721464E-02 -0.17133893007E-01 -0.14751155094E-01  0.24041942974E-01  0.00000000000E+00 0.  1.
     999901    1    3    3    0    0  0.49891438833E-01 -0.14701344913E-01  0.13062197980E+00  0.89116069640E+00  0.88000000000E+00 0. -1.
        -11    1    4    4    0    0 -0.14768059934E-01  0.17859664921E-02 -0.41812028957E-01  0.44382340599E-01  0.51100000000E-03 0.  1.
         11    1    4    4    0    0 -0.26947306753E-01  0.30049271428E-01 -0.74058795744E-01  0.84345020023E-01  0.51100000000E-03 0. -1.
</event>
<event>
 8    1  0.1078274E+005  0.1043930E+01  0.7957747E-01            NaN
         13   -1    0    0    0    0  0.00000000000E+00  0.00000000000E+00  0.74505805969E-08  0.10566000000E+00  0.10566000000E+00 0.  1.
     999900   -1    0    0    0    0 -0.00000000000E+00 -0.00000000000E+00 -0.74505805969E-08  0.93827000000E+00  0.93827000000E+00 0.  1.
     999902    2    1    2    0    0 -0.17796575485E-01  0.31107221959E-02 -0.62219304461E-02  0.10248222238E+01  0.10246440764E+01 0.  0.
     999903    2    3    3    0    0 -0.23840097806E-01  0.66151441984E-01 -0.11458532857E+00  0.13591655810E+00  0.19978731255E-01 0.  0.
         14    1    1    2    0    0  0.17796575485E-01 -0.31107221959E-02  0.62219304461E-02  0.19107776167E-01  0.00000000000E+00 0.  1.
     999901    1    3    3    0    0  0.60435223208E-02 -0.63040719788E-01  0.10836339813E+00  0.88890566573E+00  0.88000000000E+00 0. -1.
        -11    1    4    4    0    0  0.12780318288E-02  0.38088118836E-02 -0.16645288425E-01  0.17130883255E-01  0.51100000000E-03 0.  1.
         11    1    4    4    0    0 -0.25118129635E-01  0.62342630101E-01 -0.97940040147E-01  0.11878567485E+00  0.51100000000E-03 0. -1.
</event>
<event>
 8    1  0.1078274E+005  0.1043930E+01  0.7957747E-01            NaN
         13   -1    0    0    0    0  0.00000000000E+00  0.00000000000E+00  0.74505805969E-08  0.10566000000E+00  0.10566000000E+00 0. -1.
     999900   -1    0    0    0    0 -0.00000000000E+00 -0.00000000000E+00 -0.74505805969E-08  0.93827000000E+00  0.93827000000E+00 0.  1.
     999902    2    1    2    0    0  0.23017000661E-01 -0.63489693492E-02  0.23055685567E-02  0.10199423495E+01  0.10196602321E+01 0.  0.
     999903    2    3    3    0    0 -0.12467572400E+00  0.15572544807E-01 -0.53288577990E-02  0.12733270458E+00  0.19966988359E-01 0.  0.
         14    1    1    2    0    0 -0.23017000661E-01  0.63489693492E-02 -0.23055685567E-02  0.23987650523E-01  0.00000000000E+00 0.  1.
     999901    1    3    3    0    0  0.14769272466E+00 -0.21921514156E-01  0.76344263556E-02  0.89260964490E+00  0.88000000000E+00 0. -1.
        -11    1    4    4    0    0 -0.34891672478E-01 -0.37157680846E-02  0.23961987124E-02  0.35174403051E-01  0.51100000000E-03 0.  1.
         11    1    4    4    0    0 -0.89784051519E-01  0.19288312892E-01 -0.77250565113E-02  0.92158301527E-01  0.51100000000E-03 0. -1.
</event>
<event>
 8    1  0.1078274E+005  0.1043930E+01  0.7957747E-01            NaN
         13   -1    0    0    0    0  0.00000000000E+00  0.00000000000E+00  0.74505805969E-08  0.10566000000E+00  0.10566000000E+00 0.  1.
     999900   -1    0    0    0    0 -0.00000000000E+00 -0.00000000000E+00 -0.74505805969E-08  0.93827000000E+00  0.93827000000E+00 0. -1.
     999902    2    1    2    0    0  0.96194820503E-02  0.16973326060E-01 -0.12696868469E-01  0.10206525710E+01  0.10203870991E+01 0.  0.
     999903    2    3    3    0    0  0.91651736630E-01  0.30831525900E-01  0.86363141500E-01  0.13119530610E+00  0.20074668504E-01 0.  0.
         14    1    1    2    0    0 -0.96194820503E-02 -0.16973326060E-01  0.12696868469E-01  0.23277429011E-01  0.00000000000E+00 0.  1.
     999901    1    3    3    0    0 -0.82032254579E-01 -0.13858199841E-01 -0.99060009969E-01  0.88945726489E+00  0.88000000000E+00 0. -1.
        -11    1    4    4    0    0  0.26754299059E-01  0.53210218746E-02  0.36030486934E-01  0.45194722055E-01  0.51100000000E-03 0. -1.
         11    1    4    4    0    0  0.64897437571E-01  0.25510504026E-01  0.50332654566E-01  0.86000584042E-01  0.51100000000E-03 0.  1.
</event>
<event>
 7    1  0.1078274E+005  0.1043930E+01  0.7957747E-01            NaN
         13   -1    0    0    0    0  0.00000000000E+00  0.00000000000E+00  0.74505805969E-08  0.10566000000E+00  0.10566000000E+00 0.  1.
     999900   -1    0    0    0    0 -0.00000000000E+00 -0.00000000000E+00 -0.74505805969E-08  0.93827000000E+00  0.93827000000E+00 0.  1.
     999902    2    1    2    0    0 -0.22009690431E-01 -0.84218737438E-02 -0.26397736368E-02  0.10202166528E+01  0.10199410257E+01 0.  0.
         14    1    1    2    0    0  0.22009690431E-01  0.84218737438E-02  0.26397736368E-02  0.23713347193E-01  0.00000000000E+00 0.  1.
     999901    1    3    3    0    0 -0.51561283154E-01 -0.12280622081E+00  0.30847708976E-01  0.89055685666E+00  0.88000000000E+00 0.  1.
        -11    1    3    3    0    0 -0.97988755271E-02  0.24723637911E-01 -0.13067625991E-01  0.29636130031E-01  0.51100000000E-03 0. -1.
         11    1    3    3    0    0  0.39350468250E-01  0.89660709159E-01 -0.20419856621E-01  0.10002366612E+00  0.51100000000E-03 0.  1.
</event>
<event>
 8    1  0.1078274E+005  0.1043930E+01  0.7957747E-01            NaN
         13   -1    0    0    0    0  0.00000000000E+00  0.00000000000E+00  0.74505805969E-08  0.10566000000E+00  0.10566000000E+00 0. -1.
     999900   -1    0    0    0    0 -0.00000000000E+00 -0.00000000000E+00 -0.74505805969E-08  0.93827000000E+00  0.93827000000E+00 0. -1.
     999902    2    1    2    0    0  0.13765226945E-01  0.14282524682E-01 -0.13485760507E-01  0.10199438015E+01  0.10196617186E+01 0.  0.
     999903    2    3    3    0    0  0.27705426514E-01  0.11910907253E+00 -0.48247180837E-01  0.13293123636E+00  0.19706885170E-01 0.  0.
         14    1    1    2    0    0 -0.13765226945E-01 -0.14282524682E-01  0.13485760507E-01  0.23986198544E-01  0.00000000000E+00 0. -1.
     999901    1    3    3    0    0 -0.13940199568E-01 -0.10482654785E+00  0.34761420330E-01  0.88701256510E+00  0.88000000000E+00 0.  1.
        -11    1    4    4    0    0  0.26531395639E-01  0.72819270633E-01 -0.28273680252E-01  0.82499837855E-01  0.51100000000E-03 0.  1.
         11    1    4    4    0    0  0.11740308749E-02  0.46289801899E-01 -0.19973500585E-01  0.50431398503E-01  0.51100000000E-03 0. -1.
</event>
<event>
 8    1  0.1078274E+005  0.1043930E+01  0.7957747E-01            NaN
         13   -1    0    0    0    0  0.00000000000E+00  0.00000000000E+00  0.74505805969E-08  0.10566000000E+00  0.10566000000E+00 0.  1.
     999900   -1    0    0    0    0 -0.00000000000E+00 -0.00000000000E+00 -0.74505805969E-08  0.93827000000E+00  0.93827000000E+00 0.  1.
     999902    2    1    2    0    0  0.21051867334E-01 -0.10145163876E-01  0.77928276942E-02  0.10192960066E+01  0.10189982902E+01 0.  0.
     999903    2    3    3    0    0  0.51367801053E-01 -0.17984742301E-01  0.11805654899E+00  0.13186228902E+00  0.22095532691E-01 0.  0.
         14    1    1    2    0    0 -0.21051867334E-01  0.10145163876E-01 -0.77928276942E-02  0.24633993419E-01  0.00000000000E+00 0. -1.
     999901    1    3    3    0    0 -0.30315933720E-01  0.78395784252E-02 -0.11026372130E+00  0.88743371756E+00  0.88000000000E+00 0.  1.
        -11    1    4    4    0    0 -0.45415349062E-03 -0.48588065168E-02  0.14712462147E-01  0.15509091514E-01  0.51100000000E-03 0.  1.
         11    1    4    4    0    0  0.51821954544E-01 -0.13125935784E-01  0.10334408685E+00  0.11635319751E+00  0.51100000000E-03 0. -1.
</event>
<event>
 8    1  0.1078274E+005  0.1043930E+01  0.7957747E-01            NaN
         13   -1    0    0    0    0  0.00000000000E+00  0.00000000000E+00  0.74505805969E-08  0.10566000000E+00  0.10566000000E+00 0.  1.
     999900   -1    0    0    0    0 -0.00000000000E+00 -0.00000000000E+00 -0.74505805969E-08  0.93827000000E+00  0.93827000000E+00 0.  1.
     999902    2    1    2    0    0 -0.20660951192E-01 -0.11963479140E-01 -0.50824843854E-02  0.10195203424E+01  0.10192280889E+01 0.  0.
     999903    2    3    3    0    0 -0.66289885765E-01 -0.84506582838E-01 -0.75115114749E-01  0.13258794875E+00  0.20039266266E-01 0.  0.
         14    1    1    2    0    0  0.20660951192E-01  0.11963479140E-01  0.50824843854E-02  0.24409657614E-01  0.00000000000E+00 0. -1.
     999901    1    3    3    0    0  0.45628934573E-01  0.72543103698E-01  0.70032630363E-01  0.88693239364E+00  0.88000000000E+00 0. -1.
        -11    1    4    4    0    0 -0.56542371987E-01 -0.80862221385E-01 -0.65683474717E-01  0.11853404004E+00  0.51100000000E-03 0. -1.
         11    1    4    4    0    0 -0.97475137779E-02 -0.36443614534E-02 -0.94316400318E-02  0.14053908707E-01  0.51100000000E-03 0.  1.
</event>
<event>
 8    1  0.1078274E+005  0.1043930E+01  0.7957747E-01            NaN
         13   -1    0    0    0    0  0.00000000000E+00  0.00000000000E+00  0.74505805969E-08  0.10566000000E+00  0.10566000000E+00 0. -1.
     999900   -1    0    0    0    0 -0.00000000000E+00 -0.00000000000E+00 -0.74505805969E-08  0.93827000000E+00  0.93827000000E+00 0. -1.
     999902    2    1    2    0    0 -0.15331563862E-01 -0.14572744045E-01 -0.11935425001E-01  0.10196426352E+01  0.10193533379E+01 0.  0.
     999903    2    3    3    0    0  0.40464645530E-01 -0.10976061241E+00 -0.56312819892E-01  0.13164302908E+00  0.21770940435E-01 0.  0.
         14    1    1    2    0    0  0.15331563862E-01  0.14572744045E-01  0.11935425001E-01  0.24287364810E-01  0.00000000000E+00 0. -1.
     999901    1    3    3    0    0 -0.55796209392E-01  0.95187868367E-01  0.44377394891E-01  0.88799960611E+00  0.88000000000E+00 0.  1.
        -11    1    4    4    0    0  0.35939218363E-01 -0.68560542713E-01 -0.33738624565E-01  0.84443657798E-01  0.51100000000E-03 0.  1.
         11    1    4    4    0    0  0.45254271668E-02 -0.41200069699E-01 -0.22574195326E-01  0.47199371287E-01  0.51100000000E-03 0. -1.
</event>
<event>
 8    1  0.1078274E+005  0.1043930E+01  0.7957747E-01            NaN
         13   -1    0    0    0    0  0.00000000000E+00  0.00000000000E+00  0.74505805969E-08  0.10566000000E+00  0.10566000000E+00 0. -1.
     999900   -1    0    0    0    0 -0.00000000000E+00 -0.00000000000E+00 -0.74505805969E-08  0.93827000000E+00  0.93827000000E+00 0. -1.
     999902    2    1    2    0    0 -0.12695261356E-01 -0.19684099893E-01 -0.30797838973E-02  0.10203054679E+01  0.10200319256E+01 0.  0.
     999903    2    3    3    0    0 -0.92846070443E-01  0.57584015291E-01  0.68449858407E-01  0.13041165199E+00  0.19634261996E-01 0.  0.
         14    1    1    2    0    0  0.12695261356E-01  0.19684099893E-01  0.30797838973E-02  0.23624532129E-01  0.00000000000E+00 0. -1.
     999901    1    3    3    0    0  0.80150809088E-01 -0.77268115183E-01 -0.71529642304E-01  0.88989381588E+00  0.88000000000E+00 0.  1.
        -11    1    4    4    0    0 -0.11214877315E-01  0.77984443490E-03  0.42030697510E-02  0.12012849240E-01  0.51100000000E-03 0. -1.
         11    1    4    4    0    0 -0.81631193128E-01  0.56804170856E-01  0.64246788656E-01  0.11839880275E+00  0.51100000000E-03 0.  1.
</event>
<event>
 8    1  0.1078274E+005  0.1043930E+01  0.7957747E-01            NaN
         13   -1    0    0    0    0  0.00000000000E+00  0.00000000000E+00  0.74505805969E-08  0.10566000000E+00  0.10566000000E+00 0.  1.
     999900   -1    0    0    0    0 -0.00000000000E+00 -0.00000000000E+00 -0.74505805969E-08  0.93827000000E+00  0.93827000000E+00 0. -1.
     999902    2    1    2    0    0  0.93094544682E-02 -0.13646200410E-01  0.16342721818E-01  0.10206927608E+01  0.10204282154E+01 0.  0.
     999903    2    3    3    0    0 -0.35944249622E-01  0.66492660916E-01  0.10581471422E+00  0.13138102006E+00  0.18733810347E-01 0.  0.
         14    1    1    2    0    0 -0.93094544682E-02  0.13646200410E-01 -0.16342721818E-01  0.23237239176E-01  0.00000000000E+00 0. -1.
     999901    1    3    3    0    0  0.45253704090E-01 -0.80138861326E-01 -0.89471992406E-01  0.88931174076E+00  0.88000000000E+00 0. -1.
        -11    1    4    4    0    0 -0.20998722646E-01  0.44129158185E-01  0.81959556047E-01  0.95425148170E-01  0.51100000000E-03 0.  1.
         11    1    4    4    0    0 -0.14945526975E-01  0.22363502731E-01  0.23855158177E-01  0.35955871894E-01  0.51100000000E-03 0. -1.
</event>
<event>
 8    1  0.1078274E+005  0.1043930E+01  0.7957747E-01            NaN
         13   -1    0    0    0    0  0.00000000000E+00  0.00000000000E+00  0.74505805969E-08  0.10566000000E+00  0.10566000000E+00 0. -1.
     999900   -1    0    0    0    0 -0.00000000000E+00 -0.00000000000E+00 -0.74505805969E-08  0.93827000000E+00  0.93827000000E+00 0.  1.
     999902    2    1    2    0    0 -0.17443748299E-01  0.17724049896E-01  0.28015598398E-02  0.10189045123E+01  0.10185971383E+01 0.  0.
     999903    2    3    3    0    0  0.79250323370E-01 -0.76733503134E-01 -0.58709981953E-01  0.12646087673E+00  0.19412550161E-01 0.  0.
         14    1    1    2    0    0  0.17443748299E-01 -0.17724049896E-01 -0.28015598398E-02  0.25025487746E-01  0.00000000000E+00 0.  1.
     999901    1    3    3    0    0 -0.96694071669E-01  0.94457553030E-01  0.61511541793E-01  0.89244363553E+00  0.88000000000E+00 0. -1.
        -11    1    4    4    0    0  0.31885824151E-01 -0.38599782420E-01 -0.17659441038E-01  0.53092051791E-01  0.51100000000E-03 0. -1.
         11    1    4    4    0    0  0.47364499220E-01 -0.38133720714E-01 -0.41050540915E-01  0.73368824935E-01  0.51100000000E-03 0.  1.
</event>
<event>
 8    1  0.1078274E+005  0.1043930E+01  0.7957747E-01            NaN
         13   -1    0    0    0    0  0.00000000000E+00  0.00000000000E+00  0.74505805969E-08  0.10566000000E+00  0.10566000000E+00 0.  1.
     999900   -1    0    0    0    0 -0.00000000000E+00 -0.00000000000E+00 -0.74505805969E-08  0.93827000000E+00  0.93827000000E+00 0. -1.
     999902    2    1    2    0    0 -0.22962575501E-01  0.71545486729E-02 -0.49017985689E-02  0.10193842250E+01  0.10190886630E+01 0.  0.
     999903    2    3    3    0    0 -0.54773220882E-01 -0.10327776247E+00 -0.54690212892E-01  0.13051635030E+00  0.19418969118E-01 0.  0.
         14    1    1    2    0    0  0.22962575501E-01 -0.71545486729E-02  0.49017985689E-02  0.24545774984E-01  0.00000000000E+00 0.  1.
     999901    1    3    3    0    0  0.31810645381E-01  0.11043231115E+00  0.49788414323E-01  0.88886787472E+00  0.88000000000E+00 0. -1.
        -11    1    4    4    0    0 -0.41528336865E-01 -0.63704670149E-01 -0.42110177233E-01  0.86927647553E-01  0.51100000000E-03 0. -1.
         11    1    4    4    0    0 -0.13244884016E-01 -0.39573092325E-01 -0.12580035659E-01  0.43588702745E-01  0.51100000000E-03 0.  1.
</event>
<event>
 8    1  0.1078274E+005  0.1043930E+01  0.7957747E-01            NaN
         13   -1    0    0    0    0  0.00000000000E+00  0.00000000000E+00  0.74505805969E-08  0.10566000000E+00  0.10566000000E+00 0.  1.
     999900   -1    0    0    0    0 -0.00000000000E+00 -0.00000000000E+00 -0.74505805969E-08  0.93827000000E+00  0.93827000000E+00 0. -1.
     999902    2    1    2    0    0 -0.10088002933E-01 -0.12719476544E-01 -0.17469837314E-01  0.10200815597E+01  0.10198027458E+01 0.  0.
     999903    2    3    3    0    0  0.10931136329E+00 -0.10938541556E-01  0.63264219832E-01  0.12835437705E+00  0.20096237490E-01 0.  0.
         14    1    1    2    0    0  0.10088002933E-01  0.12719476544E-01  0.17469837314E-01  0.23848440253E-01  0.00000000000E+00 0.  1.
     999901    1    3    3    0    0 -0.11939936622E+00 -0.17809349881E-02 -0.80734057146E-01  0.89172718270E+00  0.88000000000E+00 0. -1.
        -11    1    4    4    0    0  0.67140920571E-01 -0.16500999919E-01  0.39389561050E-01  0.79573769888E-01  0.51100000000E-03 0. -1.
         11    1    4    4    0    0  0.42170442715E-01  0.55624583628E-02  0.23874658783E-01  0.48780607159E-01  0.51100000000E-03 0.  1.
</event>
<event>
 8    1  0.1078274E+005  0.1043930E+01  0.7957747E-01            NaN
         13   -1    0    0    0    0  0.00000000000E+00  0.00000000000E+00  0.74505805969E-08  0.10566000000E+00  0.10566000000E+00 0.  1.
     999900   -1    0    0    0    0 -0.00000000000E+00 -0.00000000000E+00 -0.74505805969E-08  0.93827000000E+00  0.93827000000E+00 0. -1.
     999902    2    1    2    0    0  0.20154121483E-01 -0.84036073357E-02 -0.85229969567E-02  0.10204896351E+01  0.10202203902E+01 0.  0.
     999903    2    3    3    0    0 -0.73400901088E-01  0.33160140955E-02  0.10349143622E+00  0.12839259722E+00  0.19377652616E-01 0.  0.
         14    1    1    2    0    0 -0.20154121483E-01  0.84036073357E-02  0.85229969567E-02  0.23440364889E-01  0.00000000000E+00 0.  1.
     999901    1    3    3    0    0  0.93555022571E-01 -0.11719621431E-01 -0.11201443317E+00  0.89209703789E+00  0.88000000000E+00 0. -1.
        -11    1    4    4    0    0 -0.68974094258E-01 -0.17519918625E-02  0.96933070981E-01  0.11898225298E+00  0.51100000000E-03 0. -1.
         11    1    4    4    0    0 -0.44268068301E-02  0.50680059580E-02  0.65583652346E-02  0.94103442366E-02  0.51100000000E-03 0.  1.
</event>
<event>
 8    1  0.1078274E+005  0.1043930E+01  0.7957747E-01            NaN
         13   -1    0    0    0    0  0.00000000000E+00  0.00000000000E+00  0.74505805969E-08  0.10566000000E+00  0.10566000000E+00 0. -1.
     999900   -1    0    0    0    0 -0.00000000000E+00 -0.00000000000E+00 -0.74505805969E-08  0.93827000000E+00  0.93827000000E+00 0.  1.
     999902    2    1    2    0    0  0.85478134898E-03  0.22982047622E-01  0.71651013284E-02  0.10198417489E+01  0.10195572318E+01 0.  0.
     999903    2    3    3    0    0 -0.81858389472E-01 -0.40780911220E-01 -0.88134736782E-01  0.12855658539E+00  0.19879264895E-01 0.  0.
         14    1    1    2    0    0 -0.85478134898E-03 -0.22982047622E-01 -0.71651013284E-02  0.24088251100E-01  0.00000000000E+00 0.  1.
     999901    1    3    3    0    0  0.82713170821E-01  0.63762958842E-01  0.95299838110E-01  0.89128516351E+00  0.88000000000E+00 0.  1.
        -11    1    4    4    0    0 -0.25122126322E-01 -0.20959457576E-01 -0.39136228121E-01  0.51012994083E-01  0.51100000000E-03 0. -1.
         11    1    4    4    0    0 -0.56736263150E-01 -0.19821453645E-01 -0.48998508661E-01  0.77543591307E-01  0.51100000000E-03 0.  1.
</event>
<event>
 8    1  0.1078274E+005  0.1043930E+01  0.7957747E-01            NaN
         13   -1    0    0    0    0  0.00000000000E+00  0.00000000000E+00  0.74505805969E-08  0.10566000000E+00  0.10566000000E+00 0.  1.
     999900   -1    0    0    0    0 -0.00000000000E+00 -0.00000000000E+00 -0.74505805969E-08  0.93827000000E+00  0.93827000000E+00 0. -1.
     999902    2    1    2    0    0  0.14173274598E-01  0.11893557071E-01  0.14120981081E-01  0.10206546800E+01  0.10203892568E+01 0.  0.
     999903    2    3    3    0    0 -0.98125227969E-01 -0.74184694851E-01  0.33869081386E-01  0.12913328007E+00  0.19908792883E-01 0.  0.
         14    1    1    2    0    0 -0.14173274598E-01 -0.11893557071E-01 -0.14120981081E-01  0.23275319961E-01  0.00000000000E+00 0. -1.
     999901    1    3    3    0    0  0.11229850257E+00  0.86078251922E-01 -0.19748100305E-01  0.89152139997E+00  0.88000000000E+00 0. -1.
        -11    1    4    4    0    0 -0.27472797935E-01 -0.32570745425E-01  0.11327396889E-01  0.44092846644E-01  0.51100000000E-03 0. -1.
         11    1    4    4    0    0 -0.70652430035E-01 -0.41613949426E-01  0.22541684497E-01  0.85040433428E-01  0.51100000000E-03 0.  1.
</event>
<event>
 8    1  0.1078274E+005  0.1043930E+01  0.7957747E-01            NaN
         13   -1    0    0    0    0  0.00000000000E+00  0.00000000000E+00  0.74505805969E-08  0.10566000000E+00  0.10566000000E+00 0.  1.
     999900   -1    0    0    0    0 -0.00000000000E+00 -0.00000000000E+00 -0.74505805969E-08  0.93827000000E+00  0.93827000000E+00 0. -1.
     999902    2    1    2    0    0 -0.22194528628E-01 -0.31389349156E-02  0.18208966749E-02  0.10214407653E+01  0.10211931606E+01 0.  0.
     999903    2    3    3    0    0  0.23904996024E-01  0.10893217364E+00 -0.65080978234E-01  0.13062037912E+00  0.19709957471E-01 0.  0.
         14    1    1    2    0    0  0.22194528628E-01  0.31389349156E-02 -0.18208966749E-02  0.22489234717E-01  0.00000000000E+00 0. -1.
     999901    1    3    3    0    0 -0.46099524653E-01 -0.11207110856E+00  0.66901874908E-01  0.89082038617E+00  0.88000000000E+00 0.  1.
        -11    1    4    4    0    0  0.78792314611E-02  0.76638827705E-01 -0.47469027484E-01  0.90493988152E-01  0.51100000000E-03 0. -1.
         11    1    4    4    0    0  0.16025764563E-01  0.32293345936E-01 -0.17611950750E-01  0.40126390964E-01  0.51100000000E-03 0.  1.
</event>
<event>
 8    1  0.1078274E+005  0.1043930E+01  0.7957747E-01            NaN
         13   -1    0    0    0    0  0.00000000000E+00  0.00000000000E+00  0.74505805969E-08  0.10566000000E+00  0.10566000000E+00 0. -1.
     999900   -1    0    0    0    0 -0.00000000000E+00 -0.00000000000E+00 -0.74505805969E-08  0.93827000000E+00  0.93827000000E+00 0.  1.
     999902    2    1    2    0    0 -0.32446758264E-02  0.10468248552E-02 -0.23596322815E-01  0.10200886449E+01  0.10198099986E+01 0.  0.
     999903    2    3    3    0    0 -0.27633328892E-01 -0.19099778296E-01 -0.12755765492E+00  0.13340456890E+00  0.19935427721E-01 0.  0.
         14    1    1    2    0    0  0.32446758264E-02 -0.10468248552E-02  0.23596322815E-01  0.23841355118E-01  0.00000000000E+00 0. -1.
     999901    1    3    3    0    0  0.24388653066E-01  0.20146603151E-01  0.10396133211E+00  0.88668407598E+00  0.88000000000E+00 0. -1.
        -11    1    4    4    0    0 -0.79810505367E-02  0.37504154933E-02 -0.25361806540E-01  0.26856007447E-01  0.51100000000E-03 0.  1.
         11    1    4    4    0    0 -0.19652278356E-01 -0.22850193789E-01 -0.10219584838E+00  0.10654856146E+00  0.51100000000E-03 0. -1.
</event>
<event>
 8    1  0.1078274E+005  0.1043930E+01  0.7957747E-01            NaN
         13   -1    0    0    0    0  0.00000000000E+00  0.00000000000E+00  0.74505805969E-08  0.10566000000E+00  0.10566000000E+00 0.  1.
     999900   -1    0    0    0    0 -0.00000000000E+00 -0.00000000000E+00 -0.74505805969E-08  0.93827000000E+00  0.93827000000E+00 0.  1.
     999902    2    1    2    0    0 -0.16898874171E-01  0.15315955988E-01 -0.33624704683E-02  0.10208766561E+01  0.10206163287E+01 0.  0.
     999903    2    3    3    0    0 -0.29967882162E-01  0.10926724000E-01  0.12575648741E+00  0.13134769673E+00  0.20495268972E-01 0.  0.
         14    1    1    2    0    0  0.16898874171E-01 -0.15315955988E-01  0.33624704683E-02  0.23053343873E-01  0.00000000000E+00 0. -1.
     999901    1    3    3    0    0  0.13069007992E-01  0.43892319879E-02 -0.12911895788E+00  0.88952895940E+00  0.88000000000E+00 0.  1.
        -11    1    4    4    0    0 -0.17072503996E-01  0.16492980345E-01  0.73922129834E-01  0.77641684639E-01  0.51100000000E-03 0. -1.
         11    1    4    4    0    0 -0.12895378166E-01 -0.55662563445E-02  0.51834357579E-01  0.53706012087E-01  0.51100000000E-03 0.  1.
</event>
<event>
 8    1  0.1078274E+005  0.1043930E+01  0.7957747E-01            NaN
         13   -1    0    0    0    0  0.00000000000E+00  0.00000000000E+00  0.74505805969E-08  0.10566000000E+00  0.10566000000E+00 0.  1.
     999900   -1    0    0    0    0 -0.00000000000E+00 -0.00000000000E+00 -0.74505805969E-08  0.93827000000E+00  0.93827000000E+00 0. -1.
     999902    2    1    2    0    0 -0.74051125097E-02 -0.10220661536E-01  0.19821808437E-01  0.10204310276E+01  0.10201604190E+01 0.  0.
     999903    2    3    3    0    0  0.89063531498E-02 -0.81129998415E-01  0.10390913980E+00  0.13343335159E+00  0.18599736963E-01 0.  0.
         14    1    1    2    0    0  0.74051125097E-02  0.10220661536E-01 -0.19821808437E-01  0.23498972386E-01  0.00000000000E+00 0. -1.
     999901    1    3    3    0    0 -0.16311465659E-01  0.70909336879E-01 -0.84087331360E-01  0.88699767602E+00  0.88000000000E+00 0. -1.
        -11    1    4    4    0    0  0.13073908387E-01 -0.37820946154E-01  0.45451316800E-01  0.60559345838E-01  0.51100000000E-03 0.  1.
         11    1    4    4    0    0 -0.41675552370E-02 -0.43309052261E-01  0.58457822997E-01  0.72874005756E-01  0.51100000000E-03 0. -1.
</event>
<event>
 8    1  0.1078274E+005  0.1043930E+01  0.7957747E-01            NaN
         13   -1    0    0    0    0  0.00000000000E+00  0.00000000000E+00  0.74505805969E-08  0.10566000000E+00  0.10566000000E+00 0.  1.
     999900   -1    0    0    0    0 -0.00000000000E+00 -0.00000000000E+00 -0.74505805969E-08  0.93827000000E+00  0.93827000000E+00 0. -1.
     999902    2    1    2    0    0  0.36945982967E-02  0.68927469622E-02 -0.22175641805E-01  0.10204157680E+01  0.10201448037E+01 0.  0.
     999903    2    3    3    0    0 -0.89891636209E-01  0.36492613962E-01 -0.88275725518E-01  0.13249473745E+00  0.18709211714E-01 0.  0.
         14    1    1    2    0    0 -0.36945982967E-02 -0.68927469622E-02  0.22175641805E-01  0.23514232003E-01  0.00000000000E+00 0.  1.
     999901    1    3    3    0    0  0.93586234505E-01 -0.29599867000E-01  0.66100083713E-01  0.88792103054E+00  0.88000000000E+00 0.  1.
        -11    1    4    4    0    0 -0.26869498445E-01  0.11853523250E-01 -0.38817926296E-01  0.48678213639E-01  0.51100000000E-03 0.  1.
         11    1    4    4    0    0 -0.63022137764E-01  0.24639090712E-01 -0.49457799222E-01  0.83816523814E-01  0.51100000000E-03 0. -1.
</event>
<event>
 8    1  0.1078274E+005  0.1043930E+01  0.7957747E-01            NaN
         13   -1    0    0    0    0  0.00000000000E+00  0.00000000000E+00  0.74505805969E-08  0.10566000000E+00  0.10566000000E+00 0. -1.
     999900   -1    0    0    0    0 -0.00000000000E+00 -0.00000000000E+00 -0.74505805969E-08  0.93827000000E+00  0.93827000000E+00 0.  1.
     999902    2    1    2    0    0 -0.10550274567E-01  0.16465610288E-01  0.14124319774E-01  0.10198069607E+01  0.10195216114E+01 0.  0.
     999903    2    3    3    0    0 -0.12174203269E+00  0.92718955619E-03  0.47254463311E-01  0.13205549999E+00  0.19587970035E-01 0.  0.
         14    1    1    2    0    0  0.10550274567E-01 -0.16465610288E-01 -0.14124319774E-01  0.24123039292E-01  0.00000000000E+00 0.  1.
     999901    1    3    3    0    0  0.11119175813E+00  0.15538420731E-01 -0.33130143537E-01  0.88775146072E+00  0.88000000000E+00 0.  1.
        -11    1    4    4    0    0 -0.10950560782E-01  0.58149592614E-02  0.45531803721E-02  0.13218211118E-01  0.51100000000E-03 0. -1.
         11    1    4    4    0    0 -0.11079147191E+00 -0.48877697052E-02  0.42701282939E-01  0.11883728887E+00  0.51100000000E-03 0.  1.
</event>
<event>
 8    1  0.1078274E+005  0.1043930E+01  0.7957747E-01            NaN
         13   -1    0    0    0    0  0.00000000000E+00  0.00000000000E+00  0.74505805969E-08  0.10566000000E+00  0.10566000000E+00 0. -1.
     999900   -1    0    0    0    0 -0.00000000000E+00 -0.00000000000E+00 -0.74505805969E-08  0.93827000000E+00  0.93827000000E+00 0.  1.
     999902    2    1    2    0    0 -0.11133103405E-01  0.14778205192E-01 -0.15359845305E-01  0.10198828341E+01  0.10195992983E+01 0.  0.
     999903    2    3    3    0    0  0.57261200814E-02 -0.12210069773E+00  0.31436969040E-01  0.12791309845E+00  0.20787229163E-01 0.  0.
         14    1    1    2    0    0  0.11133103405E-01 -0.14778205192E-01  0.15359845305E-01  0.24047165902E-01  0.00000000000E+00 0.  1.
     999901    1    3    3    0    0 -0.16859223487E-01  0.13687890292E+00 -0.46796814345E-01  0.89196973565E+00  0.88000000000E+00 0.  1.
        -11    1    4    4    0    0  0.10872977394E-01 -0.33205222777E-01  0.89659277291E-02  0.36075718123E-01  0.51100000000E-03 0. -1.
         11    1    4    4    0    0 -0.51468573131E-02 -0.88895474949E-01  0.22471041311E-01  0.91837380326E-01  0.51100000000E-03 0.  1.
</event>
<event>
 8    1  0.1078274E+005  0.1043930E+01  0.7957747E-01            NaN
         13   -1    0    0    0    0  0.00000000000E+00  0.00000000000E+00  0.74505805969E-08  0.10566000000E+00  0.10566000000E+00 0. -1.
     999900   -1    0    0    0    0 -0.00000000000E+00 -0.00000000000E+00 -0.74505805969E-08  0.93827000000E+00  0.93827000000E+00 0.  1.
     999902    2    1    2    0    0  0.13602406245E-01 -0.13864800722E-01 -0.16671608310E-01  0.10183331119E+01  0.10180113586E+01 0.  0.
     999903    2    3    3    0    0  0.15526781956E-01 -0.10623937154E+00  0.69163345508E-01  0.12934244615E+00  0.20445414922E-01 0.  0.
         14    1    1    2    0    0 -0.13602406245E-01  0.13864800722E-01  0.16671608310E-01  0.25596888060E-01  0.00000000000E+00 0. -1.
     999901    1    3    3    0    0 -0.19243757110E-02  0.92374570822E-01 -0.85834953818E-01  0.88899066579E+00  0.88000000000E+00 0.  1.
        -11    1    4    4    0    0 -0.40328075530E-02 -0.25882314561E-01  0.12078373171E-01  0.28849713400E-01  0.51100000000E-03 0.  1.
         11    1    4    4    0    0  0.19559589509E-01 -0.80357056983E-01  0.57084972337E-01  0.10049273275E+00  0.51100000000E-03 0. -1.
</event>
<event>
 8    1  0.1078274E+005  0.1043930E+01  0.7957747E-01            NaN
         13   -1    0    0    0    0  0.00000000000E+00  0.00000000000E+00  0.74505805969E-08  0.10566000000E+00  0.10566000000E+00 0.  1.
     999900   -1    0    0    0    0 -0.00000000000E+00 -0.00000000000E+00 -0.74505805969E-08  0.93827000000E+00  0.93827000000E+00 0. -1.
     999902    2    1    2    0    0 -0.91629595315E-02  0.18018436254E-01  0.14926908290E-01  0.10188016005E+01  0.10184916615E+01 0.  0.
     999903    2    3    3    0    0  0.10675146448E+00 -0.28217380935E-01 -0.59164458998E-01  0.12691403176E+00  0.20362772270E-01 0.  0.
         14    1    1    2    0    0  0.91629595315E-02 -0.18018436254E-01 -0.14926908290E-01  0.25128399541E-01  0.00000000000E+00 0. -1.
     999901    1    3    3    0    0 -0.11591442401E+00  0.46235817189E-01  0.74091367287E-01  0.89188756869E+00  0.88000000000E+00 0. -1.
        -11    1    4    4    0    0  0.55028436381E-01 -0.40369026023E-02 -0.28640928473E-01  0.62169038097E-01  0.51100000000E-03 0.  1.
         11    1    4    4    0    0  0.51723028100E-01 -0.24180478333E-01 -0.30523530524E-01  0.64744993667E-01  0.51100000000E-03 0. -1.
</event>
<event>
 8    1  0.1078274E+005  0.1043930E+01  0.7957747E-01            NaN
         13   -1    0    0    0    0  0.00000000000E+00  0.00000000000E+00  0.74505805969E-08  0.10566000000E+00  0.10566000000E+00 0. -1.
     999900   -1    0    0    0    0 -0.00000000000E+00 -0.00000000000E+00 -0.74505805969E-08  0.93827000000E+00  0.93827000000E+00 0.  1.
     999902    2    1    2    0    0  0.17835138781E-01  0.15473021809E-02 -0.15127372820E-01  0.10204923438E+01  0.10202231619E+01 0.  0.
     999903    2    3    3    0    0  0.58109375398E-02 -0.11089006616E+00 -0.68501827263E-01  0.13165288946E+00  0.17595715302E-01 0.  0.
         14    1    1    2    0    0 -0.17835138781E-01 -0.15473021809E-02  0.15127372820E-01  0.23437656193E-01  0.00000000000E+00 0. -1.
     999901    1    3    3    0    0  0.12024201241E-01  0.11243736834E+00  0.53374454443E-01  0.88883945435E+00  0.88000000000E+00 0. -1.
        -11    1    4    4    0    0  0.64779022246E-02 -0.70667782244E-01 -0.52855010774E-01  0.88486224631E-01  0.51100000000E-03 0. -1.
         11    1    4    4    0    0 -0.66696468480E-03 -0.40222283916E-01 -0.15646816489E-01  0.43166664830E-01  0.51100000000E-03 0.  1.
</event>
<event>
 7    1  0.1078274E+005  0.1043930E+01  0.7957747E-01            NaN
         13   -1    0    0    0    0  0.00000000000E+00  0.00000000000E+00  0.74505805969E-08  0.10566000000E+00  0.10566000000E+00 0. -1.
     999900   -1    0    0    0    0 -0.00000000000E+00 -0.00000000000E+00 -0.74505805969E-08  0.93827000000E+00  0.93827000000E+00 0. -1.
     999903    2    1    2    0    0 -0.39371026196E-01  0.16465218320E-01 -0.10810274261E+00  0.11737361116E+00  0.16406721743E-01 0.  0.
         14    1    1    2    0    0  0.36247460264E-02  0.36400159599E-01  0.14289251913E-01  0.39272039962E-01  0.00000000000E+00 0. -1.
     999901    1    1    2    0    0  0.35746280169E-01 -0.52865377919E-01  0.93813490698E-01  0.88728434888E+00  0.88000000000E+00 0.  1.
        -11    1    3    3    0    0 -0.18906001347E-01  0.14559928677E-01 -0.71670781130E-01  0.75540653947E-01  0.51100000000E-03 0.  1.
         11    1    3    3    0    0 -0.20465024849E-01  0.19052896430E-02 -0.36431961482E-01  0.41832957212E-01  0.51100000000E-03 0. -1.
</event>
<event>
 8    1  0.1078274E+005  0.1043930E+01  0.7957747E-01            NaN
         13   -1    0    0    0    0  0.00000000000E+00  0.00000000000E+00  0.74505805969E-08  0.10566000000E+00  0.10566000000E+00 0. -1.
     999900   -1    0    0    0    0 -0.00000000000E+00 -0.00000000000E+00 -0.74505805969E-08  0.93827000000E+00  0.93827000000E+00 0.  1.
     999902    2    1    2    0    0 -0.14179987113E-01 -0.32365083409E-02 -0.19721591365E-01  0.10194251395E+01  0.10191305740E+01 0.  0.
     999903    2    3    3    0    0 -0.47224081070E-01  0.64964702547E-01  0.98080903494E-01  0.12834672260E+00  0.20062182414E-01 0.  0.
         14    1    1    2    0    0  0.14179987113E-01  0.32365083409E-02  0.19721591365E-01  0.24504860472E-01  0.00000000000E+00 0. -1.
     999901    1    3    3    0    0  0.33044093957E-01 -0.68201210888E-01 -0.11780249486E+00  0.89107841692E+00  0.88000000000E+00 0.  1.
        -11    1    4    4    0    0 -0.20287918931E-01  0.28516712513E-01  0.58507075235E-01  0.68177280091E-01  0.51100000000E-03 0.  1.
         11    1    4    4    0    0 -0.26936162139E-01  0.36447990034E-01  0.39573828260E-01  0.60169442514E-01  0.51100000000E-03 0. -1.
</event>
<event>
 8    1  0.1078274E+005  0.1043930E+01  0.7957747E-01            NaN
         13   -1    0    0    0    0  0.00000000000E+00  0.00000000000E+00  0.74505805969E-08  0.10566000000E+00  0.10566000000E+00 0.  1.
     999900   -1    0    0    0    0 -0.00000000000E+00 -0.00000000000E+00 -0.74505805969E-08  0.93827000000E+00  0.93827000000E+00 0.  1.
     999902    2    1    2    0    0 -0.48712682102E-02 -0.20128658791E-01 -0.11525879036E-01  0.10202289864E+01  0.10199536493E+01 0.  0.
     999903    2    3    3    0    0  0.11836441487E+00  0.47097252250E-01  0.21261103697E-02  0.12899796498E+00  0.20190808503E-01 0.  0.
         14    1    1    2    0    0  0.48712682102E-02  0.20128658791E-01  0.11525879036E-01  0.23701013612E-01  0.00000000000E+00 0. -1.
     999901    1    3    3    0    0 -0.12323568308E+00 -0.67225911041E-01 -0.13651989406E-01  0.89123102140E+00  0.88000000000E+00 0.  1.
        -11    1    4    4    0    0  0.50493325631E-01  0.30403370053E-01  0.39900010863E-02  0.59077255128E-01  0.51100000000E-03 0. -1.
         11    1    4    4    0    0  0.67871089237E-01  0.16693882197E-01 -0.18638907166E-02  0.69920709855E-01  0.51100000000E-03 0.  1.
</event>
<event>
 8    1  0.1078274E+005  0.1043930E+01  0.7957747E-01            NaN
         13   -1    0    0    0    0  0.00000000000E+00  0.00000000000E+00  0.74505805969E-08  0.10566000000E+00  0.10566000000E+00 0. -1.
     999900   -1    0    0    0    0 -0.00000000000E+00 -0.00000000000E+00 -0.74505805969E-08  0.93827000000E+00  0.93827000000E+00 0.  1.
     999902    2    1    2    0    0  0.37432207954E-02 -0.20810488949E-01  0.10322499839E-01  0.10204003983E+01  0.10201290755E+01 0.  0.
     999903    2    3    3    0    0  0.12114062406E+00 -0.46796881699E-01  0.15719793044E-01  0.13220752868E+00  0.19149929818E-01 0.  0.
         14    1    1    2    0    0 -0.37432207954E-02  0.20810488949E-01 -0.10322499839E-01  0.23529601679E-01  0.00000000000E+00 0. -1.
     999901    1    3    3    0    0 -0.11739740327E+00  0.25986392749E-01 -0.53972932048E-02  0.88819286964E+00  0.88000000000E+00 0. -1.
        -11    1    4    4    0    0  0.43197623174E-01 -0.21978029873E-01  0.13752804028E-01  0.50383223246E-01  0.51100000000E-03 0. -1.
         11    1    4    4    0    0  0.77943000889E-01 -0.24818851826E-01  0.19669890155E-02  0.81824305437E-01  0.51100000000E-03 0.  1.
</event>
<event>
 8    1  0.1078274E+005  0.1043930E+01  0.7957747E-01            NaN
         13   -1    0    0    0    0  0.00000000000E+00  0.00000000000E+00  0.74505805969E-08  0.10566000000E+00  0.10566000000E+00 0. -1.
     999900   -1    0    0    0    0 -0.00000000000E+00 -0.00000000000E+00 -0.74505805969E-08  0.93827000000E+00  0.93827000000E+00 0. -1.
     999902    2    1    2    0    0  0.21266889817E-01 -0.95163212201E-02 -0.20505620164E-03  0.10206301498E+01  0.10203641603E+01 0.  0.
     999903    2    3    3    0    0  0.28372708992E-01  0.49527031159E-01 -0.11606754857E+00  0.13104556850E+00  0.21055349905E-01 0.  0.
         14    1    1    2    0    0 -0.21266889817E-01  0.95163212201E-02  0.20505620164E-03  0.23299850216E-01  0.00000000000E+00 0.  1.
     999901    1    3    3    0    0 -0.71058191750E-02 -0.59043352379E-01  0.11586249237E+00  0.88958458129E+00  0.88000000000E+00 0.  1.
        -11    1    4    4    0    0  0.13524885913E-01  0.41417783771E-01 -0.89522761278E-01  0.99563754746E-01  0.51100000000E-03 0. -1.
         11    1    4    4    0    0  0.14847823078E-01  0.81092473881E-02 -0.26544787296E-01  0.31481813750E-01  0.51100000000E-03 0.  1.
</event>
<event>
 8    1  0.1078274E+005  0.1043930E+01  0.7957747E-01            NaN
         13   -1    0    0    0    0  0.00000000000E+00  0.00000000000E+00  0.74505805969E-08  0.10566000000E+00  0.10566000000E+00 0.  1.
     999900   -1    0    0    0    0 -0.00000000000E+00 -0.00000000000E+00 -0.74505805969E-08  0.93827000000E+00  0.93827000000E+00 0. -1.
     999902    2    1    2    0    0  0.70113526986E-02  0.22612873009E-01 -0.26118915102E-02  0.10201114553E+01  0.10198333483E+01 0.  0.
     999903    2    3    3    0    0 -0.67205647111E-02  0.48161127269E-01 -0.12073046753E+00  0.13174594675E+00  0.20408050494E-01 0.  0.
         14    1    1    2    0    0 -0.70113526986E-02 -0.22612873009E-01  0.26118915102E-02  0.23818544659E-01  0.00000000000E+00 0. -1.
     999901    1    3    3    0    0  0.13731917410E-01 -0.25548254260E-01  0.11811857602E+00  0.88836550859E+00  0.88000000000E+00 0.  1.
        -11    1    4    4    0    0 -0.52778123321E-03  0.41941025614E-01 -0.11084292746E+00  0.11851474116E+00  0.51100000000E-03 0. -1.
         11    1    4    4    0    0 -0.61927834779E-02  0.62201016547E-02 -0.98875400729E-02  0.13231205595E-01  0.51100000000E-03 0.  1.
</event>
<event>
 8    1  0.1078274E+005  0.1043930E+01  0.7957747E-01            NaN
         13   -1    0    0    0    0  0.00000000000E+00  0.00000000000E+00  0.74505805969E-08  0.10566000000E+00  0.10566000000E+00 0. -1.
     999900   -1    0    0    0    0 -0.00000000000E+00 -0.00000000000E+00 -0.74505805969E-08  0.93827000000E+00  0.93827000000E+00 0. -1.
     999902    2    1    2    0    0 -0.14074270005E-01 -0.32771049789E-02 -0.17979177362E-01  0.10208632423E+01  0.10206026083E+01 0.  0.
     999903    2    3    3    0    0 -0.12075662867E-01 -0.12205542442E+00  0.40658724488E-01  0.13094712986E+00  0.21229005606E-01 0.  0.
         14    1    1    2    0    0  0.14074270005E-01  0.32771049789E-02  0.17979177362E-01  0.23066757723E-01  0.00000000000E+00 0. -1.
     999901    1    3    3    0    0 -0.19986071385E-02  0.11877831944E+00 -0.58637901850E-01  0.88991611241E+00  0.88000000000E+00 0. -1.
        -11    1    4    4    0    0  0.45745414110E-02 -0.36833305867E-01  0.17726086957E-01  0.41135071776E-01  0.51100000000E-03 0.  1.
         11    1    4    4    0    0 -0.16650204278E-01 -0.85222118551E-01  0.22932637531E-01  0.89812058088E-01  0.51100000000E-03 0. -1.
</event>
<event>
 8    1  0.1078274E+005  0.1043930E+01  0.7957747E-01            NaN
         13   -1    0    0    0    0  0.00000000000E+00  0.00000000000E+00  0.74505805969E-08  0.10566000000E+00  0.10566000000E+00 0.  1.
     999900   -1    0    0    0    0 -0.00000000000E+00 -0.00000000000E+00 -0.74505805969E-08  0.93827000000E+00  0.93827000000E+00 0. -1.
     999902    2    1    2    0    0  0.88533404147E-02  0.22158811600E-01  0.55567703394E-02  0.10194295456E+01  0.10191350873E+01 0.  0.
     999903    2    3    3    0    0 -0.69827790337E-01  0.12427865095E-01  0.10716679147E+00  0.13004211146E+00  0.19896166070E-01 0.  0.
         14    1    1    2    0    0 -0.88533404147E-02 -0.22158811600E-01 -0.55567703394E-02  0.24500454376E-01  0.00000000000E+00 0.  1.
     999901    1    3    3    0    0  0.78681130751E-01  0.97309465053E-02 -0.10161002113E+00  0.88938743416E+00  0.88000000000E+00 0. -1.
        -11    1    4    4    0    0 -0.52920443503E-01  0.69991300521E-03  0.80817075363E-01  0.96606024708E-01  0.51100000000E-03 0. -1.
         11    1    4    4    0    0 -0.16907346834E-01  0.11727952090E-01  0.26349716108E-01  0.33436086750E-01  0.51100000000E-03 0.  1.
</event>
<event>
 8    1  0.1078274E+005  0.1043930E+01  0.7957747E-01            NaN
         13   -1    0    0    0    0  0.00000000000E+00  0.00000000000E+00  0.74505805969E-08  0.10566000000E+00  0.10566000000E+00 0. -1.
     999900   -1    0    0    0    0 -0.00000000000E+00 -0.00000000000E+00 -0.74505805969E-08  0.93827000000E+00  0.93827000000E+00 0. -1.
     999902    2    1    2    0    0 -0.19069899384E-02 -0.12549829674E-01 -0.18553159188E-01  0.10214499077E+01  0.10212025065E+01 0.  0.
     999903    2    3    3    0    0 -0.52587340512E-01  0.75150433668E-01 -0.93659000895E-01  0.13246131292E+00  0.18999339729E-01 0.  0.
         14    1    1    2    0    0  0.19069899384E-02  0.12549829674E-01  0.18553159188E-01  0.22480092334E-01  0.00000000000E+00 0. -1.
     999901    1    3    3    0    0  0.50680350574E-01 -0.87700263342E-01  0.75105841707E-01  0.88898859474E+00  0.88000000000E+00 0.  1.
        -11    1    4    4    0    0 -0.38238993319E-01  0.63721389759E-01 -0.66760608525E-01  0.99899329800E-01  0.51100000000E-03 0.  1.
         11    1    4    4    0    0 -0.14348347193E-01  0.11429043909E-01 -0.26898392370E-01  0.32561983124E-01  0.51100000000E-03 0. -1.
</event>
<event>
 8    1  0.1078274E+005  0.1043930E+01  0.7957747E-01            NaN
         13   -1    0    0    0    0  0.00000000000E+00  0.00000000000E+00  0.74505805969E-08  0.10566000000E+00  0.10566000000E+00 0. -1.
     999900   -1    0    0    0    0 -0.00000000000E+00 -0.00000000000E+00 -0.74505805969E-08  0.93827000000E+00  0.93827000000E+00 0.  1.
     999902    2    1    2    0    0 -0.14997592126E-01 -0.75395208727E-02  0.17498879819E-01  0.10196816405E+01  0.10193932828E+01 0.  0.
     999903    2    3    3    0    0 -0.45940522131E-01  0.11953124854E+00  0.86668103595E-03  0.12986082964E+00  0.21559985829E-01 0.  0.
         14    1    1    2    0    0  0.14997592126E-01  0.75395208727E-02 -0.17498879819E-01  0.24248359522E-01  0.00000000000E+00 0.  1.
     999901    1    3    3    0    0  0.30942930004E-01 -0.12707076941E+00  0.16632198783E-01  0.88982081083E+00  0.88000000000E+00 0.  1.
        -11    1    4    4    0    0 -0.30261086099E-01  0.93526069646E-01 -0.68043956419E-02  0.98536388996E-01  0.51100000000E-03 0. -1.
         11    1    4    4    0    0 -0.15679436032E-01  0.26005178894E-01  0.76710766779E-02  0.31324440649E-01  0.51100000000E-03 0.  1.
</event>
<event>
 8    1  0.1078274E+005  0.1043930E+01  0.7957747E-01            NaN
         13   -1    0    0    0    0  0.00000000000E+00  0.00000000000E+00  0.74505805969E-08  0.10566000000E+00  0.10566000000E+00 0. -1.
     999900   -1    0    0    0    0 -0.00000000000E+00 -0.00000000000E+00 -0.74505805969E-08  0.93827000000E+00  0.93827000000E+00 0. -1.
     999902    2    1    2    0    0  0.54686083986E-02  0.28957998402E-01  0.11891516650E-02  0.10144361798E+01  0.10140073360E+01 0.  0.
     999903    2    3    3    0    0 -0.91356313309E-01  0.66732028990E-01  0.53620787923E-01  0.12677012809E+00  0.19908209454E-01 0.  0.
         14    1    1    2    0    0 -0.54686083986E-02 -0.28957998402E-01 -0.11891516650E-02  0.29493820217E-01  0.00000000000E+00 0.  1.
     999901    1    3    3    0    0  0.96824921707E-01 -0.37774030587E-01 -0.52431636258E-01  0.88766605169E+00  0.88000000000E+00 0.  1.
        -11    1    4    4    0    0 -0.43074522782E-01  0.20820289993E-01  0.17237850203E-01  0.50855713434E-01  0.51100000000E-03 0. -1.
         11    1    4    4    0    0 -0.48281790527E-01  0.45911738997E-01  0.36382937720E-01  0.75914414655E-01  0.51100000000E-03 0.  1.
</event>
<event>
 8    1  0.1078274E+005  0.1043930E+01  0.7957747E-01            NaN
         13   -1    0    0    0    0  0.00000000000E+00  0.00000000000E+00  0.74505805969E-08  0.10566000000E+00  0.10566000000E+00 0. -1.
     999900   -1    0    0    0    0 -0.00000000000E+00 -0.00000000000E+00 -0.74505805969E-08  0.93827000000E+00  0.93827000000E+00 0.  1.
     999902    2    1    2    0    0 -0.74919018479E-02 -0.80951711710E-02 -0.19994797006E-01  0.10210946700E+01  0.10208392982E+01 0.  0.
     999903    2    3    3    0    0  0.15871078206E-01 -0.11934958165E+00 -0.53286210541E-01  0.13315790934E+00  0.19884537260E-01 0.  0.
         14    1    1    2    0    0  0.74919018479E-02  0.80951711710E-02  0.19994797006E-01  0.22835330016E-01  0.00000000000E+00 0.  1.
     999901    1    3    3    0    0 -0.23362980054E-01  0.11125441048E+00  0.33291413535E-01  0.88793676064E+00  0.88000000000E+00 0.  1.
        -11    1    4    4    0    0 -0.24129988378E-03 -0.71887988762E-01 -0.32468484184E-01  0.78882220684E-01  0.51100000000E-03 0.  1.
         11    1    4    4    0    0  0.16112378090E-01 -0.47461592890E-01 -0.20817726357E-01  0.54275688656E-01  0.51100000000E-03 0. -1.
</event>
<event>
 8    1  0.1078274E+005  0.1043930E+01  0.7957747E-01            NaN
         13   -1    0    0    0    0  0.00000000000E+00  0.00000000000E+00  0.74505805969E-08  0.10566000000E+00  0.10566000000E+00 0. -1.
     999900   -1    0    0    0    0 -0.00000000000E+00 -0.00000000000E+00 -0.74505805969E-08  0.93827000000E+00  0.93827000000E+00 0.  1.
     999902    2    1    2    0    0 -0.22795434912E-01  0.55012237239E-02 -0.78563878941E-03  0.10204669963E+01  0.10201972250E+01 0.  0.
     999903    2    3    3    0    0  0.69639984342E-01  0.14833147201E-01 -0.10622823682E+00  0.12931631710E+00  0.19196924078E-01 0.  0.
         14    1    1    2    0    0  0.22795434912E-01 -0.55012237239E-02  0.78563878941E-03  0.23463003721E-01  0.00000000000E+00 0.  1.
     999901    1    3    3    0    0 -0.92435419254E-01 -0.93319234767E-02  0.10544259803E+00  0.89115067918E+00  0.88000000000E+00 0.  1.
        -11    1    4    4    0    0  0.17026331907E-01  0.95701247326E-02 -0.40427521651E-01  0.44901323961E-01  0.51100000000E-03 0.  1.
         11    1    4    4    0    0  0.52613652435E-01  0.52630224680E-02 -0.65800715170E-01  0.84414993135E-01  0.51100000000E-03 0. -1.
</event>
<event>
 8    1  0.1078274E+005  0.1043930E+01  0.7957747E-01            NaN
         13   -1    0    0    0    0  0.00000000000E+00  0.00000000000E+00  0.74505805969E-08  0.10566000000E+00  0.10566000000E+00 0.  1.
     999900   -1    0    0    0    0 -0.00000000000E+00 -0.00000000000E+00 -0.74505805969E-08  0.93827000000E+00  0.93827000000E+00 0.  1.
     999902    2    1    2    0    0 -0.27312339386E-02  0.65575701586E-02  0.21811215165E-01  0.10209911580E+01  0.10207334394E+01 0.  0.
     999903    2    3    3    0    0 -0.10402884184E+00  0.20078952293E-01  0.79022840162E-01  0.13323150405E+00  0.16758882569E-01 0.  0.
         14    1    1    2    0    0  0.27312339386E-02 -0.65575701586E-02 -0.21811215165E-01  0.22938841998E-01  0.00000000000E+00 0. -1.
     999901    1    3    3    0    0  0.10129760791E+00 -0.13521382135E-01 -0.57211624996E-01  0.88775965395E+00  0.88000000000E+00 0.  1.
        -11    1    4    4    0    0 -0.66588137172E-01  0.20682467503E-01  0.53978856376E-01  0.88180057443E-01  0.51100000000E-03 0.  1.
         11    1    4    4    0    0 -0.37440704672E-01 -0.60351521000E-03  0.25043983786E-01  0.45051446612E-01  0.51100000000E-03 0. -1.
</event>
<event>
 8    1  0.1078274E+005  0.1043930E+01  0.7957747E-01            NaN
         13   -1    0    0    0    0  0.00000000000E+00  0.00000000000E+00  0.74505805969E-08  0.10566000000E+00  0.10566000000E+00 0. -1.
     999900   -1    0    0    0    0 -0.00000000000E+00 -0.00000000000E+00 -0.74505805969E-08  0.93827000000E+00  0.93827000000E+00 0.  1.
     999902    2    1    2    0    0 -0.85149934086E-02  0.21972566887E-01  0.20765192631E-02  0.10202739069E+01  0.10199996247E+01 0.  0.
     999903    2    3    3    0    0 -0.75729298646E-01 -0.47184506451E-01 -0.92417539871E-01  0.12997643368E+00  0.19788059868E-01 0.  0.
         14    1    1    2    0    0  0.85149934086E-02 -0.21972566887E-01 -0.20765192631E-02  0.23656093096E-01  0.00000000000E+00 0.  1.
     999901    1    3    3    0    0  0.67214305237E-01  0.69157073338E-01  0.94494059134E-01  0.89029747323E+00  0.88000000000E+00 0. -1.
        -11    1    4    4    0    0 -0.11540214413E-01 -0.15985224658E-01 -0.15837786148E-01  0.25294278941E-01  0.51100000000E-03 0.  1.
         11    1    4    4    0    0 -0.64189084233E-01 -0.31199281793E-01 -0.76579753723E-01  0.10468215474E+00  0.51100000000E-03 0. -1.
</event>
<event>
 8    1  0.1078274E+005  0.1043930E+01  0.7957747E-01            NaN
         13   -1    0    0    0    0  0.00000000000E+00  0.00000000000E+00  0.74505805969E-08  0.10566000000E+00  0.10566000000E+00 0. -1.
     999900   -1    0    0    0    0 -0.00000000000E+00 -0.00000000000E+00 -0.74505805969E-08  0.93827000000E+00  0.93827000000E+00 0. -1.
     999902    2    1    2    0    0 -0.46452468165E-02 -0.17398124305E-01  0.15542386768E-01  0.10201426329E+01  0.10198652620E+01 0.  0.
     999903    2    3    3    0    0 -0.81302513980E-01 -0.72158332320E-01  0.74201130786E-01  0.13317258535E+00  0.20302856364E-01 0.  0.
         14    1    1    2    0    0  0.46452468165E-02  0.17398124305E-01 -0.15542386768E-01  0.23787367104E-01  0.00000000000E+00 0.  1.
     999901    1    3    3    0    0  0.76657267164E-01  0.54760208015E-01 -0.58658744018E-01  0.88697004754E+00  0.88000000000E+00 0. -1.
        -11    1    4    4    0    0 -0.58417898786E-01 -0.46296358084E-01  0.60555014770E-01  0.96037360466E-01  0.51100000000E-03 0.  1.
         11    1    4    4    0    0 -0.22884615195E-01 -0.25861974236E-01  0.13646116015E-01  0.37135224886E-01  0.51100000000E-03 0. -1.
</event>
<event>
 8    1  0.1078274E+005  0.1043930E+01  0.7957747E-01            NaN
         13   -1    0    0    0    0  0.00000000000E+00  0.00000000000E+00  0.74505805969E-08  0.10566000000E+00  0.10566000000E+00 0. -1.
     999900   -1    0    0    0    0 -0.00000000000E+00 -0.00000000000E+00 -0.74505805969E-08  0.93827000000E+00  0.93827000000E+00 0. -1.
     999902    2    1    2    0    0 -0.14006693067E-01  0.15833036897E-01  0.12506944998E-01  0.10193679117E+01  0.10190719519E+01 0.  0.
     999903    2    3    3    0    0  0.46598364456E-01  0.74724920257E-01 -0.92349292629E-01  0.12912296930E+00  0.19726329442E-01 0.  0.
         14    1    1    2    0    0  0.14006693067E-01 -0.15833036897E-01 -0.12506944998E-01  0.24562088291E-01  0.00000000000E+00 0.  1.
     999901    1    3    3    0    0 -0.60605057523E-01 -0.58891883360E-01  0.10485623763E+00  0.89024494241E+00  0.88000000000E+00 0.  1.
        -11    1    4    4    0    0  0.28408022147E-01  0.55677158438E-01 -0.54032129358E-01  0.82623809027E-01  0.51100000000E-03 0.  1.
         11    1    4    4    0    0  0.18190342309E-01  0.19047761819E-01 -0.38317163271E-01  0.46499160269E-01  0.51100000000E-03 0. -1.
</event>
<event>
 8    1  0.1078274E+005  0.1043930E+01  0.7957747E-01            NaN
         13   -1    0    0    0    0  0.00000000000E+00  0.00000000000E+00  0.74505805969E-08  0.10566000000E+00  0.10566000000E+00 0. -1.
     999900   -1    0    0    0    0 -0.00000000000E+00 -0.00000000000E+00 -0.74505805969E-08  0.93827000000E+00  0.93827000000E+00 0. -1.
     999902    2    1    2    0    0 -0.17325785269E-02 -0.55354714416E-02  0.22100565756E-01  0.10210809677E+01  0.10208252858E+01 0.  0.
     999903    2    3    3    0    0  0.11200799027E-01  0.12508065690E+00 -0.26886224093E-01  0.12999873193E+00  0.20153724910E-01 0.  0.
         14    1    1    2    0    0  0.17325785269E-02  0.55354714416E-02 -0.22100565756E-01  0.22849032347E-01  0.00000000000E+00 0.  1.
     999901    1    3    3    0    0 -0.12933377554E-01 -0.13061612834E+00  0.48986789849E-01  0.89108223572E+00  0.88000000000E+00 0.  1.
        -11    1    4    4    0    0 -0.27897190193E-02  0.53926214988E-01 -0.18081669989E-01  0.56947582088E-01  0.51100000000E-03 0. -1.
         11    1    4    4    0    0  0.13990518046E-01  0.71154441916E-01 -0.88045541041E-02  0.73051149844E-01  0.51100000000E-03 0.  1.
</event>
<event>
 8    1  0.1078274E+005  0.1043930E+01  0.7957747E-01            NaN
         13   -1    0    0    0    0  0.00000000000E+00  0.00000000000E+00  0.74505805969E-08  0.10566000000E+00  0.10566000000E+00 0. -1.
     999900   -1    0    0    0    0 -0.00000000000E+00 -0.00000000000E+00 -0.74505805969E-08  0.93827000000E+00  0.93827000000E+00 0.  1.
     999902    2    1    2    0    0  0.50832845795E-02 -0.11526187692E-02 -0.27599059019E-01  0.10158430569E+01  0.10154546962E+01 0.  0.
     999903    2    3    3    0    0  0.67708774386E-01 -0.86368889258E-01 -0.63932335845E-01  0.12876703328E+00  0.21202408668E-01 0.  0.
         14    1    1    2    0    0 -0.50832845795E-02  0.11526187692E-02  0.27599059019E-01  0.28086943068E-01  0.00000000000E+00 0. -1.
     999901    1    3    3    0    0 -0.62625489806E-01  0.85216270489E-01  0.36333276825E-01  0.88707602365E+00  0.88000000000E+00 0.  1.
        -11    1    4    4    0    0  0.34705906561E-01 -0.38063205486E-01 -0.41344783234E-01  0.66052704591E-01  0.51100000000E-03 0.  1.
         11    1    4    4    0    0  0.33002867825E-01 -0.48305683771E-01 -0.22587552611E-01  0.62714328692E-01  0.51100000000E-03 0. -1.
</event>
<event>
 8    1  0.1078274E+005  0.1043930E+01  0.7957747E-01            NaN
         13   -1    0    0    0    0  0.00000000000E+00  0.00000000000E+00  0.74505805969E-08  0.10566000000E+00  0.10566000000E+00 0. -1.
     999900   -1    0    0    0    0 -0.00000000000E+00 -0.00000000000E+00 -0.74505805969E-08  0.93827000000E+00  0.93827000000E+00 0. -1.
     999902    2    1    2    0    0  0.14269397038E-01  0.15680589931E-01  0.15212398905E-02  0.10226741593E+01  0.10224532387E+01 0.  0.
     999903    2    3    3    0    0  0.38376652116E-01 -0.16339290425E-01  0.12508138236E+00  0.13313858313E+00  0.18460505575E-01 0.  0.
         14    1    1    2    0    0 -0.14269397038E-01 -0.15680589931E-01 -0.15212398905E-02  0.21255840685E-01  0.00000000000E+00 0. -1.
     999901    1    3    3    0    0 -0.24107255078E-01  0.32019880357E-01 -0.12356014247E+00  0.88953557618E+00  0.88000000000E+00 0. -1.
        -11    1    4    4    0    0  0.21085055046E-01 -0.34277061376E-03  0.45682116691E-01  0.50317133706E-01  0.51100000000E-03 0.  1.
         11    1    4    4    0    0  0.17291597070E-01 -0.15996519812E-01  0.79399265670E-01  0.82821449427E-01  0.51100000000E-03 0. -1.
</event>
<event>
 8    1  0.1078274E+005  0.1043930E+01  0.7957747E-01            NaN
         13   -1    0    0    0    0  0.00000000000E+00  0.00000000000E+00  0.74505805969E-08  0.10566000000E+00  0.10566000000E+00 0.  1.
     999900   -1    0    0    0    0 -0.00000000000E+00 -0.00000000000E+00 -0.74505805969E-08  0.93827000000E+00  0.93827000000E+00 0.  1.
     999902    2    1    2    0    0 -0.15181848779E-01  0.18491057070E-02  0.17663404824E-01  0.10205654201E+01  0.10202979335E+01 0.  0.
     999903    2    3    3    0    0  0.41914670545E-01 -0.83049636241E-01  0.91378184916E-01  0.13157628759E+00  0.17557479631E-01 0.  0.
         14    1    1    2    0    0  0.15181848779E-01 -0.18491057070E-02 -0.17663404824E-01  0.23364579907E-01  0.00000000000E+00 0. -1.
     999901    1    3    3    0    0 -0.57096519324E-01  0.84898741948E-01 -0.73714780092E-01  0.88898913250E+00  0.88000000000E+00 0. -1.
        -11    1    4    4    0    0  0.32481132130E-02 -0.18423452974E-01  0.12423528030E-01  0.22462836612E-01  0.51100000000E-03 0.  1.
         11    1    4    4    0    0  0.38666557332E-01 -0.64626183267E-01  0.78954656886E-01  0.10911345098E+00  0.51100000000E-03 0. -1.
</event>
<event>
 8    1  0.1078274E+005  0.1043930E+01  0.7957747E-01            NaN
         13   -1    0    0    0    0  0.00000000000E+00  0.00000000000E+00  0.74505805969E-08  0.10566000000E+00  0.10566000000E+00 0.  1.
     999900   -1    0    0    0    0 -0.00000000000E+00 -0.00000000000E+00 -0.74505805969E-08  0.93827000000E+00  0.93827000000E+00 0. -1.
     999902    2    1    2    0    0 -0.16761807667E-02  0.63048126041E-02  0.23343840107E-01  0.10196917015E+01  0.10194035859E+01 0.  0.
     999903    2    3    3    0    0  0.10946954902E-01 -0.61366374086E-01 -0.10910066060E+00  0.12712222025E+00  0.19272702161E-01 0.  0.
         14    1    1    2    0    0  0.16761807667E-02 -0.63048126041E-02 -0.23343840107E-01  0.24238298514E-01  0.00000000000E+00 0. -1.
     999901    1    3    3    0    0 -0.12623135668E-01  0.67671186690E-01  0.13244450071E+00  0.89256948123E+00  0.88000000000E+00 0.  1.
        -11    1    4    4    0    0 -0.41757685931E-02 -0.20661721589E-01 -0.45019500357E-01  0.49712778194E-01  0.51100000000E-03 0.  1.
         11    1    4    4    0    0  0.15122723495E-01 -0.40704652496E-01 -0.64081160242E-01  0.77409442058E-01  0.51100000000E-03 0. -1.
</event>
<event>
 8    1  0.1078274E+005  0.1043930E+01  0.7957747E-01            NaN
         13   -1    0    0    0    0  0.00000000000E+00  0.00000000000E+00  0.74505805969E-08  0.10566000000E+00  0.10566000000E+00 0.  1.
     999900   -1    0    0    0    0 -0.00000000000E+00 -0.00000000000E+00 -0.74505805969E-08  0.93827000000E+00  0.93827000000E+00 0.  1.
     999902    2    1    2    0    0  0.16730180325E-01  0.17485536171E-02 -0.85736613016E-02  0.10250497447E+01  0.10248758535E+01 0.  0.
     999903    2    3    3    0    0  0.11157046308E+00 -0.10003823155E-01 -0.76472436755E-01  0.13727553840E+00  0.21177704094E-01 0.  0.
         14    1    1    2    0    0 -0.16730180325E-01 -0.17485536171E-02  0.85736613016E-02  0.18880255336E-01  0.00000000000E+00 0.  1.
     999901    1    3    3    0    0 -0.94840282757E-01  0.11752376772E-01  0.67898775453E-01  0.88777420626E+00  0.88000000000E+00 0. -1.
        -11    1    4    4    0    0  0.78194402929E-01  0.27532555169E-02 -0.51206696174E-01  0.93511132596E-01  0.51100000000E-03 0. -1.
         11    1    4    4    0    0  0.33376060153E-01 -0.12757078672E-01 -0.25265740580E-01  0.43764405807E-01  0.51100000000E-03 0.  1.
</event>
<event>
 8    1  0.1078274E+005  0.1043930E+01  0.7957747E-01            NaN
         13   -1    0    0    0    0  0.00000000000E+00  0.00000000000E+00  0.74505805969E-08  0.10566000000E+00  0.10566000000E+00 0.  1.
     999900   -1    0    0    0    0 -0.00000000000E+00 -0.00000000000E+00 -0.74505805969E-08  0.93827000000E+00  0.93827000000E+00 0.  1.
     999902    2    1    2    0    0 -0.20607794776E-01 -0.46458437488E-02  0.10274313350E-01  0.10204390106E+01  0.10201685879E+01 0.  0.
     999903    2    3    3    0    0 -0.21674431469E-01  0.11256244192E+00 -0.58069023075E-01  0.13004037424E+00  0.19960039575E-01 0.  0.
         14    1    1    2    0    0  0.20607794776E-01  0.46458437488E-02 -0.10274313350E-01  0.23490989431E-01  0.00000000000E+00 0. -1.
     999901    1    3    3    0    0  0.10666366931E-02 -0.11720828567E+00  0.68343336425E-01  0.89039863633E+00  0.88000000000E+00 0.  1.
        -11    1    4    4    0    0 -0.11436918551E-01  0.89772672622E-01 -0.38714360046E-01  0.98432711282E-01  0.51100000000E-03 0.  1.
         11    1    4    4    0    0 -0.10237512918E-01  0.22789769302E-01 -0.19354663029E-01  0.31607662956E-01  0.51100000000E-03 0. -1.
</event>
<event>
 8    1  0.1078274E+005  0.1043930E+01  0.7957747E-01            NaN
         13   -1    0    0    0    0  0.00000000000E+00  0.00000000000E+00  0.74505805969E-08  0.10566000000E+00  0.10566000000E+00 0. -1.
     999900   -1    0    0    0    0 -0.00000000000E+00 -0.00000000000E+00 -0.74505805969E-08  0.93827000000E+00  0.93827000000E+00 0.  1.
     999902    2    1    2    0    0  0.15942703327E-01  0.15287574343E-01 -0.10033116742E-01  0.10196700917E+01  0.10193814560E+01 0.  0.
     999903    2    3    3    0    0  0.12610690828E-01  0.10616073211E+00 -0.75598593785E-01  0.13255799908E+00  0.20672328688E-01 0.  0.
         14    1    1    2    0    0 -0.15942703327E-01 -0.15287574343E-01  0.10033116742E-01  0.24259908290E-01  0.00000000000E+00 0. -1.
     999901    1    3    3    0    0  0.33320124997E-02 -0.90873157763E-01  0.65565477043E-01  0.88711209263E+00  0.88000000000E+00 0. -1.
        -11    1    4    4    0    0  0.74256216401E-02  0.97911631610E-01 -0.73296048110E-01  0.12253325773E+00  0.51100000000E-03 0. -1.
         11    1    4    4    0    0  0.51850691877E-02  0.82491004965E-02 -0.23025456749E-02  0.10024741347E-01  0.51100000000E-03 0.  1.
</event>
<event>
 8    1  0.1078274E+005  0.1043930E+01  0.7957747E-01            NaN
         13   -1    0    0    0    0  0.00000000000E+00  0.00000000000E+00  0.74505805969E-08  0.10566000000E+00  0.10566000000E+00 0.  1.
     999900   -1    0    0    0    0 -0.00000000000E+00 -0.00000000000E+00 -0.74505805969E-08  0.93827000000E+00  0.93827000000E+00 0.  1.
     999902    2    1    2    0    0  0.16203643780E-02  0.12838773517E-02 -0.23453165671E-01  0.10203858945E+01  0.10201142333E+01 0.  0.
     999903    2    3    3    0    0 -0.88621830144E-01 -0.75022928765E-01  0.52850977894E-01  0.12921323750E+00  0.20507712278E-01 0.  0.
         14    1    1    2    0    0 -0.16203643780E-02 -0.12838773517E-02  0.23453165671E-01  0.23544105457E-01  0.00000000000E+00 0.  1.
     999901    1    3    3    0    0  0.90242194522E-01  0.76306806117E-01 -0.76304143565E-01  0.89117265704E+00  0.88000000000E+00 0.  1.
        -11    1    4    4    0    0 -0.65235018655E-01 -0.48921786053E-01  0.45581264069E-01  0.93417672657E-01  0.51100000000E-03 0. -1.
         11    1    4    4    0    0 -0.23386811489E-01 -0.26101142712E-01  0.72697138256E-02  0.35795564846E-01  0.51100000000E-03 0.  1.
</event>
<event>
 8    1  0.1078274E+005  0.1043930E+01  0.7957747E-01            NaN
         13   -1    0    0    0    0  0.00000000000E+00  0.00000000000E+00  0.74505805969E-08  0.10566000000E+00  0.10566000000E+00 0. -1.
     999900   -1    0    0    0    0 -0.00000000000E+00 -0.00000000000E+00 -0.74505805969E-08  0.93827000000E+00  0.93827000000E+00 0.  1.
     999902    2    1    2    0    0  0.19062528413E-01 -0.47430920716E-02 -0.12289195942E-01  0.10207588704E+01  0.10204958452E+01 0.  0.
     999903    2    3    3    0    0  0.12155562461E+00 -0.23872564981E-01 -0.46860455926E-01  0.13392971910E+00  0.19889647999E-01 0.  0.
         14    1    1    2    0    0 -0.19062528413E-01  0.47430920716E-02  0.12289195942E-01  0.23171129640E-01  0.00000000000E+00 0. -1.
     999901    1    3    3    0    0 -0.10249309619E+00  0.19129472910E-01  0.34571259984E-01  0.88682915126E+00  0.88000000000E+00 0. -1.
        -11    1    4    4    0    0  0.53908429925E-01 -0.13836984918E-02 -0.16040277713E-01  0.56263532316E-01  0.51100000000E-03 0.  1.
         11    1    4    4    0    0  0.67647194681E-01 -0.22488866489E-01 -0.30820178213E-01  0.77666186788E-01  0.51100000000E-03 0. -1.
</event>
<event>
 8    1  0.1078274E+005  0.1043930E+01  0.7957747E-01            NaN
         13   -1    0    0    0    0  0.00000000000E+00  0.00000000000E+00  0.74505805969E-08  0.10566000000E+00  0.10566000000E+00 0. -1.
     999900   -1    0    0    0    0 -0.00000000000E+00 -0.00000000000E+00 -0.74505805969E-08  0.93827000000E+00  0.93827000000E+00 0. -1.
     999902    2    1    2    0    0  0.12321603038E-01 -0.21092749285E-01 -0.32085410474E-02  0.10192922097E+01  0.10189944004E+01 0.  0.
     999903    2    3    3    0    0  0.10692199085E+00  0.49369514786E-01  0.50975712420E-01  0.12976981127E+00  0.19287808168E-01 0.  0.
         14    1    1    2    0    0 -0.12321603038E-01  0.21092749285E-01  0.32085410474E-02  0.24637790272E-01  0.00000000000E+00 0. -1.
     999901    1    3    3    0    0 -0.94600387810E-01 -0.70462264071E-01 -0.54184253467E-01  0.88952239846E+00  0.88000000000E+00 0. -1.
        -11    1    4    4    0    0  0.61571856043E-01  0.17982019323E-01  0.29030596110E-01  0.70409396440E-01  0.51100000000E-03 0. -1.
         11    1    4    4    0    0  0.45350134804E-01  0.31387495463E-01  0.21945116310E-01  0.59360414832E-01  0.51100000000E-03 0.  1.
</event>
<event>
 8    1  0.1078274E+005  0.1043930E+01  0.7957747E-01            NaN
         13   -1    0    0    0    0  0.00000000000E+00  0.00000000000E+00  0.74505805969E-08  0.10566000000E+00  0.10566000000E+00 0.  1.
     999900   -1    0    0    0    0 -0.00000000000E+00 -0.00000000000E+00 -0.74505805969E-08  0.93827000000E+00  0.93827000000E+00 0.  1.
     999902    2    1    2    0    0 -0.40310347042E-02 -0.22473570042E-01 -0.47658009866E-02  0.10206056897E+01  0.10203391350E+01 0.  0.
     999903    2    3    3    0    0 -0.12366202317E+00 -0.40971041430E-01 -0.13528238609E-01  0.13227550889E+00  0.18516878875E-01 0.  0.
         14    1    1    2    0    0  0.40310347042E-02  0.22473570042E-01  0.47658009866E-02  0.23324310285E-01  0.00000000000E+00 0. -1.
     999901    1    3    3    0    0  0.11963098846E+00  0.18497471388E-01  0.87624376221E-02  0.88833018082E+00  0.88000000000E+00 0. -1.
        -11    1    4    4    0    0 -0.44932170620E-01 -0.83321453207E-02  0.15301639775E-02  0.45726656614E-01  0.51100000000E-03 0. -1.
         11    1    4    4    0    0 -0.78729852546E-01 -0.32638896109E-01 -0.15058402586E-01  0.86548852278E-01  0.51100000000E-03 0.  1.
</event>
<event>
 8    1  0.1078274E+005  0.1043930E+01  0.7957747E-01            NaN
         13   -1    0    0    0    0  0.00000000000E+00  0.00000000000E+00  0.74505805969E-08  0.10566000000E+00  0.10566000000E+00 0.  1.
     999900   -1    0    0    0    0 -0.00000000000E+00 -0.00000000000E+00 -0.74505805969E-08  0.93827000000E+00  0.93827000000E+00 0.  1.
     999902    2    1    2    0    0 -0.25582158928E-01 -0.68556615455E-02  0.20711417920E-01  0.10103084328E+01  0.10097488398E+01 0.  0.
     999903    2    3    3    0    0  0.10750187225E+00  0.15131624138E-01 -0.41569806146E-01  0.11785465192E+00  0.19392050170E-01 0.  0.
         14    1    1    2    0    0  0.25582158928E-01  0.68556615455E-02 -0.20711417920E-01  0.33621567228E-01  0.00000000000E+00 0.  1.
     999901    1    3    3    0    0 -0.13308403118E+00 -0.21987285684E-01  0.62281224066E-01  0.89245378085E+00  0.88000000000E+00 0. -1.
        -11    1    4    4    0    0  0.63143327543E-01 -0.77138572614E-03 -0.24300842138E-01  0.67664369492E-01  0.51100000000E-03 0. -1.
         11    1    4    4    0    0  0.44358544707E-01  0.15903009864E-01 -0.17268964007E-01  0.50190282428E-01  0.51100000000E-03 0.  1.
</event>
<event>
 8    1  0.1078274E+005  0.1043930E+01  0.7957747E-01            NaN
         13   -1    0    0    0    0  0.00000000000E+00  0.00000000000E+00  0.74505805969E-08  0.10566000000E+00  0.10566000000E+00 0. -1.
     999900   -1    0    0    0    0 -0.00000000000E+00 -0.00000000000E+00 -0.74505805969E-08  0.93827000000E+00  0.93827000000E+00 0.  1.
     999902    2    1    2    0    0  0.15634795676E-02 -0.13686858398E-01 -0.16405139790E-01  0.10225079746E+01  0.10222835492E+01 0.  0.
     999903    2    3    3    0    0  0.34202220650E-01  0.74734026914E-03 -0.12854207903E+00  0.13467447294E+00  0.21066493923E-01 0.  0.
         14    1    1    2    0    0 -0.15634795676E-02  0.13686858398E-01  0.16405139790E-01  0.21422025411E-01  0.00000000000E+00 0. -1.
     999901    1    3    3    0    0 -0.32638741082E-01 -0.14434198667E-01  0.11213693924E+00  0.88783350165E+00  0.88000000000E+00 0. -1.
        -11    1    4    4    0    0  0.24512609816E-01  0.93407283400E-02 -0.98930026553E-01  0.10235002941E+00  0.51100000000E-03 0.  1.
         11    1    4    4    0    0  0.96896108335E-02 -0.85933880708E-02 -0.29612052473E-01  0.32324443527E-01  0.51100000000E-03 0. -1.
</event>
<event>
 8    1  0.1078274E+005  0.1043930E+01  0.7957747E-01            NaN
         13   -1    0    0    0    0  0.00000000000E+00  0.00000000000E+00  0.74505805969E-08  0.10566000000E+00  0.10566000000E+00 0.  1.
     999900   -1    0    0    0    0 -0.00000000000E+00 -0.00000000000E+00 -0.74505805969E-08  0.93827000000E+00  0.93827000000E+00 0.  1.
     999902    2    1    2    0    0  0.22776168316E-01  0.11000975310E-01  0.16779769311E-01  0.10135764836E+01  0.10131218841E+01 0.  0.
     999903    2    3    3    0    0  0.66929150375E-01  0.78384030503E-01  0.73311868340E-01  0.12809026676E+00  0.20221745525E-01 0.  0.
         14    1    1    2    0    0 -0.22776168316E-01 -0.11000975310E-01 -0.16779769311E-01  0.30353516420E-01  0.00000000000E+00 0. -1.
     999901    1    3    3    0    0 -0.44152982060E-01 -0.67383055193E-01 -0.56532099029E-01  0.88548621682E+00  0.88000000000E+00 0.  1.
        -11    1    4    4    0    0  0.12527109618E-02  0.92877002625E-02  0.96213302168E-02  0.13441048213E-01  0.51100000000E-03 0. -1.
         11    1    4    4    0    0  0.65676439413E-01  0.69096330241E-01  0.63690538123E-01  0.11464921855E+00  0.51100000000E-03 0.  1.
</event>
<event>
 8    1  0.1078274E+005  0.1043930E+01  0.7957747E-01            NaN
         13   -1    0    0    0    0  0.00000000000E+00  0.00000000000E+00  0.74505805969E-08  0.10566000000E+00  0.10566000000E+00 0.  1.
     999900   -1    0    0    0    0 -0.00000000000E+00 -0.00000000000E+00 -0.74505805969E-08  0.93827000000E+00  0.93827000000E+00 0. -1.
     999902    2    1    2    0    0  0.21194747718E-01 -0.76941029707E-02 -0.67786255070E-02  0.10203850151E+01  0.10201133333E+01 0.  0.
     999903    2    3    3    0    0 -0.18044202139E-01 -0.37484126178E-01  0.12114775783E+00  0.12977157467E+00  0.20814163937E-01 0.  0.
         14    1    1    2    0    0 -0.21194747718E-01  0.76941029707E-02  0.67786255070E-02  0.23544984925E-01  0.00000000000E+00 0.  1.
     999901    1    3    3    0    0  0.39238949857E-01  0.29790023208E-01 -0.12792638334E+00  0.89061344040E+00  0.88000000000E+00 0. -1.
        -11    1    4    4    0    0  0.31524458908E-02 -0.13987462758E-01  0.29305394097E-01  0.32629040342E-01  0.51100000000E-03 0. -1.
         11    1    4    4    0    0 -0.21196648030E-01 -0.23496663421E-01  0.91842363732E-01  0.97142534333E-01  0.51100000000E-03 0.  1.
</event>
<event>
 8    1  0.1078274E+005  0.1043930E+01  0.7957747E-01            NaN
         13   -1    0    0    0    0  0.00000000000E+00  0.00000000000E+00  0.74505805969E-08  0.10566000000E+00  0.10566000000E+00 0. -1.
     999900   -1    0    0    0    0 -0.00000000000E+00 -0.00000000000E+00 -0.74505805969E-08  0.93827000000E+00  0.93827000000E+00 0.  1.
     999902    2    1    2    0    0  0.51764340548E-02 -0.24739466247E-01  0.48349397897E-02  0.10181964946E+01  0.10178712533E+01 0.  0.
     999903    2    3    3    0    0 -0.81252527527E-01  0.83981128460E-01 -0.42750860672E-01  0.12603364982E+00  0.20050975855E-01 0.  0.
         14    1    1    2    0    0 -0.51764340548E-02  0.24739466247E-01 -0.48349397897E-02  0.25733505445E-01  0.00000000000E+00 0. -1.
     999901    1    3    3    0    0  0.86428961582E-01 -0.10872059471E+00  0.47585800462E-01  0.89216284473E+00  0.88000000000E+00 0. -1.
        -11    1    4    4    0    0 -0.54360247490E-01  0.68098737458E-01 -0.34573901963E-01  0.93744815155E-01  0.51100000000E-03 0.  1.
         11    1    4    4    0    0 -0.26892280037E-01  0.15882391002E-01 -0.81769587096E-02  0.32288834668E-01  0.51100000000E-03 0. -1.
</event>
<event>
 8    1  0.1078274E+005  0.1043930E+01  0.7957747E-01            NaN
         13   -1    0    0    0    0  0.00000000000E+00  0.00000000000E+00  0.74505805969E-08  0.10566000000E+00  0.10566000000E+00 0.  1.
     999900   -1    0    0    0    0 -0.00000000000E+00 -0.00000000000E+00 -0.74505805969E-08  0.93827000000E+00  0.93827000000E+00 0.  1.
     999902    2    1    2    0    0 -0.23192593084E-01 -0.53593366446E-02  0.22345910587E-02  0.10200215860E+01  0.10197413513E+01 0.  0.
     999903    2    3    3    0    0  0.86060823550E-01 -0.51155631184E-03 -0.92326955560E-01  0.12822469425E+00  0.22595983104E-01 0.  0.
         14    1    1    2    0    0  0.23192593084E-01  0.53593366446E-02 -0.22345910587E-02  0.23908414009E-01  0.00000000000E+00 0. -1.
     999901    1    3    3    0    0 -0.10925341663E+00 -0.48477803328E-02  0.94561546619E-01  0.89179689174E+00  0.88000000000E+00 0. -1.
        -11    1    4    4    0    0  0.74995393177E-01 -0.77537313179E-02 -0.82339764533E-01  0.11164464739E+00  0.51100000000E-03 0.  1.
         11    1    4    4    0    0  0.11065430373E-01  0.72421750061E-02 -0.99871910265E-02  0.16580046857E-01  0.51100000000E-03 0. -1.
</event>
<event>
 8    1  0.1078274E+005  0.1043930E+01  0.7957747E-01            NaN
         13   -1    0    0    0    0  0.00000000000E+00  0.00000000000E+00  0.74505805969E-08  0.10566000000E+00  0.10566000000E+00 0.  1.
     999900   -1    0    0    0    0 -0.00000000000E+00 -0.00000000000E+00 -0.74505805969E-08  0.93827000000E+00  0.93827000000E+00 0.  1.
     999902    2    1    2    0    0  0.16162419242E-01 -0.12015543419E-01 -0.12158280685E-01  0.10204051011E+01  0.10201338880E+01 0.  0.
     999903    2    3    3    0    0 -0.95584576163E-01 -0.81480414562E-01  0.26147939584E-01  0.12979849556E+00  0.19709529367E-01 0.  0.
         14    1    1    2    0    0 -0.16162419242E-01  0.12015543419E-01  0.12158280685E-01  0.23524898908E-01  0.00000000000E+00 0. -1.
     999901    1    3    3    0    0  0.11174699540E+00  0.69464871142E-01 -0.38306220269E-01  0.89060660553E+00  0.88000000000E+00 0. -1.
        -11    1    4    4    0    0 -0.19455215702E-01 -0.18170152842E-01  0.13878075924E-01  0.30025355696E-01  0.51100000000E-03 0. -1.
         11    1    4    4    0    0 -0.76129360461E-01 -0.63310261719E-01  0.12269863660E-01  0.99773139864E-01  0.51100000000E-03 0.  1.
</event>
<event>
 8    1  0.1078274E+005  0.1043930E+01  0.7957747E-01            NaN
         13   -1    0    0    0    0  0.00000000000E+00  0.00000000000E+00  0.74505805969E-08  0.10566000000E+00  0.10566000000E+00 0. -1.
     999900   -1    0    0    0    0 -0.00000000000E+00 -0.00000000000E+00 -0.74505805969E-08  0.93827000000E+00  0.93827000000E+00 0. -1.
     999902    2    1    2    0    0  0.16526657244E-01  0.72182822395E-02  0.14312325559E-01  0.10209066062E+01  0.10206469625E+01 0.  0.
     999903    2    3    3    0    0 -0.27311931961E-01 -0.54722807924E-01  0.11537466942E+00  0.13187785646E+00  0.18437118733E-01 0.  0.
         14    1    1    2    0    0 -0.16526657244E-01 -0.72182822395E-02 -0.14312325559E-01  0.23023393778E-01  0.00000000000E+00 0. -1.
     999901    1    3    3    0    0  0.43838589206E-01  0.61941090164E-01 -0.10106234386E+00  0.88902874976E+00  0.88000000000E+00 0. -1.
        -11    1    4    4    0    0 -0.82042140766E-02 -0.34979928464E-01  0.57387503558E-01  0.67708870982E-01  0.51100000000E-03 0.  1.
         11    1    4    4    0    0 -0.19107717885E-01 -0.19742879460E-01  0.57987165859E-01  0.64168985480E-01  0.51100000000E-03 0. -1.
</event>
<event>
 8    1  0.1078274E+005  0.1043930E+01  0.7957747E-01            NaN
         13   -1    0    0    0    0  0.00000000000E+00  0.00000000000E+00  0.74505805969E-08  0.10566000000E+00  0.10566000000E+00 0.  1.
     999900   -1    0    0    0    0 -0.00000000000E+00 -0.00000000000E+00 -0.74505805969E-08  0.93827000000E+00  0.93827000000E+00 0. -1.
     999902    2    1    2    0    0 -0.96962855984E-02  0.11268070929E-03  0.22102354522E-01  0.10197940367E+01  0.10195083778E+01 0.  0.
     999903    2    3    3    0    0  0.34508759511E-01 -0.18996870213E-01 -0.11926186897E+00  0.12721176894E+00  0.20191711321E-01 0.  0.
         14    1    1    2    0    0  0.96962855984E-02 -0.11268070929E-03 -0.22102354522E-01  0.24135963349E-01  0.00000000000E+00 0. -1.
     999901    1    3    3    0    0 -0.44205045109E-01  0.19109550923E-01  0.14136422349E+00  0.89258226771E+00  0.88000000000E+00 0.  1.
        -11    1    4    4    0    0  0.30014102235E-01 -0.77955456354E-02 -0.97599908232E-01  0.10240908198E+00  0.51100000000E-03 0.  1.
         11    1    4    4    0    0  0.44946572759E-02 -0.11201324578E-01 -0.21661960736E-01  0.24802686956E-01  0.51100000000E-03 0. -1.
</event>
<event>
 8    1  0.1078274E+005  0.1043930E+01  0.7957747E-01            NaN
         13   -1    0    0    0    0  0.00000000000E+00  0.00000000000E+00  0.74505805969E-08  0.10566000000E+00  0.10566000000E+00 0. -1.
     999900   -1    0    0    0    0 -0.00000000000E+00 -0.00000000000E+00 -0.74505805969E-08  0.93827000000E+00  0.93827000000E+00 0.  1.
     999902    2    1    2    0    0  0.26209518579E-01 -0.19388094755E-02 -0.84716155091E-02  0.10163172110E+01  0.10159420295E+01 0.  0.
     999903    2    3    3    0    0  0.12967476202E-03 -0.12031717245E+00  0.35351097656E-01  0.12692751844E+00  0.19612649730E-01 0.  0.
         14    1    1    2    0    0 -0.26209518579E-01  0.19388094755E-02  0.84716155091E-02  0.27612788988E-01  0.00000000000E+00 0.  1.
     999901    1    3    3    0    0  0.26079843817E-01  0.11837836297E+00 -0.43822713165E-01  0.88938969258E+00  0.88000000000E+00 0. -1.
        -11    1    4    4    0    0 -0.21622186383E-02 -0.51982481792E-01  0.54982930924E-02  0.52319651668E-01  0.51100000000E-03 0.  1.
         11    1    4    4    0    0  0.22918934003E-02 -0.68334690655E-01  0.29852804564E-01  0.74607866768E-01  0.51100000000E-03 0. -1.
</event>
<event>
 8    1  0.1078274E+005  0.1043930E+01  0.7957747E-01            NaN
         13   -1    0    0    0    0  0.00000000000E+00  0.00000000000E+00  0.74505805969E-08  0.10566000000E+00  0.10566000000E+00 0.  1.
     999900   -1    0    0    0    0 -0.00000000000E+00 -0.00000000000E+00 -0.74505805969E-08  0.93827000000E+00  0.93827000000E+00 0.  1.
     999902    2    1    2    0    0  0.28250980367E-03  0.22252008534E-02  0.24611343108E-01  0.10192166526E+01  0.10189169914E+01 0.  0.
     999903    2    3    3    0    0 -0.32116923514E-01 -0.11267689058E+00 -0.48109124820E-01  0.12818327479E+00  0.19720182502E-01 0.  0.
         14    1    1    2    0    0 -0.28250980367E-03 -0.22252008534E-02 -0.24611343108E-01  0.24713347410E-01  0.00000000000E+00 0. -1.
     999901    1    3    3    0    0  0.32399433318E-01  0.11490209144E+00  0.72720467928E-01  0.89103337780E+00  0.88000000000E+00 0. -1.
        -11    1    4    4    0    0 -0.20355273526E-01 -0.43263206071E-01 -0.13227936227E-01  0.49611304938E-01  0.51100000000E-03 0.  1.
         11    1    4    4    0    0 -0.11761649988E-01 -0.69413684512E-01 -0.34881188593E-01  0.78571969853E-01  0.51100000000E-03 0. -1.
</event>
<event>
 8    1  0.1078274E+005  0.1043930E+01  0.7957747E-01            NaN
         13   -1    0    0    0    0  0.00000000000E+00  0.00000000000E+00  0.74505805969E-08  0.10566000000E+00  0.10566000000E+00 0. -1.
     999900   -1    0    0    0    0 -0.00000000000E+00 -0.00000000000E+00 -0.74505805969E-08  0.93827000000E+00  0.93827000000E+00 0. -1.
     999902    2    1    2    0    0  0.17159190896E-01 -0.11802247666E-01  0.11133016918E-01  0.10203148577E+01  0.10200415353E+01 0.  0.
     999903    2    3    3    0    0 -0.11692354317E+00 -0.12741386450E-01 -0.47423253294E-01  0.12823420080E+00  0.19015452260E-01 0.  0.
         14    1    1    2    0    0 -0.17159190896E-01  0.11802247666E-01 -0.11133016918E-01  0.23615142343E-01  0.00000000000E+00 0.  1.
     999901    1    3    3    0    0  0.13408273407E+00  0.93913878381E-03  0.58556270213E-01  0.89208065686E+00  0.88000000000E+00 0. -1.
        -11    1    4    4    0    0 -0.15175758587E-01  0.45830413790E-02 -0.48572614934E-02  0.16588008536E-01  0.51100000000E-03 0.  1.
         11    1    4    4    0    0 -0.10174778459E+00 -0.17324427829E-01 -0.42565991801E-01  0.11164619226E+00  0.51100000000E-03 0. -1.
</event>
<event>
 8    1  0.1078274E+005  0.1043930E+01  0.7957747E-01            NaN
         13   -1    0    0    0    0  0.00000000000E+00  0.00000000000E+00  0.74505805969E-08  0.10566000000E+00  0.10566000000E+00 0. -1.
     999900   -1    0    0    0    0 -0.00000000000E+00 -0.00000000000E+00 -0.74505805969E-08  0.93827000000E+00  0.93827000000E+00 0.  1.
     999902    2    1    2    0    0 -0.16922245715E-01  0.16101621308E-01 -0.50937476043E-02  0.10200224515E+01  0.10197422374E+01 0.  0.
     999903    2    3    3    0    0 -0.28403900581E-01 -0.16542460481E-01  0.12404444349E+00  0.12992462721E+00  0.20321176858E-01 0.  0.
         14    1    1    2    0    0  0.16922245715E-01 -0.16101621308E-01  0.50937476043E-02  0.23907548462E-01  0.00000000000E+00 0. -1.
     999901    1    3    3    0    0  0.11481654866E-01  0.32644081789E-01 -0.12913819109E+00  0.89009782433E+00  0.88000000000E+00 0.  1.
        -11    1    4    4    0    0 -0.49434586078E-02 -0.14039430989E-01  0.53714653432E-01  0.55741084666E-01  0.51100000000E-03 0. -1.
         11    1    4    4    0    0 -0.23460441973E-01 -0.25030294918E-02  0.70329790055E-01  0.74183542544E-01  0.51100000000E-03 0.  1.
</event>
<event>
 8    1  0.1078274E+005  0.1043930E+01  0.7957747E-01            NaN
         13   -1    0    0    0    0  0.00000000000E+00  0.00000000000E+00  0.74505805969E-08  0.10566000000E+00  0.10566000000E+00 0. -1.
     999900   -1    0    0    0    0 -0.00000000000E+00 -0.00000000000E+00 -0.74505805969E-08  0.93827000000E+00  0.93827000000E+00 0. -1.
     999902    2    1    2    0    0 -0.16011241912E-01 -0.12836389757E-01  0.11651132315E-01  0.10203316599E+01  0.10200587310E+01 0.  0.
     999903    2    3    3    0    0 -0.83648078299E-01  0.98441996665E-01  0.48011473324E-02  0.13072245179E+00  0.19428861937E-01 0.  0.
         14    1    1    2    0    0  0.16011241912E-01  0.12836389757E-01 -0.11651132315E-01  0.23598340064E-01  0.00000000000E+00 0.  1.
     999901    1    3    3    0    0  0.67636836387E-01 -0.11127838642E+00  0.68499849827E-02  0.88960920814E+00  0.88000000000E+00 0. -1.
        -11    1    4    4    0    0 -0.20205698562E-01  0.29940549082E-01  0.91079897554E-02  0.37254843069E-01  0.51100000000E-03 0.  1.
         11    1    4    4    0    0 -0.63442379737E-01  0.68501447583E-01 -0.43068424230E-02  0.93467608723E-01  0.51100000000E-03 0. -1.
</event>
<event>
 8    1  0.1078274E+005  0.1043930E+01  0.7957747E-01            NaN
         13   -1    0    0    0    0  0.00000000000E+00  0.00000000000E+00  0.74505805969E-08  0.10566000000E+00  0.10566000000E+00 0.  1.
     999900   -1    0    0    0    0 -0.00000000000E+00 -0.00000000000E+00 -0.74505805969E-08  0.93827000000E+00  0.93827000000E+00 0. -1.
     999902    2    1    2    0    0 -0.76884417262E-02 -0.94901644614E-02  0.34580636627E-01  0.10072558158E+01  0.10065879408E+01 0.  0.
     999903    2    3    3    0    0 -0.38095829244E-01 -0.88499701235E-01  0.72699623492E-01  0.12237154467E+00  0.20151187691E-01 0.  0.
         14    1    1    2    0    0  0.76884417262E-02  0.94901644614E-02 -0.34580636627E-01  0.36674184207E-01  0.00000000000E+00 0. -1.
     999901    1    3    3    0    0  0.30407387518E-01  0.79009536773E-01 -0.38118986864E-01  0.88488427112E+00  0.88000000000E+00 0. -1.
        -11    1    4    4    0    0 -0.14391563305E-01 -0.56861798853E-01  0.39183852467E-01  0.70540886571E-01  0.51100000000E-03 0. -1.
         11    1    4    4    0    0 -0.23704265939E-01 -0.31637902382E-01  0.33515771025E-01  0.51830658102E-01  0.51100000000E-03 0.  1.
</event>
<event>
 8    1  0.1078274E+005  0.1043930E+01  0.7957747E-01            NaN
         13   -1    0    0    0    0  0.00000000000E+00  0.00000000000E+00  0.74505805969E-08  0.10566000000E+00  0.10566000000E+00 0.  1.
     999900   -1    0    0    0    0 -0.00000000000E+00 -0.00000000000E+00 -0.74505805969E-08  0.93827000000E+00  0.93827000000E+00 0. -1.
     999902    2    1    2    0    0  0.38999296987E-02 -0.17156966279E-02  0.23431234492E-01  0.10201145467E+01  0.10198365127E+01 0.  0.
     999903    2    3    3    0    0 -0.12142396860E+00  0.11457869423E-01 -0.36867706268E-01  0.12909513917E+00  0.20766903191E-01 0.  0.
         14    1    1    2    0    0 -0.38999296987E-02  0.17156966279E-02 -0.23431234492E-01  0.23815453311E-01  0.00000000000E+00 0. -1.
     999901    1    3    3    0    0  0.12532389830E+00 -0.13173566051E-01  0.60298940760E-01  0.89101940752E+00  0.88000000000E+00 0. -1.
        -11    1    4    4    0    0 -0.48745208755E-01 -0.33632475858E-02 -0.21291689038E-01  0.53301068976E-01  0.51100000000E-03 0. -1.
         11    1    4    4    0    0 -0.72678759847E-01  0.14821117008E-01 -0.15576017230E-01  0.75794070190E-01  0.51100000000E-03 0.  1.
</event>
<event>
 8    1  0.1078274E+005  0.1043930E+01  0.7957747E-01            NaN
         13   -1    0    0    0    0  0.00000000000E+00  0.00000000000E+00  0.74505805969E-08  0.10566000000E+00  0.10566000000E+00 0.  1.
     999900   -1    0    0    0    0 -0.00000000000E+00 -0.00000000000E+00 -0.74505805969E-08  0.93827000000E+00  0.93827000000E+00 0.  1.
     999902    2    1    2    0    0 -0.17474913266E-01 -0.12995676928E-01 -0.78070927933E-02  0.10207953742E+01  0.10205331867E+01 0.  0.
     999903    2    3    3    0    0 -0.95014698518E-01  0.82571737917E-01 -0.34252464158E-01  0.13183817235E+00  0.19031225669E-01 0.  0.
         14    1    1    2    0    0  0.17474913266E-01  0.12995676928E-01  0.78070927933E-02  0.23134625788E-01  0.00000000000E+00 0. -1.
     999901    1    3    3    0    0  0.77539785252E-01 -0.95567414845E-01  0.26445371365E-01  0.88895720186E+00  0.88000000000E+00 0. -1.
        -11    1    4    4    0    0 -0.53511873463E-01  0.57623260532E-01 -0.17219013526E-01  0.80502896244E-01  0.51100000000E-03 0.  1.
         11    1    4    4    0    0 -0.41502825055E-01  0.24948477384E-01 -0.17033450633E-01  0.51335276105E-01  0.51100000000E-03 0. -1.
</event>
<event>
 8    1  0.1078274E+005  0.1043930E+01  0.7957747E-01            NaN
         13   -1    0    0    0    0  0.00000000000E+00  0.00000000000E+00  0.74505805969E-08  0.10566000000E+00  0.10566000000E+00 0. -1.
     999900   -1    0    0    0    0 -0.00000000000E+00 -0.00000000000E+00 -0.74505805969E-08  0.93827000000E+00  0.93827000000E+00 0.  1.
     999902    2    1    2    0    0 -0.21754228246E-01 -0.16805463711E-01  0.60086611675E-02  0.10157915198E+01  0.10154017125E+01 0.  0.
     999903    2    3    3    0    0 -0.40773684874E-01 -0.10465984123E+00  0.61447248050E-01  0.12947692089E+00  0.19295932386E-01 0.  0.
         14    1    1    2    0    0  0.21754228246E-01  0.16805463711E-01 -0.60086611675E-02  0.28138480167E-01  0.00000000000E+00 0. -1.
     999901    1    3    3    0    0  0.19019456628E-01  0.87854377517E-01 -0.55438586883E-01  0.88631459894E+00  0.88000000000E+00 0.  1.
        -11    1    4    4    0    0 -0.30274374275E-01 -0.91461366328E-01  0.57325061071E-01  0.11210772951E+00  0.51100000000E-03 0.  1.
         11    1    4    4    0    0 -0.10499310599E-01 -0.13198474900E-01  0.41221869797E-02  0.17369191381E-01  0.51100000000E-03 0. -1.
</event>
<event>
 8    1  0.1078274E+005  0.1043930E+01  0.7957747E-01            NaN
         13   -1    0    0    0    0  0.00000000000E+00  0.00000000000E+00  0.74505805969E-08  0.10566000000E+00  0.10566000000E+00 0. -1.
     999900   -1    0    0    0    0 -0.00000000000E+00 -0.00000000000E+00 -0.74505805969E-08  0.93827000000E+00  0.93827000000E+00 0.  1.
     999902    2    1    2    0    0 -0.32909481363E-02  0.16931641425E-01  0.15925825693E-01  0.10204535704E+01  0.10201834868E+01 0.  0.
     999903    2    3    3    0    0  0.11745328583E+00  0.31915979713E-01 -0.42633181519E-01  0.13015426248E+00  0.17568146235E-01 0.  0.
         14    1    1    2    0    0  0.32909481363E-02 -0.16931641425E-01 -0.15925825693E-01  0.23476429562E-01  0.00000000000E+00 0.  1.
     999901    1    3    3    0    0 -0.12074423396E+00 -0.14984338288E-01  0.58559007212E-01  0.89029930796E+00  0.88000000000E+00 0. -1.
        -11    1    4    4    0    0  0.74859750695E-01  0.26572065435E-01 -0.33774086354E-01  0.86319215506E-01  0.51100000000E-03 0. -1.
         11    1    4    4    0    0  0.42593535132E-01  0.53439142777E-02 -0.88590951654E-02  0.43835046972E-01  0.51100000000E-03 0.  1.
</event>
<event>
 8    1  0.1078274E+005  0.1043930E+01  0.7957747E-01            NaN
         13   -1    0    0    0    0  0.00000000000E+00  0.00000000000E+00  0.74505805969E-08  0.10566000000E+00  0.10566000000E+00 0.  1.
     999900   -1    0    0    0    0 -0.00000000000E+00 -0.00000000000E+00 -0.74505805969E-08  0.93827000000E+00  0.93827000000E+00 0. -1.
     999902    2    1    2    0    0 -0.16642867228E-01 -0.11163197293E-01  0.89193294873E-02  0.10219947215E+01  0.10217592938E+01 0.  0.
     999903    2    3    3    0    0 -0.32228512843E-01  0.79425549742E-01  0.99164138922E-01  0.13261664721E+00  0.20163176264E-01 0.  0.
         14    1    1    2    0    0  0.16642867228E-01  0.11163197293E-01 -0.89193294873E-02  0.21935278477E-01  0.00000000000E+00 0. -1.
     999901    1    3    3    0    0  0.15585645616E-01 -0.90588747036E-01 -0.90244809435E-01  0.88937807431E+00  0.88000000000E+00 0. -1.
        -11    1    4    4    0    0 -0.27903205713E-01  0.69105862710E-01  0.73780629848E-01  0.10487159583E+00  0.51100000000E-03 0.  1.
         11    1    4    4    0    0 -0.43253071305E-02  0.10319687033E-01  0.25383509074E-01  0.27745051381E-01  0.51100000000E-03 0. -1.
</event>
<event>
 8    1  0.1078274E+005  0.1043930E+01  0.7957747E-01            NaN
         13   -1    0    0    0    0  0.00000000000E+00  0.00000000000E+00  0.74505805969E-08  0.10566000000E+00  0.10566000000E+00 0. -1.
     999900   -1    0    0    0    0 -0.00000000000E+00 -0.00000000000E+00 -0.74505805969E-08  0.93827000000E+00  0.93827000000E+00 0.  1.
     999902    2    1    2    0    0  0.48555154382E-02 -0.22220322115E-01 -0.64571686582E-02  0.10202865279E+01  0.10200125417E+01 0.  0.
     999903    2    3    3    0    0 -0.67648634934E-01 -0.63125280331E-01  0.90614999050E-01  0.13104355034E+00  0.20004879589E-01 0.  0.
         14    1    1    2    0    0 -0.48555154382E-02  0.22220322115E-01  0.64571686582E-02  0.23643472083E-01  0.00000000000E+00 0. -1.
     999901    1    3    3    0    0  0.72504150372E-01  0.40904958216E-01 -0.97072167708E-01  0.88924297758E+00  0.88000000000E+00 0. -1.
        -11    1    4    4    0    0 -0.22101854452E-01 -0.89024990636E-02  0.23857021327E-01  0.33721877875E-01  0.51100000000E-03 0. -1.
         11    1    4    4    0    0 -0.45546780483E-01 -0.54222781267E-01  0.66757977723E-01  0.97321672465E-01  0.51100000000E-03 0.  1.
</event>
<event>
 8    1  0.1078274E+005  0.1043930E+01  0.7957747E-01            NaN
         13   -1    0    0    0    0  0.00000000000E+00  0.00000000000E+00  0.74505805969E-08  0.10566000000E+00  0.10566000000E+00 0. -1.
     999900   -1    0    0    0    0 -0.00000000000E+00 -0.00000000000E+00 -0.74505805969E-08  0.93827000000E+00  0.93827000000E+00 0. -1.
     999902    2    1    2    0    0 -0.20376253601E-01  0.10619776796E-01 -0.72237125072E-02  0.10198436264E+01  0.10195591542E+01 0.  0.
     999903    2    3    3    0    0  0.57159826442E-01  0.11316812145E+00  0.22073722833E-01  0.13001985374E+00  0.18537628090E-01 0.  0.
         14    1    1    2    0    0  0.20376253601E-01 -0.10619776796E-01  0.72237125072E-02  0.24086373583E-01  0.00000000000E+00 0. -1.
     999901    1    3    3    0    0 -0.77536080042E-01 -0.10254834466E+00 -0.29297435340E-01  0.88982377268E+00  0.88000000000E+00 0. -1.
        -11    1    4    4    0    0  0.24686927871E-01  0.64361064673E-01  0.18038969803E-01  0.71256274153E-01  0.51100000000E-03 0.  1.
         11    1    4    4    0    0  0.32472898570E-01  0.48807056780E-01  0.40347530303E-02  0.58763579589E-01  0.51100000000E-03 0. -1.
</event>
<event>
 8    1  0.1078274E+005  0.1043930E+01  0.7957747E-01            NaN
         13   -1    0    0    0    0  0.00000000000E+00  0.00000000000E+00  0.74505805969E-08  0.10566000000E+00  0.10566000000E+00 0. -1.
     999900   -1    0    0    0    0 -0.00000000000E+00 -0.00000000000E+00 -0.74505805969E-08  0.93827000000E+00  0.93827000000E+00 0. -1.
     999902    2    1    2    0    0  0.47375395869E-02 -0.19134544491E-01 -0.10065457505E-01  0.10217965748E+01  0.10215568275E+01 0.  0.
     999903    2    3    3    0    0 -0.12578904732E+00  0.33992253393E-02 -0.32896429830E-01  0.13159086044E+00  0.19988504077E-01 0.  0.
         14    1    1    2    0    0 -0.47375395869E-02  0.19134544491E-01  0.10065457505E-01  0.22133425153E-01  0.00000000000E+00 0. -1.
     999901    1    3    3    0    0  0.13052658691E+00 -0.22533769830E-01  0.22830972325E-01  0.89020571441E+00  0.88000000000E+00 0.  1.
        -11    1    4    4    0    0 -0.75497399493E-01  0.11818290676E-01 -0.19659113467E-01  0.78906724606E-01  0.51100000000E-03 0.  1.
         11    1    4    4    0    0 -0.50291647830E-01 -0.84190653371E-02 -0.13237316363E-01  0.52684135830E-01  0.51100000000E-03 0. -1.
</event>
<event>
 8    1  0.1078274E+005  0.1043930E+01  0.7957747E-01            NaN
         13   -1    0    0    0    0  0.00000000000E+00  0.00000000000E+00  0.74505805969E-08  0.10566000000E+00  0.10566000000E+00 0.  1.
     999900   -1    0    0    0    0 -0.00000000000E+00 -0.00000000000E+00 -0.74505805969E-08  0.93827000000E+00  0.93827000000E+00 0. -1.
     999902    2    1    2    0    0 -0.17682399148E-01  0.12695944612E-01  0.11163449881E-01  0.10194662132E+01  0.10191726464E+01 0.  0.
     999903    2    3    3    0    0 -0.10378523816E+00  0.20557918819E-01 -0.74666287997E-01  0.13107313953E+00  0.20275839203E-01 0.  0.
         14    1    1    2    0    0  0.17682399148E-01 -0.12695944612E-01 -0.11163449881E-01  0.24463786756E-01  0.00000000000E+00 0. -1.
     999901    1    3    3    0    0  0.86102839015E-01 -0.78619742074E-02  0.85829737878E-01  0.88839307372E+00  0.88000000000E+00 0.  1.
        -11    1    4    4    0    0 -0.32956630928E-01  0.15261394517E-01 -0.30530357472E-01  0.47449062510E-01  0.51100000000E-03 0.  1.
         11    1    4    4    0    0 -0.70828607235E-01  0.52965243024E-02 -0.44135930525E-01  0.83624077016E-01  0.51100000000E-03 0. -1.
</event>
<event>
 8    1  0.1078274E+005  0.1043930E+01  0.7957747E-01            NaN
         13   -1    0    0    0    0  0.00000000000E+00  0.00000000000E+00  0.74505805969E-08  0.10566000000E+00  0.10566000000E+00 0. -1.
     999900   -1    0    0    0    0 -0.00000000000E+00 -0.00000000000E+00 -0.74505805969E-08  0.93827000000E+00  0.93827000000E+00 0.  1.
     999902    2    1    2    0    0  0.89222016124E-02  0.63848390365E-02 -0.21429683084E-01  0.10198550510E+01  0.10195708518E+01 0.  0.
     999903    2    3    3    0    0  0.12451938915E+00 -0.36089575908E-01  0.62072455205E-02  0.13084965986E+00  0.16600235685E-01 0.  0.
         14    1    1    2    0    0 -0.89222016124E-02 -0.63848390365E-02  0.21429683084E-01  0.24074948977E-01  0.00000000000E+00 0. -1.
     999901    1    3    3    0    0 -0.11559718754E+00  0.42474414944E-01 -0.27636928605E-01  0.88900539116E+00  0.88000000000E+00 0.  1.
        -11    1    4    4    0    0  0.54602340746E-01 -0.22194961995E-01  0.83481138260E-02  0.59531370539E-01  0.51100000000E-03 0. -1.
         11    1    4    4    0    0  0.69917048407E-01 -0.13894613913E-01 -0.21408683054E-02  0.71318289322E-01  0.51100000000E-03 0.  1.
</event>
<event>
 8    1  0.1078274E+005  0.1043930E+01  0.7957747E-01            NaN
         13   -1    0    0    0    0  0.00000000000E+00  0.00000000000E+00  0.74505805969E-08  0.10566000000E+00  0.10566000000E+00 0. -1.
     999900   -1    0    0    0    0 -0.00000000000E+00 -0.00000000000E+00 -0.74505805969E-08  0.93827000000E+00  0.93827000000E+00 0. -1.
     999902    2    1    2    0    0  0.10925002489E-01 -0.11675759856E-01 -0.17286739830E-01  0.10203819550E+01  0.10201102018E+01 0.  0.
     999903    2    3    3    0    0  0.85785034637E-01 -0.15479924064E-01  0.94542597942E-01  0.13014361792E+00  0.20008954098E-01 0.  0.
         14    1    1    2    0    0 -0.10925002489E-01  0.11675759856E-01  0.17286739830E-01  0.23548044962E-01  0.00000000000E+00 0. -1.
     999901    1    3    3    0    0 -0.74860032148E-01  0.38041642086E-02 -0.11182933777E+00  0.89023833711E+00  0.88000000000E+00 0. -1.
        -11    1    4    4    0    0  0.47815313633E-01 -0.10677293300E-01  0.66932137295E-01  0.82948664450E-01  0.51100000000E-03 0.  1.
         11    1    4    4    0    0  0.37969721004E-01 -0.48026307640E-02  0.27610460647E-01  0.47194953475E-01  0.51100000000E-03 0. -1.
</event>
<event>
 8    1  0.1078274E+005  0.1043930E+01  0.7957747E-01            NaN
         13   -1    0    0    0    0  0.00000000000E+00  0.00000000000E+00  0.74505805969E-08  0.10566000000E+00  0.10566000000E+00 0.  1.
     999900   -1    0    0    0    0 -0.00000000000E+00 -0.00000000000E+00 -0.74505805969E-08  0.93827000000E+00  0.93827000000E+00 0.  1.
     999902    2    1    2    0    0 -0.59372927241E-02 -0.12614077014E-01  0.19664624078E-01  0.10198247345E+01  0.10195398106E+01 0.  0.
     999903    2    3    3    0    0 -0.82330863269E-01 -0.90407967652E-01 -0.42247502971E-01  0.13093723966E+00  0.20192512493E-01 0.  0.
         14    1    1    2    0    0  0.59372927241E-02  0.12614077014E-01 -0.19664624078E-01  0.24105265482E-01  0.00000000000E+00 0. -1.
     999901    1    3    3    0    0  0.76393570545E-01  0.77793890638E-01  0.61912127049E-01  0.88888749486E+00  0.88000000000E+00 0. -1.
        -11    1    4    4    0    0 -0.18742169791E-01 -0.15929525969E-01 -0.16674375208E-01  0.29720609611E-01  0.51100000000E-03 0.  1.
         11    1    4    4    0    0 -0.63588693478E-01 -0.74478441683E-01 -0.25573127762E-01  0.10121663005E+00  0.51100000000E-03 0. -1.
</event>
<event>
 8    1  0.1078274E+005  0.1043930E+01  0.7957747E-01            NaN
         13   -1    0    0    0    0  0.00000000000E+00  0.00000000000E+00  0.74505805969E-08  0.10566000000E+00  0.10566000000E+00 0. -1.
     999900   -1    0    0    0    0 -0.00000000000E+00 -0.00000000000E+00 -0.74505805969E-08  0.93827000000E+00  0.93827000000E+00 0.  1.
     999902    2    1    2    0    0 -0.16665690928E-01  0.25947177984E-02  0.14071230471E-01  0.10219646331E+01  0.10217285520E+01 0.  0.
     999903    2    3    3    0    0  0.16681865960E-01  0.99536554669E-01  0.83511253464E-01  0.13329613697E+00  0.24656039991E-01 0.  0.
         14    1    1    2    0    0  0.16665690928E-01 -0.25947177984E-02 -0.14071230471E-01  0.21965366865E-01  0.00000000000E+00 0.  1.
     999901    1    3    3    0    0 -0.33347556887E-01 -0.96941836871E-01 -0.69440022993E-01  0.88866849617E+00  0.88000000000E+00 0.  1.
        -11    1    4    4    0    0  0.10680832986E-01  0.16317278522E-01  0.92187667134E-02  0.21577315689E-01  0.51100000000E-03 0. -1.
         11    1    4    4    0    0  0.60010329733E-02  0.83219276148E-01  0.74292486751E-01  0.11171882128E+00  0.51100000000E-03 0.  1.
</event>
<event>
 8    1  0.1078274E+005  0.1043930E+01  0.7957747E-01            NaN
         13   -1    0    0    0    0  0.00000000000E+00  0.00000000000E+00  0.74505805969E-08  0.10566000000E+00  0.10566000000E+00 0.  1.
     999900   -1    0    0    0    0 -0.00000000000E+00 -0.00000000000E+00 -0.74505805969E-08  0.93827000000E+00  0.93827000000E+00 0. -1.
     999902    2    1    2    0    0  0.13268798101E-01 -0.19602270443E-01  0.13628370030E-02  0.10202199318E+01  0.10199443818E+01 0.  0.
     999903    2    3    3    0    0 -0.84688218333E-01 -0.82266398248E-01  0.53166156747E-01  0.13105967969E+00  0.20252032312E-01 0.  0.
         14    1    1    2    0    0 -0.13268798101E-01  0.19602270443E-01 -0.13628370030E-02  0.23710068205E-01  0.00000000000E+00 0. -1.
     999901    1    3    3    0    0  0.97957016435E-01  0.62664127805E-01 -0.51803319744E-01  0.88916025210E+00  0.88000000000E+00 0. -1.
        -11    1    4    4    0    0 -0.53120672889E-01 -0.57952104738E-01  0.25890500594E-01  0.82769749750E-01  0.51100000000E-03 0. -1.
         11    1    4    4    0    0 -0.31567545444E-01 -0.24314293511E-01  0.27275656153E-01  0.48289929943E-01  0.51100000000E-03 0.  1.
</event>
<event>
 8    1  0.1078274E+005  0.1043930E+01  0.7957747E-01            NaN
         13   -1    0    0    0    0  0.00000000000E+00  0.00000000000E+00  0.74505805969E-08  0.10566000000E+00  0.10566000000E+00 0.  1.
     999900   -1    0    0    0    0 -0.00000000000E+00 -0.00000000000E+00 -0.74505805969E-08  0.93827000000E+00  0.93827000000E+00 0.  1.
     999902    2    1    2    0    0 -0.41316645896E-02  0.20515673645E-01  0.14094334747E-01  0.10186987933E+01  0.10183862812E+01 0.  0.
     999903    2    3    3    0    0 -0.93658384315E-01  0.54874295585E-01 -0.68096246112E-01  0.12968201058E+00  0.19930977546E-01 0.  0.
         14    1    1    2    0    0  0.41316645896E-02 -0.20515673645E-01 -0.14094334747E-01  0.25231206656E-01  0.00000000000E+00 0. -1.
     999901    1    3    3    0    0  0.89526719726E-01 -0.34358621940E-01  0.82190580859E-01  0.88901678276E+00  0.88000000000E+00 0. -1.
        -11    1    4    4    0    0 -0.17384850364E-01  0.33662850018E-02 -0.62075772091E-02  0.18771255491E-01  0.51100000000E-03 0. -1.
         11    1    4    4    0    0 -0.76273533951E-01  0.51508010583E-01 -0.61888668903E-01  0.11091075509E+00  0.51100000000E-03 0.  1.
</event>
<event>
 8    1  0.1078274E+005  0.1043930E+01  0.7957747E-01            NaN
         13   -1    0    0    0    0  0.00000000000E+00  0.00000000000E+00  0.74505805969E-08  0.10566000000E+00  0.10566000000E+00 0. -1.
     999900   -1    0    0    0    0 -0.00000000000E+00 -0.00000000000E+00 -0.74505805969E-08  0.93827000000E+00  0.93827000000E+00 0. -1.
     999902    2    1    2    0    0  0.72570870853E-02  0.21148401028E-01 -0.66414818487E-02  0.10206055609E+01  0.10203390032E+01 0.  0.
     999903    2    3    3    0    0  0.88871918002E-03 -0.10403937552E+00  0.72772100464E-01  0.12818242550E+00  0.17606081950E-01 0.  0.
         14    1    1    2    0    0 -0.72570870853E-02 -0.21148401028E-01  0.66414818487E-02  0.23324439117E-01  0.00000000000E+00 0. -1.
     999901    1    3    3    0    0  0.63683679052E-02  0.12518777655E+00 -0.79413582312E-01  0.89242313538E+00  0.88000000000E+00 0.  1.
        -11    1    4    4    0    0  0.75991051761E-02 -0.48880101791E-01  0.40414667704E-01  0.63879709119E-01  0.51100000000E-03 0. -1.
         11    1    4    4    0    0 -0.67103859960E-02 -0.55159273728E-01  0.32357432759E-01  0.64302716383E-01  0.51100000000E-03 0.  1.
</event>
<event>
 8    1  0.1078274E+005  0.1043930E+01  0.7957747E-01            NaN
         13   -1    0    0    0    0  0.00000000000E+00  0.00000000000E+00  0.74505805969E-08  0.10566000000E+00  0.10566000000E+00 0.  1.
     999900   -1    0    0    0    0 -0.00000000000E+00 -0.00000000000E+00 -0.74505805969E-08  0.93827000000E+00  0.93827000000E+00 0.  1.
     999902    2    1    2    0    0  0.72971725498E-02  0.70468997758E-02  0.21585523203E-01  0.10200795842E+01  0.10198007235E+01 0.  0.
     999903    2    3    3    0    0  0.67087313704E-01 -0.85644088337E-01  0.71575918255E-01  0.13178598413E+00  0.20219199113E-01 0.  0.
         14    1    1    2    0    0 -0.72971725498E-02 -0.70468997758E-02 -0.21585523203E-01  0.23850415837E-01  0.00000000000E+00 0. -1.
     999901    1    3    3    0    0 -0.59790141154E-01  0.92690988113E-01 -0.49990395052E-01  0.88829360003E+00  0.88000000000E+00 0.  1.
        -11    1    4    4    0    0  0.41935213969E-01 -0.52334065959E-01  0.55512470928E-01  0.87059245230E-01  0.51100000000E-03 0.  1.
         11    1    4    4    0    0  0.25152099735E-01 -0.33310022378E-01  0.16063447327E-01  0.44726738903E-01  0.51100000000E-03 0. -1.
</event>
<event>
 8    1  0.1242229E+005  0.1043930E+01  0.7957747E-01            NaN
         13   -1    0    0    0    0  0.00000000000E+00  0.00000000000E+00  0.74505805969E-08  0.10566000000E+00  0.10566000000E+00 0.  1.
     999900   -1    0    0    0    0 -0.00000000000E+00 -0.00000000000E+00 -0.74505805969E-08  0.93827000000E+00  0.93827000000E+00 0.  1.
     999902    2    1    2    0    0  0.13273614544E-02  0.20911357057E-01 -0.10867895113E-01  0.10203258079E+01  0.10200527419E+01 0.  0.
     999903    2    3    3    0    0  0.44335559554E-01  0.97596149785E-01  0.74204967642E-01  0.13186215947E+00  0.19763642947E-01 0.  0.
         14    1    1    2    0    0 -0.13273614544E-02 -0.20911357057E-01  0.10867895113E-01  0.23604192140E-01  0.00000000000E+00 0.  1.
     999901    1    3    3    0    0 -0.43008198100E-01 -0.76684792729E-01 -0.85072862755E-01  0.88846364839E+00  0.88000000000E+00 0.  1.
        -11    1    4    4    0    0  0.12246712529E-01  0.50147824827E-01  0.32437890482E-01  0.60969370693E-01  0.51100000000E-03 0. -1.
         11    1    4    4    0    0  0.32088847025E-01  0.47448324958E-01  0.41767077160E-01  0.70892788774E-01  0.51100000000E-03 0.  1.
</event>
<event>
 8    1  0.1078274E+005  0.1043930E+01  0.7957747E-01            NaN
         13   -1    0    0    0    0  0.00000000000E+00  0.00000000000E+00  0.74505805969E-08  0.10566000000E+00  0.10566000000E+00 0. -1.
     999900   -1    0    0    0    0 -0.00000000000E+00 -0.00000000000E+00 -0.74505805969E-08  0.93827000000E+00  0.93827000000E+00 0. -1.
     999902    2    1    2    0    0 -0.16272310395E-01  0.80270587203E-03 -0.17567749675E-01  0.10199704873E+01  0.10196890392E+01 0.  0.
     999903    2    3    3    0    0  0.11966389963E+00  0.13779922363E-01  0.37521428056E-01  0.12773628098E+00  0.19984113191E-01 0.  0.
         14    1    1    2    0    0  0.16272310395E-01 -0.80270587203E-03  0.17567749675E-01  0.23959512744E-01  0.00000000000E+00 0. -1.
     999901    1    3    3    0    0 -0.13593621003E+00 -0.12977216491E-01 -0.55089177731E-01  0.89223420628E+00  0.88000000000E+00 0.  1.
        -11    1    4    4    0    0  0.47285081726E-01  0.15005000333E-01  0.12739689781E-01  0.51220989892E-01  0.51100000000E-03 0. -1.
         11    1    4    4    0    0  0.72378817905E-01 -0.12250779693E-02  0.24781738275E-01  0.76515291088E-01  0.51100000000E-03 0.  1.
</event>
<event>
 8    1  0.1078274E+005  0.1043930E+01  0.7957747E-01            NaN
         13   -1    0    0    0    0  0.00000000000E+00  0.00000000000E+00  0.74505805969E-08  0.10566000000E+00  0.10566000000E+00 0. -1.
     999900   -1    0    0    0    0 -0.00000000000E+00 -0.00000000000E+00 -0.74505805969E-08  0.93827000000E+00  0.93827000000E+00 0.  1.
     999902    2    1    2    0    0 -0.16857753827E-01  0.10915712261E-02 -0.16880007768E-01  0.10200488347E+01  0.10197692461E+01 0.  0.
     999903    2    3    3    0    0 -0.62973181907E-01 -0.11233626525E+00 -0.16279604907E-01  0.13157099750E+00  0.21467270822E-01 0.  0.
         14    1    1    2    0    0  0.16857753827E-01 -0.10915712261E-02  0.16880007768E-01  0.23881165258E-01  0.00000000000E+00 0. -1.
     999901    1    3    3    0    0  0.46115428080E-01  0.11342783647E+00 -0.60040286167E-03  0.88847783725E+00  0.88000000000E+00 0. -1.
        -11    1    4    4    0    0 -0.32673747776E-01 -0.61910688995E-01  0.17881916427E-02  0.70028322527E-01  0.51100000000E-03 0.  1.
         11    1    4    4    0    0 -0.30299434130E-01 -0.50425576254E-01 -0.18067796549E-01  0.61542674969E-01  0.51100000000E-03 0. -1.
</event>
<event>
 7    1  0.1078274E+005  0.1043930E+01  0.7957747E-01            NaN
         13   -1    0    0    0    0  0.00000000000E+00  0.00000000000E+00  0.74505805969E-08  0.10566000000E+00  0.10566000000E+00 0.  1.
     999900   -1    0    0    0    0 -0.00000000000E+00 -0.00000000000E+00 -0.74505805969E-08  0.93827000000E+00  0.93827000000E+00 0.  1.
     999903    2    1    2    0    0  0.14928144855E-01  0.53449913363E-01  0.12204276191E-01  0.59980881836E-01  0.19209869369E-01 0.  0.
         14    1    1    2    0    0 -0.90770734969E-01 -0.43119797072E-01 -0.45059495517E-02  0.10059297594E+00  0.00000000000E+00 0. -1.
     999901    1    1    2    0    0  0.75842590114E-01 -0.10330116291E-01 -0.76983266397E-02  0.88335614223E+00  0.88000000000E+00 0.  1.
        -11    1    3    3    0    0  0.76185785176E-02  0.83765275779E-02  0.84965677689E-02  0.14165512266E-01  0.51100000000E-03 0. -1.
         11    1    3    3    0    0  0.73095663376E-02  0.45073385785E-01  0.37077084225E-02  0.45815369571E-01  0.51100000000E-03 0.  1.
</event>
<event>
 8    1  0.1078274E+005  0.1043930E+01  0.7957747E-01            NaN
         13   -1    0    0    0    0  0.00000000000E+00  0.00000000000E+00  0.74505805969E-08  0.10566000000E+00  0.10566000000E+00 0. -1.
     999900   -1    0    0    0    0 -0.00000000000E+00 -0.00000000000E+00 -0.74505805969E-08  0.93827000000E+00  0.93827000000E+00 0. -1.
     999902    2    1    2    0    0  0.10399328012E-01  0.78535498366E-02 -0.17964384301E-01  0.10217366818E+01  0.10214956210E+01 0.  0.
     999903    2    3    3    0    0 -0.10578329752E+00 -0.55440533415E-01 -0.53069871097E-01  0.13115432255E+00  0.11013007139E-01 0.  0.
         14    1    1    2    0    0 -0.10399328012E-01 -0.78535498366E-02  0.17964384301E-01  0.22193318171E-01  0.00000000000E+00 0. -1.
     999901    1    3    3    0    0  0.11618262553E+00  0.63294083251E-01  0.35105486797E-01  0.89058235928E+00  0.88000000000E+00 0. -1.
        -11    1    4    4    0    0 -0.57801030208E-02 -0.48706781444E-02 -0.12061771757E-02  0.76713154606E-02  0.51100000000E-03 0.  1.
         11    1    4    4    0    0 -0.10000319450E+00 -0.50569855270E-01 -0.51863693922E-01  0.12348300709E+00  0.51100000000E-03 0. -1.
</event>
<event>
 8    1  0.1078274E+005  0.1043930E+01  0.7957747E-01            NaN
         13   -1    0    0    0    0  0.00000000000E+00  0.00000000000E+00  0.74505805969E-08  0.10566000000E+00  0.10566000000E+00 0. -1.
     999900   -1    0    0    0    0 -0.00000000000E+00 -0.00000000000E+00 -0.74505805969E-08  0.93827000000E+00  0.93827000000E+00 0. -1.
     999902    2    1    2    0    0 -0.10577101996E-01  0.21319945941E-01 -0.18870730329E-02  0.10200558251E+01  0.10197764020E+01 0.  0.
     999903    2    3    3    0    0  0.91887277769E-01 -0.67446808598E-01 -0.55198459595E-01  0.12808015854E+00  0.19113169923E-01 0.  0.
         14    1    1    2    0    0  0.10577101996E-01 -0.21319945941E-01  0.18870730329E-02  0.23874174879E-01  0.00000000000E+00 0.  1.
     999901    1    3    3    0    0 -0.10246437976E+00  0.88766754539E-01  0.53311386562E-01  0.89197566658E+00  0.88000000000E+00 0.  1.
        -11    1    4    4    0    0  0.21127475723E-01 -0.10496077297E-01 -0.19019353894E-01  0.30307339253E-01  0.51100000000E-03 0.  1.
         11    1    4    4    0    0  0.70759802046E-01 -0.56950731301E-01 -0.36179105701E-01  0.97772819289E-01  0.51100000000E-03 0. -1.
</event>
<event>
 8    1  0.1078274E+005  0.1043930E+01  0.7957747E-01            NaN
         13   -1    0    0    0    0  0.00000000000E+00  0.00000000000E+00  0.74505805969E-08  0.10566000000E+00  0.10566000000E+00 0. -1.
     999900   -1    0    0    0    0 -0.00000000000E+00 -0.00000000000E+00 -0.74505805969E-08  0.93827000000E+00  0.93827000000E+00 0.  1.
     999902    2    1    2    0    0  0.30653370969E-02  0.17058712538E-01  0.16221074957E-01  0.10201914399E+01  0.10199152194E+01 0.  0.
     999903    2    3    3    0    0  0.89984697864E-01  0.47524088436E-01  0.82951713049E-01  0.13287182863E+00  0.20448748483E-01 0.  0.
         14    1    1    2    0    0 -0.30653370969E-02 -0.17058712538E-01 -0.16221074957E-01  0.23738560144E-01  0.00000000000E+00 0.  1.
     999901    1    3    3    0    0 -0.86919360767E-01 -0.30465375898E-01 -0.66730638092E-01  0.88731961123E+00  0.88000000000E+00 0. -1.
        -11    1    4    4    0    0  0.24797917513E-01  0.60495545084E-02  0.13014730219E-01  0.28656206071E-01  0.51100000000E-03 0.  1.
         11    1    4    4    0    0  0.65186780351E-01  0.41474533928E-01  0.69936982829E-01  0.10421562256E+00  0.51100000000E-03 0. -1.
</event>
<event>
 8    1  0.1112750E+005  0.1043930E+01  0.7957747E-01            NaN
         13   -1    0    0    0    0  0.00000000000E+00  0.00000000000E+00  0.74505805969E-08  0.10566000000E+00  0.10566000000E+00 0. -1.
     999900   -1    0    0    0    0 -0.00000000000E+00 -0.00000000000E+00 -0.74505805969E-08  0.93827000000E+00  0.93827000000E+00 0. -1.
     999902    2    1    2    0    0 -0.59926508138E-02  0.21534552244E-01  0.90496466231E-02  0.10198147578E+01  0.10195295951E+01 0.  0.
     999903    2    3    3    0    0 -0.14904564419E-01  0.76401522194E-02 -0.12665079041E+00  0.12926038819E+00  0.19680123890E-01 0.  0.
         14    1    1    2    0    0  0.59926508138E-02 -0.21534552244E-01 -0.90496466231E-02  0.24115242236E-01  0.00000000000E+00 0. -1.
     999901    1    3    3    0    0  0.89119136049E-02  0.13894400024E-01  0.13570043704E+00  0.89055436957E+00  0.88000000000E+00 0.  1.
        -11    1    4    4    0    0 -0.17736715500E-01  0.85895579764E-02 -0.75873022910E-01  0.78392272001E-01  0.51100000000E-03 0.  1.
         11    1    4    4    0    0  0.28321510810E-02 -0.94940575702E-03 -0.50777767502E-01  0.50868116188E-01  0.51100000000E-03 0. -1.
</event>
<event>
 7    1  0.1078274E+005  0.1043930E+01  0.7957747E-01            NaN
         13   -1    0    0    0    0  0.00000000000E+00  0.00000000000E+00  0.74505805969E-08  0.10566000000E+00  0.10566000000E+00 0. -1.
     999900   -1    0    0    0    0 -0.00000000000E+00 -0.00000000000E+00 -0.74505805969E-08  0.93827000000E+00  0.93827000000E+00 0. -1.
     999903    2    1    2    0    0 -0.89111884684E-01  0.20137994476E-01 -0.47233730824E-01  0.10485066679E+00  0.20400249629E-01 0.  0.
         14    1    1    2    0    0  0.22291928137E-01 -0.49856077085E-01 -0.22638199798E-02  0.54659705115E-01  0.00000000000E+00 0.  1.
     999901    1    1    2    0    0  0.66819956547E-01  0.29718082609E-01  0.49497550803E-01  0.88441962810E+00  0.88000000000E+00 0.  1.
        -11    1    3    3    0    0 -0.37226671332E-01 -0.10564138060E-02 -0.14683285202E-01  0.40034997863E-01  0.51100000000E-03 0.  1.
         11    1    3    3    0    0 -0.51885213352E-01  0.21194408282E-01 -0.32550445622E-01  0.64815668925E-01  0.51100000000E-03 0. -1.
</event>
<event>
 8    1  0.1078274E+005  0.1043930E+01  0.7957747E-01            NaN
         13   -1    0    0    0    0  0.00000000000E+00  0.00000000000E+00  0.74505805969E-08  0.10566000000E+00  0.10566000000E+00 0.  1.
     999900   -1    0    0    0    0 -0.00000000000E+00 -0.00000000000E+00 -0.74505805969E-08  0.93827000000E+00  0.93827000000E+00 0.  1.
     999902    2    1    2    0    0 -0.15774397373E-01 -0.15389873165E-01  0.72095404028E-02  0.10207425620E+01  0.10204791622E+01 0.  0.
     999903    2    3    3    0    0  0.67700141546E-01  0.23355763784E-01 -0.10512475633E+00  0.12884110036E+00  0.20494240209E-01 0.  0.
         14    1    1    2    0    0  0.15774397373E-01  0.15389873165E-01 -0.72095404028E-02  0.23187438007E-01  0.00000000000E+00 0.  1.
     999901    1    3    3    0    0 -0.83474538920E-01 -0.38745636949E-01  0.11233429674E+00  0.89190146163E+00  0.88000000000E+00 0. -1.
        -11    1    4    4    0    0  0.40128820151E-01  0.73396138547E-02 -0.44709583316E-01  0.60526028281E-01  0.51100000000E-03 0. -1.
         11    1    4    4    0    0  0.27571321396E-01  0.16016149929E-01 -0.60415173017E-01  0.68315072083E-01  0.51100000000E-03 0.  1.
</event>
<event>
 8    1  0.1078274E+005  0.1043930E+01  0.7957747E-01            NaN
         13   -1    0    0    0    0  0.00000000000E+00  0.00000000000E+00  0.74505805969E-08  0.10566000000E+00  0.10566000000E+00 0. -1.
     999900   -1    0    0    0    0 -0.00000000000E+00 -0.00000000000E+00 -0.74505805969E-08  0.93827000000E+00  0.93827000000E+00 0. -1.
     999902    2    1    2    0    0  0.61973658825E-02  0.72725394211E-02 -0.22017970440E-01  0.10199281627E+01  0.10196457075E+01 0.  0.
     999903    2    3    3    0    0  0.58082866952E-01 -0.54138950186E-01  0.98972863689E-01  0.12801882970E+00  0.16986690375E-01 0.  0.
         14    1    1    2    0    0 -0.61973658825E-02 -0.72725394211E-02  0.22017970440E-01  0.24001837343E-01  0.00000000000E+00 0. -1.
     999901    1    3    3    0    0 -0.51885501069E-01  0.61411489607E-01 -0.12099083413E+00  0.89190933296E+00  0.88000000000E+00 0. -1.
        -11    1    4    4    0    0  0.33879225239E-01 -0.22082845153E-01  0.57314874136E-01  0.70147771676E-01  0.51100000000E-03 0. -1.
         11    1    4    4    0    0  0.24203641712E-01 -0.32056105032E-01  0.41657989553E-01  0.57871058022E-01  0.51100000000E-03 0.  1.
</event>
<event>
 7    1  0.1078274E+005  0.1043930E+01  0.7957747E-01            NaN
         13   -1    0    0    0    0  0.00000000000E+00  0.00000000000E+00  0.74505805969E-08  0.10566000000E+00  0.10566000000E+00 0.  1.
     999900   -1    0    0    0    0 -0.00000000000E+00 -0.00000000000E+00 -0.74505805969E-08  0.93827000000E+00  0.93827000000E+00 0.  1.
     999903    2    1    2    0    0 -0.72581954803E-01  0.57091904689E-01  0.38035454215E-01  0.10187993392E+00  0.20129565653E-01 0.  0.
         14    1    1    2    0    0 -0.41703264632E-01 -0.24005863896E-01  0.20086881746E-01  0.52143327480E-01  0.00000000000E+00 0.  1.
     999901    1    1    2    0    0  0.11428521943E+00 -0.33086040793E-01 -0.58122335961E-01  0.88990673860E+00  0.88000000000E+00 0.  1.
        -11    1    3    3    0    0 -0.48985167211E-01  0.42264961495E-01  0.16818881965E-01  0.66850650621E-01  0.51100000000E-03 0.  1.
         11    1    3    3    0    0 -0.23596787591E-01  0.14826943193E-01  0.21216572250E-01  0.35029283295E-01  0.51100000000E-03 0. -1.
</event>
<event>
 8    1  0.1078274E+005  0.1043930E+01  0.7957747E-01            NaN
         13   -1    0    0    0    0  0.00000000000E+00  0.00000000000E+00  0.74505805969E-08  0.10566000000E+00  0.10566000000E+00 0.  1.
     999900   -1    0    0    0    0 -0.00000000000E+00 -0.00000000000E+00 -0.74505805969E-08  0.93827000000E+00  0.93827000000E+00 0.  1.
     999902    2    1    2    0    0 -0.83052771436E-02  0.25654202123E-01 -0.31147403149E-02  0.10167856208E+01  0.10164232294E+01 0.  0.
     999903    2    3    3    0    0 -0.53260420002E-01 -0.10541052824E+00  0.36070279147E-01  0.12508253447E+00  0.19912900070E-01 0.  0.
         14    1    1    2    0    0  0.83052771436E-02 -0.25654202123E-01  0.31147403149E-02  0.27144379201E-01  0.00000000000E+00 0.  1.
     999901    1    3    3    0    0  0.44955142859E-01  0.13106473036E+00 -0.39185019462E-01  0.89170308633E+00  0.88000000000E+00 0.  1.
        -11    1    4    4    0    0 -0.27439849395E-01 -0.66699263901E-01  0.13558626196E-01  0.73388245688E-01  0.51100000000E-03 0. -1.
         11    1    4    4    0    0 -0.25820570607E-01 -0.38711264340E-01  0.22511652952E-01  0.51694288784E-01  0.51100000000E-03 0.  1.
</event>
<event>
 8    1  0.1078274E+005  0.1043930E+01  0.7957747E-01            NaN
         13   -1    0    0    0    0  0.00000000000E+00  0.00000000000E+00  0.74505805969E-08  0.10566000000E+00  0.10566000000E+00 0. -1.
     999900   -1    0    0    0    0 -0.00000000000E+00 -0.00000000000E+00 -0.74505805969E-08  0.93827000000E+00  0.93827000000E+00 0. -1.
     999902    2    1    2    0    0  0.20768222652E-01  0.10955373070E-02 -0.18556244376E-02  0.10230502822E+01  0.10228371900E+01 0.  0.
     999903    2    3    3    0    0  0.91248510209E-02  0.76612232970E-01 -0.10708686867E+00  0.13349311472E+00  0.20002926963E-01 0.  0.
         14    1    1    2    0    0 -0.20768222652E-01 -0.10955373070E-02  0.18556244376E-02  0.20879717819E-01  0.00000000000E+00 0. -1.
     999901    1    3    3    0    0  0.11643371632E-01 -0.75516695663E-01  0.10523124424E+00  0.88955716747E+00  0.88000000000E+00 0.  1.
        -11    1    4    4    0    0  0.10232564596E-01  0.19976999877E-01 -0.38160479474E-01  0.44274927634E-01  0.51100000000E-03 0.  1.
         11    1    4    4    0    0 -0.11077135752E-02  0.56635233093E-01 -0.68926389200E-01  0.89218187081E-01  0.51100000000E-03 0. -1.
</event>
<event>
 8    1  0.1078274E+005  0.1043930E+01  0.7957747E-01            NaN
         13   -1    0    0    0    0  0.00000000000E+00  0.00000000000E+00  0.74505805969E-08  0.10566000000E+00  0.10566000000E+00 0.  1.
     999900   -1    0    0    0    0 -0.00000000000E+00 -0.00000000000E+00 -0.74505805969E-08  0.93827000000E+00  0.93827000000E+00 0. -1.
     999902    2    1    2    0    0  0.82785431206E-02  0.23159342824E-02 -0.19555423509E-01  0.10225685296E+01  0.10223453846E+01 0.  0.
     999903    2    3    3    0    0  0.12227314950E+00 -0.26151010155E-01  0.40086994106E-01  0.13275823794E+00  0.19575091948E-01 0.  0.
         14    1    1    2    0    0 -0.82785431206E-02 -0.23159342824E-02  0.19555423509E-01  0.21361470371E-01  0.00000000000E+00 0.  1.
     999901    1    3    3    0    0 -0.11399460638E+00  0.28466944438E-01 -0.59642417615E-01  0.88981029168E+00  0.88000000000E+00 0. -1.
        -11    1    4    4    0    0  0.13828687635E-01 -0.95574780271E-02  0.64078862434E-02  0.17997225205E-01  0.51100000000E-03 0. -1.
         11    1    4    4    0    0  0.10844446186E+00 -0.16593532128E-01  0.33679107863E-01  0.11476101274E+00  0.51100000000E-03 0.  1.
</event>
<event>
 8    1  0.1078274E+005  0.1043930E+01  0.7957747E-01            NaN
         13   -1    0    0    0    0  0.00000000000E+00  0.00000000000E+00  0.74505805969E-08  0.10566000000E+00  0.10566000000E+00 0.  1.
     999900   -1    0    0    0    0 -0.00000000000E+00 -0.00000000000E+00 -0.74505805969E-08  0.93827000000E+00  0.93827000000E+00 0. -1.
     999902    2    1    2    0    0 -0.62461968271E-02  0.18248832883E-01 -0.74530448910E-02  0.10232519258E+01  0.10230429711E+01 0.  0.
     999903    2    3    3    0    0 -0.55875185672E-01 -0.86660072395E-01 -0.81100074663E-01  0.13258206552E+00  0.19203579478E-01 0.  0.
         14    1    1    2    0    0  0.62461968271E-02 -0.18248832883E-01  0.74530448910E-02  0.20678074247E-01  0.00000000000E+00 0. -1.
     999901    1    3    3    0    0  0.49628988845E-01  0.10490890528E+00  0.73647029772E-01  0.89066986024E+00  0.88000000000E+00 0.  1.
        -11    1    4    4    0    0 -0.38283798295E-01 -0.73618314752E-01 -0.64377523692E-01  0.10502395992E+00  0.51100000000E-03 0. -1.
         11    1    4    4    0    0 -0.17591387377E-01 -0.13041757643E-01 -0.16722550971E-01  0.27558105599E-01  0.51100000000E-03 0.  1.
</event>
<event>
 8    1  0.1078274E+005  0.1043930E+01  0.7957747E-01            NaN
         13   -1    0    0    0    0  0.00000000000E+00  0.00000000000E+00  0.74505805969E-08  0.10566000000E+00  0.10566000000E+00 0. -1.
     999900   -1    0    0    0    0 -0.00000000000E+00 -0.00000000000E+00 -0.74505805969E-08  0.93827000000E+00  0.93827000000E+00 0. -1.
     999902    2    1    2    0    0  0.19939988671E-01 -0.10532874125E-01 -0.51716785542E-02  0.10207936467E+01  0.10205314195E+01 0.  0.
     999903    2    3    3    0    0  0.11389484774E+00 -0.14404376852E-02 -0.66844170123E-01  0.13359937024E+00  0.20162773763E-01 0.  0.
         14    1    1    2    0    0 -0.19939988671E-01  0.10532874125E-01  0.51716785542E-02  0.23136353312E-01  0.00000000000E+00 0. -1.
     999901    1    3    3    0    0 -0.93954859073E-01 -0.90924364400E-02  0.61672491569E-01  0.88719427645E+00  0.88000000000E+00 0.  1.
        -11    1    4    4    0    0  0.95955782520E-01 -0.78952208375E-02 -0.51962346588E-01  0.10940837854E+00  0.51100000000E-03 0. -1.
         11    1    4    4    0    0  0.17939065224E-01  0.64547831524E-02 -0.14881823536E-01  0.24190991699E-01  0.51100000000E-03 0.  1.
</event>
<event>
 8    1  0.1078274E+005  0.1043930E+01  0.7957747E-01            NaN
         13   -1    0    0    0    0  0.00000000000E+00  0.00000000000E+00  0.74505805969E-08  0.10566000000E+00  0.10566000000E+00 0.  1.
     999900   -1    0    0    0    0 -0.00000000000E+00 -0.00000000000E+00 -0.74505805969E-08  0.93827000000E+00  0.93827000000E+00 0.  1.
     999902    2    1    2    0    0 -0.23108349387E-01  0.34146896160E-02  0.35554278025E-02  0.10203016911E+01  0.10200280603E+01 0.  0.
     999903    2    3    3    0    0 -0.12400326766E+00 -0.42774896573E-01  0.12990615009E-01  0.13328292848E+00  0.19725130682E-01 0.  0.
         14    1    1    2    0    0  0.23108349387E-01 -0.34146896160E-02 -0.35554278025E-02  0.23628308941E-01  0.00000000000E+00 0. -1.
     999901    1    3    3    0    0  0.10089491827E+00  0.46189586189E-01 -0.94351872060E-02  0.88701876258E+00  0.88000000000E+00 0.  1.
        -11    1    4    4    0    0 -0.86572895157E-01 -0.27012044329E-01  0.17673563278E-01  0.92396605320E-01  0.51100000000E-03 0.  1.
         11    1    4    4    0    0 -0.37430372499E-01 -0.15762852244E-01 -0.46829482693E-02  0.40886323162E-01  0.51100000000E-03 0. -1.
</event>
<event>
 7    1  0.1078274E+005  0.1043930E+01  0.7957747E-01            NaN
         13   -1    0    0    0    0  0.00000000000E+00  0.00000000000E+00  0.74505805969E-08  0.10566000000E+00  0.10566000000E+00 0. -1.
     999900   -1    0    0    0    0 -0.00000000000E+00 -0.00000000000E+00 -0.74505805969E-08  0.93827000000E+00  0.93827000000E+00 0. -1.
     999903    2    1    2    0    0 -0.19947047447E-01 -0.42428935455E-01 -0.98623630894E-01  0.11090774633E+00  0.19385777257E-01 0.  0.
         14    1    1    2    0    0 -0.37725117091E-01 -0.20982003267E-01  0.10859940647E-01  0.44512551393E-01  0.00000000000E+00 0. -1.
     999901    1    1    2    0    0  0.57672164538E-01  0.63410938723E-01  0.87763690247E-01  0.88850970228E+00  0.88000000000E+00 0. -1.
        -11    1    3    3    0    0 -0.13382083462E-01 -0.11721988901E-01 -0.23458674405E-01  0.29445809675E-01  0.51100000000E-03 0. -1.
         11    1    3    3    0    0 -0.65649639850E-02 -0.30706946554E-01 -0.75164956489E-01  0.81461936657E-01  0.51100000000E-03 0.  1.
</event>
<event>
 8    1  0.1078274E+005  0.1043930E+01  0.7957747E-01            NaN
         13   -1    0    0    0    0  0.00000000000E+00  0.00000000000E+00  0.74505805969E-08  0.10566000000E+00  0.10566000000E+00 0. -1.
     999900   -1    0    0    0    0 -0.00000000000E+00 -0.00000000000E+00 -0.74505805969E-08  0.93827000000E+00  0.93827000000E+00 0. -1.
     999902    2    1    2    0    0 -0.13145626025E-02 -0.15435413946E-01  0.23602389314E-01  0.10156978754E+01  0.10153054325E+01 0.  0.
     999903    2    3    3    0    0  0.85229846403E-01 -0.11143232108E-01 -0.87227153052E-01  0.12452362475E+00  0.22566757643E-01 0.  0.
         14    1    1    2    0    0  0.13145626025E-02  0.15435413946E-01 -0.23602389314E-01  0.28232124607E-01  0.00000000000E+00 0.  1.
     999901    1    3    3    0    0 -0.86544409006E-01 -0.42921818385E-02  0.11082954237E+00  0.89117425065E+00  0.88000000000E+00 0.  1.
        -11    1    4    4    0    0  0.61891872510E-01  0.12807202585E-02 -0.67066405273E-01  0.91271068606E-01  0.51100000000E-03 0. -1.
         11    1    4    4    0    0  0.23337973893E-01 -0.12423952366E-01 -0.20160747779E-01  0.33252556140E-01  0.51100000000E-03 0.  1.
</event>
<event>
 8    1  0.1078274E+005  0.1043930E+01  0.7957747E-01            NaN
         13   -1    0    0    0    0  0.00000000000E+00  0.00000000000E+00  0.74505805969E-08  0.10566000000E+00  0.10566000000E+00 0. -1.
     999900   -1    0    0    0    0 -0.00000000000E+00 -0.00000000000E+00 -0.74505805969E-08  0.93827000000E+00  0.93827000000E+00 0. -1.
     999902    2    1    2    0    0  0.17363743446E-01 -0.37528588837E-02 -0.13835592474E-01  0.10214131806E+01  0.10211649614E+01 0.  0.
     999903    2    3    3    0    0 -0.52435851872E-01 -0.21313606249E-01 -0.11800360181E+00  0.13235112568E+00  0.19702336261E-01 0.  0.
         14    1    1    2    0    0 -0.17363743446E-01  0.37528588837E-02  0.13835592474E-01  0.22516819388E-01  0.00000000000E+00 0. -1.
     999901    1    3    3    0    0  0.69799595318E-01  0.17560747365E-01  0.10416800934E+00  0.88906205493E+00  0.88000000000E+00 0.  1.
        -11    1    4    4    0    0 -0.25773355121E-01 -0.71129013824E-02 -0.76322442863E-01  0.80871723154E-01  0.51100000000E-03 0. -1.
         11    1    4    4    0    0 -0.26662496751E-01 -0.14200704866E-01 -0.41681158950E-01  0.51479402523E-01  0.51100000000E-03 0.  1.
</event>
<event>
 8    1  0.1078274E+005  0.1043930E+01  0.7957747E-01            NaN
         13   -1    0    0    0    0  0.00000000000E+00  0.00000000000E+00  0.74505805969E-08  0.10566000000E+00  0.10566000000E+00 0. -1.
     999900   -1    0    0    0    0 -0.00000000000E+00 -0.00000000000E+00 -0.74505805969E-08  0.93827000000E+00  0.93827000000E+00 0. -1.
     999902    2    1    2    0    0  0.41554464938E-02 -0.23816346992E-01 -0.54306633170E-02  0.10191514160E+01  0.10188501512E+01 0.  0.
     999903    2    3    3    0    0 -0.42456220518E-02  0.12490409753E+00  0.12931453704E-02  0.12660810718E+00  0.20220823220E-01 0.  0.
         14    1    1    2    0    0 -0.41554464938E-02  0.23816346992E-01  0.54306633170E-02  0.24778583972E-01  0.00000000000E+00 0. -1.
     999901    1    3    3    0    0  0.84010685456E-02 -0.14872044452E+00 -0.67238086873E-02  0.89254330885E+00  0.88000000000E+00 0.  1.
        -11    1    4    4    0    0  0.80554316931E-03  0.79421263383E-01 -0.82633153463E-02  0.79855679064E-01  0.51100000000E-03 0.  1.
         11    1    4    4    0    0 -0.50511652211E-02  0.45482834146E-01  0.95564607166E-02  0.46752428114E-01  0.51100000000E-03 0. -1.
</event>
<event>
 8    1  0.1078274E+005  0.1043930E+01  0.7957747E-01            NaN
         13   -1    0    0    0    0  0.00000000000E+00  0.00000000000E+00  0.74505805969E-08  0.10566000000E+00  0.10566000000E+00 0.  1.
     999900   -1    0    0    0    0 -0.00000000000E+00 -0.00000000000E+00 -0.74505805969E-08  0.93827000000E+00  0.93827000000E+00 0.  1.
     999902    2    1    2    0    0  0.16623870833E-01 -0.17484928377E-01  0.16776808991E-02  0.10197454923E+01  0.10194586694E+01 0.  0.
     999903    2    3    3    0    0  0.11138243673E+00  0.61685320643E-01 -0.22893984744E-01  0.13078493020E+00  0.19220755315E-01 0.  0.
         14    1    1    2    0    0 -0.16623870833E-01  0.17484928377E-01 -0.16776808991E-02  0.24184507748E-01  0.00000000000E+00 0. -1.
     999901    1    3    3    0    0 -0.94758565893E-01 -0.79170249020E-01  0.24571665644E-01  0.88896056206E+00  0.88000000000E+00 0. -1.
        -11    1    4    4    0    0  0.93493441776E-01  0.43060485829E-01 -0.18567698946E-01  0.10459564838E+00  0.51100000000E-03 0.  1.
         11    1    4    4    0    0  0.17888994950E-01  0.18624834815E-01 -0.43262857988E-02  0.26189281815E-01  0.51100000000E-03 0. -1.
</event>
<event>
 8    1  0.1078274E+005  0.1043930E+01  0.7957747E-01            NaN
         13   -1    0    0    0    0  0.00000000000E+00  0.00000000000E+00  0.74505805969E-08  0.10566000000E+00  0.10566000000E+00 0.  1.
     999900   -1    0    0    0    0 -0.00000000000E+00 -0.00000000000E+00 -0.74505805969E-08  0.93827000000E+00  0.93827000000E+00 0. -1.
     999902    2    1    2    0    0  0.98522681821E-02  0.17194069904E-02  0.21847628232E-01  0.10199020494E+01  0.10196189720E+01 0.  0.
     999903    2    3    3    0    0 -0.99626949959E-01 -0.61304857473E-01  0.53749459205E-01  0.13030917406E+00  0.20190635706E-01 0.  0.
         14    1    1    2    0    0 -0.98522681821E-02 -0.17194069904E-02 -0.21847628232E-01  0.24027950560E-01  0.00000000000E+00 0. -1.
     999901    1    3    3    0    0  0.10947921814E+00  0.63024264463E-01 -0.31901830973E-01  0.88959287538E+00  0.88000000000E+00 0.  1.
        -11    1    4    4    0    0 -0.21231011682E-01 -0.21991090880E-01  0.18862715382E-01  0.35922515053E-01  0.51100000000E-03 0.  1.
         11    1    4    4    0    0 -0.78395938278E-01 -0.39313766593E-01  0.34886743823E-01  0.94386659003E-01  0.51100000000E-03 0. -1.
</event>
<event>
 8    1  0.1078274E+005  0.1043930E+01  0.7957747E-01            NaN
         13   -1    0    0    0    0  0.00000000000E+00  0.00000000000E+00  0.74505805969E-08  0.10566000000E+00  0.10566000000E+00 0. -1.
     999900   -1    0    0    0    0 -0.00000000000E+00 -0.00000000000E+00 -0.74505805969E-08  0.93827000000E+00  0.93827000000E+00 0. -1.
     999902    2    1    2    0    0 -0.12796872723E-01 -0.11874134823E-01  0.13516764207E-01  0.10218515502E+01  0.10216130054E+01 0.  0.
     999903    2    3    3    0    0  0.67355250015E-01 -0.10089175260E+00 -0.46147677289E-01  0.13173451039E+00  0.22549892716E-01 0.  0.
         14    1    1    2    0    0  0.12796872723E-01  0.11874134823E-01 -0.13516764207E-01  0.22078449762E-01  0.00000000000E+00 0.  1.
     999901    1    3    3    0    0 -0.80152122738E-01  0.89017617773E-01  0.59664441496E-01  0.89011703985E+00  0.88000000000E+00 0.  1.
        -11    1    4    4    0    0  0.46955490611E-01 -0.56557660585E-01 -0.36139149301E-01  0.81913895662E-01  0.51100000000E-03 0.  1.
         11    1    4    4    0    0  0.20399759404E-01 -0.44334092010E-01 -0.10008527988E-01  0.49820614725E-01  0.51100000000E-03 0. -1.
</event>
<event>
 8    1  0.1078274E+005  0.1043930E+01  0.7957747E-01            NaN
         13   -1    0    0    0    0  0.00000000000E+00  0.00000000000E+00  0.74505805969E-08  0.10566000000E+00  0.10566000000E+00 0.  1.
     999900   -1    0    0    0    0 -0.00000000000E+00 -0.00000000000E+00 -0.74505805969E-08  0.93827000000E+00  0.93827000000E+00 0.  1.
     999902    2    1    2    0    0 -0.20658505552E-01 -0.77633975077E-03  0.10479360656E-01  0.10207525637E+01  0.10204893937E+01 0.  0.
     999903    2    3    3    0    0  0.81748730624E-01 -0.98619459803E-01 -0.32556809442E-02  0.12932159633E+00  0.17459181214E-01 0.  0.
         14    1    1    2    0    0  0.20658505552E-01  0.77633975077E-03 -0.10479360656E-01  0.23177436330E-01  0.00000000000E+00 0.  1.
     999901    1    3    3    0    0 -0.10240723618E+00  0.97843120053E-01  0.13735041600E-01  0.89143096734E+00  0.88000000000E+00 0.  1.
        -11    1    4    4    0    0  0.29216399038E-01 -0.38047267724E-01  0.70238709159E-02  0.48484930006E-01  0.51100000000E-03 0.  1.
         11    1    4    4    0    0  0.52532331587E-01 -0.60572192079E-01 -0.10279551860E-01  0.80836666326E-01  0.51100000000E-03 0. -1.
</event>
<event>
 8    1  0.1078274E+005  0.1043930E+01  0.7957747E-01            NaN
         13   -1    0    0    0    0  0.00000000000E+00  0.00000000000E+00  0.74505805969E-08  0.10566000000E+00  0.10566000000E+00 0. -1.
     999900   -1    0    0    0    0 -0.00000000000E+00 -0.00000000000E+00 -0.74505805969E-08  0.93827000000E+00  0.93827000000E+00 0. -1.
     999902    2    1    2    0    0 -0.78951866169E-02  0.20563583673E-01  0.71624250012E-02  0.10207676323E+01  0.10205048084E+01 0.  0.
     999903    2    3    3    0    0  0.12063017309E+00  0.47063045206E-01  0.26456473627E-02  0.13102531521E+00  0.19851067824E-01 0.  0.
         14    1    1    2    0    0  0.78951866169E-02 -0.20563583673E-01 -0.71624250012E-02  0.23162367692E-01  0.00000000000E+00 0.  1.
     999901    1    3    3    0    0 -0.12852535970E+00 -0.26499461533E-01  0.45167776385E-02  0.88974231709E+00  0.88000000000E+00 0. -1.
        -11    1    4    4    0    0  0.93860501942E-01  0.32758917928E-01 -0.55921408577E-02  0.99571450170E-01  0.51100000000E-03 0.  1.
         11    1    4    4    0    0  0.26769671145E-01  0.14304127278E-01  0.82377882204E-02  0.31453865043E-01  0.51100000000E-03 0. -1.
</event>
<event>
 8    1  0.1078274E+005  0.1043930E+01  0.7957747E-01            NaN
         13   -1    0    0    0    0  0.00000000000E+00  0.00000000000E+00  0.74505805969E-08  0.10566000000E+00  0.10566000000E+00 0.  1.
     999900   -1    0    0    0    0 -0.00000000000E+00 -0.00000000000E+00 -0.74505805969E-08  0.93827000000E+00  0.93827000000E+00 0.  1.
     999902    2    1    2    0    0 -0.14296084505E-01  0.67693635945E-02 -0.18663176784E-01  0.10194654035E+01  0.10191718169E+01 0.  0.
     999903    2    3    3    0    0  0.11114106816E+00  0.55051799973E-01  0.25311897811E-01  0.12817449691E+00  0.20123910526E-01 0.  0.
         14    1    1    2    0    0  0.14296084505E-01 -0.67693635945E-02  0.18663176784E-01  0.24464596529E-01  0.00000000000E+00 0.  1.
     999901    1    3    3    0    0 -0.12543715267E+00 -0.48282436379E-01 -0.43975074595E-01  0.89129090656E+00  0.88000000000E+00 0.  1.
        -11    1    4    4    0    0  0.48178866187E-01  0.18813503049E-01  0.19560120233E-01  0.55299280905E-01  0.51100000000E-03 0.  1.
         11    1    4    4    0    0  0.62962201975E-01  0.36238296924E-01  0.57517775774E-02  0.72875216005E-01  0.51100000000E-03 0. -1.
</event>
<event>
 8    1  0.1078274E+005  0.1043930E+01  0.7957747E-01            NaN
         13   -1    0    0    0    0  0.00000000000E+00  0.00000000000E+00  0.74505805969E-08  0.10566000000E+00  0.10566000000E+00 0. -1.
     999900   -1    0    0    0    0 -0.00000000000E+00 -0.00000000000E+00 -0.74505805969E-08  0.93827000000E+00  0.93827000000E+00 0. -1.
     999902    2    1    2    0    0 -0.11570682324E-01 -0.97743784365E-02 -0.18573043409E-01  0.10199638342E+01  0.10196822279E+01 0.  0.
     999903    2    3    3    0    0  0.56747104525E-01 -0.17785077483E-01 -0.11602015318E+00  0.13191685878E+00  0.20120607143E-01 0.  0.
         14    1    1    2    0    0  0.11570682324E-01  0.97743784365E-02  0.18573043409E-01  0.23966165833E-01  0.00000000000E+00 0. -1.
     999901    1    3    3    0    0 -0.68317786849E-01  0.80106990469E-02  0.97447109772E-01  0.88804697539E+00  0.88000000000E+00 0.  1.
        -11    1    4    4    0    0  0.33170077424E-01 -0.18220813207E-01 -0.84132143642E-01  0.92253622070E-01  0.51100000000E-03 0.  1.
         11    1    4    4    0    0  0.23577027101E-01  0.43573572355E-03 -0.31888009540E-01  0.39663236705E-01  0.51100000000E-03 0. -1.
</event>
<event>
 8    1  0.1078274E+005  0.1043930E+01  0.7957747E-01            NaN
         13   -1    0    0    0    0  0.00000000000E+00  0.00000000000E+00  0.74505805969E-08  0.10566000000E+00  0.10566000000E+00 0.  1.
     999900   -1    0    0    0    0 -0.00000000000E+00 -0.00000000000E+00 -0.74505805969E-08  0.93827000000E+00  0.93827000000E+00 0. -1.
     999902    2    1    2    0    0 -0.12821266307E-01 -0.98680802555E-02  0.17241792249E-01  0.10202859040E+01  0.10200119031E+01 0.  0.
     999903    2    3    3    0    0  0.12107604467E+00  0.38476184603E-01 -0.10884145294E-01  0.12840209640E+00  0.15126412874E-01 0.  0.
         14    1    1    2    0    0  0.12821266307E-01  0.98680802555E-02 -0.17241792249E-01  0.23644096041E-01  0.00000000000E+00 0. -1.
     999901    1    3    3    0    0 -0.13389731097E+00 -0.48344264858E-01  0.28125937543E-01  0.89188380756E+00  0.88000000000E+00 0.  1.
        -11    1    4    4    0    0  0.93045827706E-01  0.28918099791E-01 -0.14692272739E-01  0.98538858062E-01  0.51100000000E-03 0.  1.
         11    1    4    4    0    0  0.28030216961E-01  0.95580848122E-02  0.38081274454E-02  0.29863238334E-01  0.51100000000E-03 0. -1.
</event>
<event>
 8    1  0.1078274E+005  0.1043930E+01  0.7957747E-01            NaN
         13   -1    0    0    0    0  0.00000000000E+00  0.00000000000E+00  0.74505805969E-08  0.10566000000E+00  0.10566000000E+00 0.  1.
     999900   -1    0    0    0    0 -0.00000000000E+00 -0.00000000000E+00 -0.74505805969E-08  0.93827000000E+00  0.93827000000E+00 0.  1.
     999902    2    1    2    0    0 -0.46978364390E-02  0.24546429544E-01  0.59398722389E-02  0.10182418908E+01  0.10179178107E+01 0.  0.
     999903    2    3    3    0    0 -0.98475193904E-01  0.60387879393E-01  0.58851394396E-01  0.13095477187E+00  0.18482582610E-01 0.  0.
         14    1    1    2    0    0  0.46978364390E-02 -0.24546429544E-01 -0.59398722389E-02  0.25688109171E-01  0.00000000000E+00 0.  1.
     999901    1    3    3    0    0  0.93777357465E-01 -0.35841449849E-01 -0.52911522157E-01  0.88728711896E+00  0.88000000000E+00 0.  1.
        -11    1    4    4    0    0 -0.22668284632E-01  0.64956166670E-02  0.16304314195E-01  0.28672913114E-01  0.51100000000E-03 0.  1.
         11    1    4    4    0    0 -0.75806909272E-01  0.53892262726E-01  0.42547080201E-01  0.10228185875E+00  0.51100000000E-03 0. -1.
</event>
<event>
 8    1  0.1078274E+005  0.1043930E+01  0.7957747E-01            NaN
         13   -1    0    0    0    0  0.00000000000E+00  0.00000000000E+00  0.74505805969E-08  0.10566000000E+00  0.10566000000E+00 0. -1.
     999900   -1    0    0    0    0 -0.00000000000E+00 -0.00000000000E+00 -0.74505805969E-08  0.93827000000E+00  0.93827000000E+00 0.  1.
     999902    2    1    2    0    0  0.32493783317E-02 -0.23384140806E-01 -0.21588959827E-02  0.10202226734E+01  0.10199471879E+01 0.  0.
     999903    2    3    3    0    0  0.84092081702E-01 -0.10086975298E+00  0.78013822923E-02  0.13307061774E+00  0.20018553134E-01 0.  0.
         14    1    1    2    0    0 -0.32493783317E-02  0.23384140806E-01  0.21588959827E-02  0.23707326560E-01  0.00000000000E+00 0.  1.
     999901    1    3    3    0    0 -0.80842703370E-01  0.77485612175E-01 -0.99602782750E-02  0.88715205570E+00  0.88000000000E+00 0. -1.
        -11    1    4    4    0    0  0.63256120656E-01 -0.63117443524E-01  0.98254043393E-02  0.89899656111E-01  0.51100000000E-03 0. -1.
         11    1    4    4    0    0  0.20835961046E-01 -0.37752309456E-01 -0.20240220470E-02  0.43170961632E-01  0.51100000000E-03 0.  1.
</event>
<event>
 8    1  0.1145105E+005  0.1043930E+01  0.7957747E-01            NaN
         13   -1    0    0    0    0  0.00000000000E+00  0.00000000000E+00  0.74505805969E-08  0.10566000000E+00  0.10566000000E+00 0.  1.
     999900   -1    0    0    0    0 -0.00000000000E+00 -0.00000000000E+00 -0.74505805969E-08  0.93827000000E+00  0.93827000000E+00 0.  1.
     999902    2    1    2    0    0  0.18988428808E-01 -0.70315459858E-02  0.63507267619E-02  0.10227089068E+01  0.10224887154E+01 0.  0.
     999903    2    3    3    0    0  0.46983849559E-01  0.73043289054E-01  0.99711454289E-01  0.13371399776E+00  0.19855852702E-01 0.  0.
         14    1    1    2    0    0 -0.18988428808E-01  0.70315459858E-02 -0.63507267619E-02  0.21221093232E-01  0.00000000000E+00 0.  1.
     999901    1    3    3    0    0 -0.27995420751E-01 -0.80074835040E-01 -0.93360727527E-01  0.88899490900E+00  0.88000000000E+00 0. -1.
        -11    1    4    4    0    0  0.27895950075E-01  0.30763853929E-01  0.57943191572E-01  0.71290064593E-01  0.51100000000E-03 0.  1.
         11    1    4    4    0    0  0.19087899484E-01  0.42279435124E-01  0.41768262718E-01  0.62423933172E-01  0.51100000000E-03 0. -1.
</event>
<event>
 8    1  0.1078274E+005  0.1043930E+01  0.7957747E-01            NaN
         13   -1    0    0    0    0  0.00000000000E+00  0.00000000000E+00  0.74505805969E-08  0.10566000000E+00  0.10566000000E+00 0.  1.
     999900   -1    0    0    0    0 -0.00000000000E+00 -0.00000000000E+00 -0.74505805969E-08  0.93827000000E+00  0.93827000000E+00 0.  1.
     999902    2    1    2    0    0 -0.15913151345E-01 -0.87809106660E-02 -0.15395425847E-01  0.10201108498E+01  0.10198327285E+01 0.  0.
     999903    2    3    3    0    0 -0.83848780105E-01  0.67882962112E-02  0.97394129974E-01  0.13017875480E+00  0.19600835633E-01 0.  0.
         14    1    1    2    0    0  0.15913151345E-01  0.87809106660E-02  0.15395425847E-01  0.23819150171E-01  0.00000000000E+00 0.  1.
     999901    1    3    3    0    0  0.67935628760E-01 -0.15569206877E-01 -0.11278955582E+00  0.88993209503E+00  0.88000000000E+00 0.  1.
        -11    1    4    4    0    0 -0.49266177113E-01  0.26677792777E-02  0.42264933268E-01  0.64968138027E-01  0.51100000000E-03 0. -1.
         11    1    4    4    0    0 -0.34582602993E-01  0.41205169335E-02  0.55129196707E-01  0.65210616774E-01  0.51100000000E-03 0.  1.
</event>
<event>
 8    1  0.1078274E+005  0.1043930E+01  0.7957747E-01            NaN
         13   -1    0    0    0    0  0.00000000000E+00  0.00000000000E+00  0.74505805969E-08  0.10566000000E+00  0.10566000000E+00 0. -1.
     999900   -1    0    0    0    0 -0.00000000000E+00 -0.00000000000E+00 -0.74505805969E-08  0.93827000000E+00  0.93827000000E+00 0.  1.
     999902    2    1    2    0    0  0.63093233011E-02  0.52297338850E-02 -0.22396035592E-01  0.10200817278E+01  0.10198029179E+01 0.  0.
     999903    2    3    3    0    0  0.22208350286E-01 -0.12196498465E+00 -0.35432509972E-01  0.13069923126E+00  0.21404625319E-01 0.  0.
         14    1    1    2    0    0 -0.63093233011E-02 -0.52297338850E-02  0.22396035592E-01  0.23848272207E-01  0.00000000000E+00 0. -1.
     999901    1    3    3    0    0 -0.15899026985E-01  0.12719471853E+00  0.13036474380E-01  0.88938249654E+00  0.88000000000E+00 0.  1.
        -11    1    4    4    0    0 -0.71008457635E-03 -0.53171805953E-01 -0.12253502790E-01  0.54572471265E-01  0.51100000000E-03 0.  1.
         11    1    4    4    0    0  0.22918434863E-01 -0.68793178697E-01 -0.23179007182E-01  0.76126759991E-01  0.51100000000E-03 0. -1.
</event>
<event>
 8    1  0.1078274E+005  0.1043930E+01  0.7957747E-01            NaN
         13   -1    0    0    0    0  0.00000000000E+00  0.00000000000E+00  0.74505805969E-08  0.10566000000E+00  0.10566000000E+00 0. -1.
     999900   -1    0    0    0    0 -0.00000000000E+00 -0.00000000000E+00 -0.74505805969E-08  0.93827000000E+00  0.93827000000E+00 0. -1.
     999902    2    1    2    0    0  0.24121693004E-01 -0.28736860852E-02 -0.78539372240E-02  0.10183996558E+01  0.10180795944E+01 0.  0.
     999903    2    3    3    0    0  0.96030111792E-01  0.86317119995E-01 -0.89925501147E-02  0.13097240975E+00  0.20011961033E-01 0.  0.
         14    1    1    2    0    0 -0.24121693004E-01  0.28736860852E-02  0.78539372240E-02  0.25530344201E-01  0.00000000000E+00 0. -1.
     999901    1    3    3    0    0 -0.71908418788E-01 -0.89190806080E-01  0.11386128907E-02  0.88742724604E+00  0.88000000000E+00 0.  1.
        -11    1    4    4    0    0  0.69413612869E-01  0.49681387858E-01 -0.67961499265E-02  0.85632579815E-01  0.51100000000E-03 0. -1.
         11    1    4    4    0    0  0.26616498923E-01  0.36635732137E-01 -0.21964001882E-02  0.45339829940E-01  0.51100000000E-03 0.  1.
</event>
<event>
 8    1  0.1078274E+005  0.1043930E+01  0.7957747E-01            NaN
         13   -1    0    0    0    0  0.00000000000E+00  0.00000000000E+00  0.74505805969E-08  0.10566000000E+00  0.10566000000E+00 0. -1.
     999900   -1    0    0    0    0 -0.00000000000E+00 -0.00000000000E+00 -0.74505805969E-08  0.93827000000E+00  0.93827000000E+00 0. -1.
     999902    2    1    2    0    0 -0.24564593349E-02 -0.16445666378E-01  0.17130766469E-01  0.10200562216E+01  0.10197768079E+01 0.  0.
     999903    2    3    3    0    0  0.11129387079E+00 -0.65092687472E-01  0.16371698943E-01  0.13140204452E+00  0.19367011616E-01 0.  0.
         14    1    1    2    0    0  0.24564593349E-02  0.16445666378E-01 -0.17130766469E-01  0.23873778396E-01  0.00000000000E+00 0.  1.
     999901    1    3    3    0    0 -0.11375033013E+00  0.48647021094E-01  0.75906752574E-03  0.88865417708E+00  0.88000000000E+00 0.  1.
        -11    1    4    4    0    0  0.57223824920E-01 -0.44563676482E-01  0.98677391026E-02  0.73199185761E-01  0.51100000000E-03 0.  1.
         11    1    4    4    0    0  0.54070045875E-01 -0.20529010990E-01  0.65039598402E-02  0.58202858759E-01  0.51100000000E-03 0. -1.
</event>
<event>
 8    1  0.1078274E+005  0.1043930E+01  0.7957747E-01            NaN
         13   -1    0    0    0    0  0.00000000000E+00  0.00000000000E+00  0.74505805969E-08  0.10566000000E+00  0.10566000000E+00 0. -1.
     999900   -1    0    0    0    0 -0.00000000000E+00 -0.00000000000E+00 -0.74505805969E-08  0.93827000000E+00  0.93827000000E+00 0. -1.
     999902    2    1    2    0    0 -0.32642715084E-02 -0.34453293729E-02 -0.23859790854E-01  0.10196027440E+01  0.10193124841E+01 0.  0.
     999903    2    3    3    0    0 -0.10800323740E+00  0.45646677232E-01  0.49898412707E-01  0.12897344479E+00  0.19899232144E-01 0.  0.
         14    1    1    2    0    0  0.32642715084E-02  0.34453293729E-02  0.23859790854E-01  0.24327255960E-01  0.00000000000E+00 0. -1.
     999901    1    3    3    0    0  0.10473896589E+00 -0.49092006604E-01 -0.73758203561E-01  0.89062929925E+00  0.88000000000E+00 0. -1.
        -11    1    4    4    0    0 -0.93837259098E-01  0.34989578694E-01  0.35934661060E-01  0.10640142292E+00  0.51100000000E-03 0. -1.
         11    1    4    4    0    0 -0.14165978299E-01  0.10657098538E-01  0.13963751647E-01  0.22572021874E-01  0.51100000000E-03 0.  1.
</event>
<event>
 8    1  0.1078274E+005  0.1043930E+01  0.7957747E-01            NaN
         13   -1    0    0    0    0  0.00000000000E+00  0.00000000000E+00  0.74505805969E-08  0.10566000000E+00  0.10566000000E+00 0. -1.
     999900   -1    0    0    0    0 -0.00000000000E+00 -0.00000000000E+00 -0.74505805969E-08  0.93827000000E+00  0.93827000000E+00 0.  1.
     999902    2    1    2    0    0 -0.21228173437E-01  0.99598096239E-02  0.44279872444E-04  0.10204814368E+01  0.10202120014E+01 0.  0.
     999903    2    3    3    0    0 -0.74269314899E-01 -0.10509466462E+00 -0.16097336547E-01  0.13126186521E+00  0.20241871111E-01 0.  0.
         14    1    1    2    0    0  0.21228173437E-01 -0.99598096239E-02 -0.44279872444E-04  0.23448563195E-01  0.00000000000E+00 0. -1.
     999901    1    3    3    0    0  0.53041141462E-01  0.11505447425E+00  0.16141616419E-01  0.88921957160E+00  0.88000000000E+00 0. -1.
        -11    1    4    4    0    0 -0.17266953816E-01 -0.30685276978E-01  0.38636101884E-02  0.35424885631E-01  0.51100000000E-03 0.  1.
         11    1    4    4    0    0 -0.57002361083E-01 -0.74409387645E-01 -0.19960946735E-01  0.95836979576E-01  0.51100000000E-03 0. -1.
</event>
<event>
 8    1  0.1078274E+005  0.1043930E+01  0.7957747E-01            NaN
         13   -1    0    0    0    0  0.00000000000E+00  0.00000000000E+00  0.74505805969E-08  0.10566000000E+00  0.10566000000E+00 0.  1.
     999900   -1    0    0    0    0 -0.00000000000E+00 -0.00000000000E+00 -0.74505805969E-08  0.93827000000E+00  0.93827000000E+00 0. -1.
     999902    2    1    2    0    0  0.22288789970E-01  0.12442096745E-01  0.35643691390E-02  0.10181559693E+01  0.10178296897E+01 0.  0.
     999903    2    3    3    0    0  0.90663571574E-01  0.11689651658E-01 -0.90652723794E-01  0.13048906247E+00  0.21282573291E-01 0.  0.
         14    1    1    2    0    0 -0.22288789970E-01 -0.12442096745E-01 -0.35643691390E-02  0.25774030673E-01  0.00000000000E+00 0. -1.
     999901    1    3    3    0    0 -0.68374781604E-01  0.75244508740E-03  0.94217092933E-01  0.88766690686E+00  0.88000000000E+00 0.  1.
        -11    1    4    4    0    0  0.38832011745E-01  0.24368727150E-02 -0.53033411295E-01  0.65777407363E-01  0.51100000000E-03 0.  1.
         11    1    4    4    0    0  0.51831559829E-01  0.92527789431E-02 -0.37619312499E-01  0.64711655105E-01  0.51100000000E-03 0. -1.
</event>
<event>
 8    1  0.1078274E+005  0.1043930E+01  0.7957747E-01            NaN
         13   -1    0    0    0    0  0.00000000000E+00  0.00000000000E+00  0.74505805969E-08  0.10566000000E+00  0.10566000000E+00 0.  1.
     999900   -1    0    0    0    0 -0.00000000000E+00 -0.00000000000E+00 -0.74505805969E-08  0.93827000000E+00  0.93827000000E+00 0.  1.
     999902    2    1    2    0    0  0.18686932176E-01  0.10314217177E-01  0.77174750724E-02  0.10212332176E+01  0.10209809698E+01 0.  0.
     999903    2    3    3    0    0  0.44054374507E-01  0.10966790572E+00 -0.57373166415E-01  0.13289124844E+00  0.20014150727E-01 0.  0.
         14    1    1    2    0    0 -0.18686932176E-01 -0.10314217177E-01 -0.77174750724E-02  0.22696782407E-01  0.00000000000E+00 0. -1.
     999901    1    3    3    0    0 -0.25367442331E-01 -0.99353688538E-01  0.65090641487E-01  0.88834196916E+00  0.88000000000E+00 0. -1.
        -11    1    4    4    0    0  0.21215377605E-01  0.60690993670E-01 -0.41656628679E-01  0.76609560718E-01  0.51100000000E-03 0.  1.
         11    1    4    4    0    0  0.22838996902E-01  0.48976912045E-01 -0.15716537736E-01  0.56281687718E-01  0.51100000000E-03 0. -1.
</event>
<event>
 8    1  0.1078274E+005  0.1043930E+01  0.7957747E-01            NaN
         13   -1    0    0    0    0  0.00000000000E+00  0.00000000000E+00  0.74505805969E-08  0.10566000000E+00  0.10566000000E+00 0. -1.
     999900   -1    0    0    0    0 -0.00000000000E+00 -0.00000000000E+00 -0.74505805969E-08  0.93827000000E+00  0.93827000000E+00 0. -1.
     999902    2    1    2    0    0  0.18081679895E-01 -0.86790547660E-02 -0.11617449434E-01  0.10207515990E+01  0.10204884069E+01 0.  0.
     999903    2    3    3    0    0 -0.10344373444E-01 -0.10585695141E+00  0.73586785286E-01  0.13085759091E+00  0.19899595626E-01 0.  0.
         14    1    1    2    0    0 -0.18081679895E-01  0.86790547660E-02  0.11617449434E-01  0.23178400954E-01  0.00000000000E+00 0. -1.
     999901    1    3    3    0    0  0.28426053339E-01  0.97177896643E-01 -0.85204234720E-01  0.88989400814E+00  0.88000000000E+00 0. -1.
        -11    1    4    4    0    0  0.14046603571E-02 -0.42332057024E-01  0.19634737311E-01  0.46687901568E-01  0.51100000000E-03 0.  1.
         11    1    4    4    0    0 -0.11749033802E-01 -0.63524894385E-01  0.53952047975E-01  0.84169689340E-01  0.51100000000E-03 0. -1.
</event>
<event>
 8    1  0.1078274E+005  0.1043930E+01  0.7957747E-01            NaN
         13   -1    0    0    0    0  0.00000000000E+00  0.00000000000E+00  0.74505805969E-08  0.10566000000E+00  0.10566000000E+00 0.  1.
     999900   -1    0    0    0    0 -0.00000000000E+00 -0.00000000000E+00 -0.74505805969E-08  0.93827000000E+00  0.93827000000E+00 0. -1.
     999902    2    1    2    0    0  0.17744999785E-02  0.11754009722E-01 -0.20719000334E-01  0.10200431298E+01  0.10197634059E+01 0.  0.
     999903    2    3    3    0    0 -0.85418742185E-01  0.70753782818E-01 -0.69359962429E-01  0.13243421932E+00  0.20629075602E-01 0.  0.
         14    1    1    2    0    0 -0.17744999785E-02 -0.11754009722E-01  0.20719000334E-01  0.23886870233E-01  0.00000000000E+00 0.  1.
     999901    1    3    3    0    0  0.87193242163E-01 -0.58999773097E-01  0.48640962095E-01  0.88760891044E+00  0.88000000000E+00 0.  1.
        -11    1    4    4    0    0 -0.33312964229E-01  0.27761407559E-01 -0.39180036519E-01  0.58444723612E-01  0.51100000000E-03 0.  1.
         11    1    4    4    0    0 -0.52105777956E-01  0.42992375259E-01 -0.30179925909E-01  0.73989495712E-01  0.51100000000E-03 0. -1.
</event>
<event>
 8    1  0.1078274E+005  0.1043930E+01  0.7957747E-01            NaN
         13   -1    0    0    0    0  0.00000000000E+00  0.00000000000E+00  0.74505805969E-08  0.10566000000E+00  0.10566000000E+00 0. -1.
     999900   -1    0    0    0    0 -0.00000000000E+00 -0.00000000000E+00 -0.74505805969E-08  0.93827000000E+00  0.93827000000E+00 0. -1.
     999902    2    1    2    0    0  0.64459464879E-02  0.17258405557E-01  0.13828942108E-01  0.10208943227E+01  0.10206343987E+01 0.  0.
     999903    2    3    3    0    0 -0.10585244288E+00 -0.89472789124E-02 -0.70907410150E-01  0.12933506189E+00  0.20369191380E-01 0.  0.
         14    1    1    2    0    0 -0.64459464879E-02 -0.17258405557E-01 -0.13828942108E-01  0.23035677293E-01  0.00000000000E+00 0.  1.
     999901    1    3    3    0    0  0.11229838936E+00  0.26205684470E-01  0.84736352259E-01  0.89155926082E+00  0.88000000000E+00 0.  1.
        -11    1    4    4    0    0 -0.30752298804E-01 -0.32820986485E-02 -0.32222229746E-01  0.44665526573E-01  0.51100000000E-03 0. -1.
         11    1    4    4    0    0 -0.75100144072E-01 -0.56651802640E-02 -0.38685180404E-01  0.84669535318E-01  0.51100000000E-03 0.  1.
</event>
<event>
 8    1  0.1078274E+005  0.1043930E+01  0.7957747E-01            NaN
         13   -1    0    0    0    0  0.00000000000E+00  0.00000000000E+00  0.74505805969E-08  0.10566000000E+00  0.10566000000E+00 0.  1.
     999900   -1    0    0    0    0 -0.00000000000E+00 -0.00000000000E+00 -0.74505805969E-08  0.93827000000E+00  0.93827000000E+00 0.  1.
     999902    2    1    2    0    0  0.13598247037E-01 -0.13109210550E-01 -0.14477544596E-01  0.10201316173E+01  0.10198539864E+01 0.  0.
     999903    2    3    3    0    0  0.10866951246E+00 -0.43440243529E-01  0.56739377842E-01  0.13163267684E+00  0.20290069461E-01 0.  0.
         14    1    1    2    0    0 -0.13598247037E-01  0.13109210550E-01  0.14477544596E-01  0.23798382744E-01  0.00000000000E+00 0.  1.
     999901    1    3    3    0    0 -0.95071265425E-01  0.30331032979E-01 -0.71216922438E-01  0.88849894041E+00  0.88000000000E+00 0.  1.
        -11    1    4    4    0    0  0.14838003460E-01 -0.12934372000E-01  0.54504773011E-02  0.20431180816E-01  0.51100000000E-03 0. -1.
         11    1    4    4    0    0  0.93831509002E-01 -0.30505871529E-01  0.51288900541E-01  0.11120149603E+00  0.51100000000E-03 0.  1.
</event>
<event>
 8    1  0.1078274E+005  0.1043930E+01  0.7957747E-01            NaN
         13   -1    0    0    0    0  0.00000000000E+00  0.00000000000E+00  0.74505805969E-08  0.10566000000E+00  0.10566000000E+00 0. -1.
     999900   -1    0    0    0    0 -0.00000000000E+00 -0.00000000000E+00 -0.74505805969E-08  0.93827000000E+00  0.93827000000E+00 0. -1.
     999902    2    1    2    0    0  0.74284578498E-02  0.18445302015E-01 -0.10350496971E-01  0.10215125082E+01  0.10212664982E+01 0.  0.
     999903    2    3    3    0    0 -0.65165932499E-01  0.80364484035E-01 -0.81816235383E-01  0.13347462475E+00  0.20409067308E-01 0.  0.
         14    1    1    2    0    0 -0.74284578498E-02 -0.18445302015E-01  0.10350496971E-01  0.22417491831E-01  0.00000000000E+00 0. -1.
     999901    1    3    3    0    0  0.72594390349E-01 -0.61919182019E-01  0.71465738413E-01  0.88803788341E+00  0.88000000000E+00 0.  1.
        -11    1    4    4    0    0 -0.21785371557E-01  0.31643930639E-01 -0.18807041873E-01  0.42777408818E-01  0.51100000000E-03 0. -1.
         11    1    4    4    0    0 -0.43380560942E-01  0.48720553396E-01 -0.63009193510E-01  0.90697215937E-01  0.51100000000E-03 0.  1.
</event>
<event>
 8    1  0.1078274E+005  0.1043930E+01  0.7957747E-01            NaN
         13   -1    0    0    0    0  0.00000000000E+00  0.00000000000E+00  0.74505805969E-08  0.10566000000E+00  0.10566000000E+00 0.  1.
     999900   -1    0    0    0    0 -0.00000000000E+00 -0.00000000000E+00 -0.74505805969E-08  0.93827000000E+00  0.93827000000E+00 0.  1.
     999902    2    1    2    0    0 -0.64209859569E-02  0.17007821958E-01 -0.14594381144E-01  0.10206171059E+01  0.10203508151E+01 0.  0.
     999903    2    3    3    0    0 -0.11301177776E-01  0.31738667449E-02  0.12709525085E+00  0.12916259426E+00  0.19798558476E-01 0.  0.
         14    1    1    2    0    0  0.64209859569E-02 -0.17007821958E-01  0.14594381144E-01  0.23312894059E-01  0.00000000000E+00 0.  1.
     999901    1    3    3    0    0  0.48801918188E-02  0.13833955214E-01 -0.14168963199E+00  0.89145451168E+00  0.88000000000E+00 0.  1.
        -11    1    4    4    0    0  0.21616695879E-02 -0.55915282711E-02  0.53223109721E-01  0.53562099783E-01  0.51100000000E-03 0. -1.
         11    1    4    4    0    0 -0.13462847364E-01  0.87653950159E-02  0.73872141127E-01  0.75600494473E-01  0.51100000000E-03 0.  1.
</event>
<event>
 8    1  0.1078274E+005  0.1043930E+01  0.7957747E-01            NaN
         13   -1    0    0    0    0  0.00000000000E+00  0.00000000000E+00  0.74505805969E-08  0.10566000000E+00  0.10566000000E+00 0. -1.
     999900   -1    0    0    0    0 -0.00000000000E+00 -0.00000000000E+00 -0.74505805969E-08  0.93827000000E+00  0.93827000000E+00 0. -1.
     999902    2    1    2    0    0 -0.10758562106E-01  0.20951534614E-02 -0.20976979780E-01  0.10202620891E+01  0.10199875295E+01 0.  0.
     999903    2    3    3    0    0 -0.62657332364E-01  0.10726500731E+00 -0.40753108511E-01  0.13226137074E+00  0.20013276679E-01 0.  0.
         14    1    1    2    0    0  0.10758562106E-01 -0.20951534614E-02  0.20976979780E-01  0.23667910920E-01  0.00000000000E+00 0. -1.
     999901    1    3    3    0    0  0.51898770258E-01 -0.10516985385E+00  0.19776128731E-01  0.88800071834E+00  0.88000000000E+00 0.  1.
        -11    1    4    4    0    0 -0.55405149328E-01  0.10123509347E+00 -0.41834096226E-01  0.12275433780E+00  0.51100000000E-03 0.  1.
         11    1    4    4    0    0 -0.72521830362E-02  0.60299138404E-02  0.10809877150E-02  0.95070329311E-02  0.51100000000E-03 0. -1.
</event>
<event>
 8    1  0.1078274E+005  0.1043930E+01  0.7957747E-01            NaN
         13   -1    0    0    0    0  0.00000000000E+00  0.00000000000E+00  0.74505805969E-08  0.10566000000E+00  0.10566000000E+00 0.  1.
     999900   -1    0    0    0    0 -0.00000000000E+00 -0.00000000000E+00 -0.74505805969E-08  0.93827000000E+00  0.93827000000E+00 0. -1.
     999902    2    1    2    0    0  0.21553884378E-01  0.55081168308E-02  0.88930848488E-02  0.10199717813E+01  0.10196903640E+01 0.  0.
     999903    2    3    3    0    0  0.14629890702E-01 -0.13389730533E-01  0.12854147816E+00  0.13164706125E+00  0.20364639523E-01 0.  0.
         14    1    1    2    0    0 -0.21553884378E-01 -0.55081168308E-02 -0.88930848488E-02  0.23958218651E-01  0.00000000000E+00 0. -1.
     999901    1    3    3    0    0  0.69239936756E-02  0.18897847364E-01 -0.11964839331E+00  0.88832472010E+00  0.88000000000E+00 0. -1.
        -11    1    4    4    0    0  0.18095463709E-01 -0.47672398352E-02  0.95627016797E-01  0.97442084568E-01  0.51100000000E-03 0. -1.
         11    1    4    4    0    0 -0.34655730065E-02 -0.86224906977E-02  0.32914461359E-01  0.34204976679E-01  0.51100000000E-03 0.  1.
</event>
<event>
 8    1  0.1078274E+005  0.1043930E+01  0.7957747E-01            NaN
         13   -1    0    0    0    0  0.00000000000E+00  0.00000000000E+00  0.74505805969E-08  0.10566000000E+00  0.10566000000E+00 0.  1.
     999900   -1    0    0    0    0 -0.00000000000E+00 -0.00000000000E+00 -0.74505805969E-08  0.93827000000E+00  0.93827000000E+00 0. -1.
     999902    2    1    2    0    0 -0.64260135780E-02 -0.13818612474E-01 -0.18626214193E-01  0.10198637673E+01  0.10195797763E+01 0.  0.
     999903    2    3    3    0    0 -0.93335644429E-01 -0.77986465706E-01 -0.49434354037E-01  0.13272232491E+00  0.19442963159E-01 0.  0.
         14    1    1    2    0    0  0.64260135780E-02  0.13818612474E-01  0.18626214193E-01  0.24066232700E-01  0.00000000000E+00 0. -1.
     999901    1    3    3    0    0  0.86909630851E-01  0.64167853232E-01  0.30808139843E-01  0.88714144239E+00  0.88000000000E+00 0.  1.
        -11    1    4    4    0    0 -0.20591794168E-01 -0.95417661043E-02 -0.14353181794E-01  0.26857815176E-01  0.51100000000E-03 0. -1.
         11    1    4    4    0    0 -0.72743850262E-01 -0.68444699601E-01 -0.35081172243E-01  0.10586450973E+00  0.51100000000E-03 0.  1.
</event>
<event>
 8    1  0.1078274E+005  0.1043930E+01  0.7957747E-01            NaN
         13   -1    0    0    0    0  0.00000000000E+00  0.00000000000E+00  0.74505805969E-08  0.10566000000E+00  0.10566000000E+00 0. -1.
     999900   -1    0    0    0    0 -0.00000000000E+00 -0.00000000000E+00 -0.74505805969E-08  0.93827000000E+00  0.93827000000E+00 0. -1.
     999902    2    1    2    0    0 -0.11576124701E-01  0.21614090915E-02  0.20528756856E-01  0.10202633946E+01  0.10199888657E+01 0.  0.
     999903    2    3    3    0    0 -0.60669945988E-01  0.10626945658E+00 -0.40963772280E-01  0.13063986751E+00  0.20364297074E-01 0.  0.
         14    1    1    2    0    0  0.11576124701E-01 -0.21614090915E-02 -0.20528756856E-01  0.23666605384E-01  0.00000000000E+00 0.  1.
     999901    1    3    3    0    0  0.49093821286E-01 -0.10410804749E+00  0.61492529136E-01  0.88962352711E+00  0.88000000000E+00 0. -1.
        -11    1    4    4    0    0 -0.30972247303E-01  0.72622107838E-01 -0.29812350623E-01  0.84393649171E-01  0.51100000000E-03 0.  1.
         11    1    4    4    0    0 -0.29697698684E-01  0.33647348744E-01 -0.11151421657E-01  0.46246218339E-01  0.51100000000E-03 0. -1.
</event>
<event>
 8    1  0.1078274E+005  0.1043930E+01  0.7957747E-01            NaN
         13   -1    0    0    0    0  0.00000000000E+00  0.00000000000E+00  0.74505805969E-08  0.10566000000E+00  0.10566000000E+00 0. -1.
     999900   -1    0    0    0    0 -0.00000000000E+00 -0.00000000000E+00 -0.74505805969E-08  0.93827000000E+00  0.93827000000E+00 0.  1.
     999902    2    1    2    0    0 -0.10865067221E-01  0.13338434942E-01 -0.16188740318E-01  0.10203071542E+01  0.10200336514E+01 0.  0.
     999903    2    3    3    0    0 -0.68258572171E-01  0.27338976851E-02 -0.11256240364E+00  0.13312377199E+00  0.19619813541E-01 0.  0.
         14    1    1    2    0    0  0.10865067221E-01 -0.13338434942E-01  0.16188740318E-01  0.23622845839E-01  0.00000000000E+00 0. -1.
     999901    1    3    3    0    0  0.57393504950E-01  0.10604537257E-01  0.96373663324E-01  0.88718338217E+00  0.88000000000E+00 0. -1.
        -11    1    4    4    0    0 -0.32663324841E-01  0.40632753425E-02 -0.71811558623E-01  0.78997240895E-01  0.51100000000E-03 0.  1.
         11    1    4    4    0    0 -0.35595247330E-01 -0.13293776574E-02 -0.40750845020E-01  0.54126531094E-01  0.51100000000E-03 0. -1.
</event>
<event>
 8    1  0.1078274E+005  0.1043930E+01  0.7957747E-01            NaN
         13   -1    0    0    0    0  0.00000000000E+00  0.00000000000E+00  0.74505805969E-08  0.10566000000E+00  0.10566000000E+00 0.  1.
     999900   -1    0    0    0    0 -0.00000000000E+00 -0.00000000000E+00 -0.74505805969E-08  0.93827000000E+00  0.93827000000E+00 0.  1.
     999902    2    1    2    0    0 -0.70031480259E-02 -0.21181706574E-01  0.40931287246E-02  0.10212482347E+01  0.10209963244E+01 0.  0.
     999903    2    3    3    0    0  0.31509208487E-01 -0.12715489986E+00 -0.19064019657E-01  0.13375188379E+00  0.19103161929E-01 0.  0.
         14    1    1    2    0    0  0.70031480259E-02  0.21181706574E-01 -0.40931287246E-02  0.22681765328E-01  0.00000000000E+00 0.  1.
     999901    1    3    3    0    0 -0.38512356513E-01  0.10597319328E+00  0.23157148382E-01  0.88749635088E+00  0.88000000000E+00 0. -1.
        -11    1    4    4    0    0  0.16296892480E-01 -0.95068146550E-01 -0.18610043486E-01  0.98235105907E-01  0.51100000000E-03 0.  1.
         11    1    4    4    0    0  0.15212316008E-01 -0.32086753308E-01 -0.45397617098E-03  0.35516777888E-01  0.51100000000E-03 0. -1.
</event>
<event>
 8    1  0.1078274E+005  0.1043930E+01  0.7957747E-01            NaN
         13   -1    0    0    0    0  0.00000000000E+00  0.00000000000E+00  0.74505805969E-08  0.10566000000E+00  0.10566000000E+00 0. -1.
     999900   -1    0    0    0    0 -0.00000000000E+00 -0.00000000000E+00 -0.74505805969E-08  0.93827000000E+00  0.93827000000E+00 0.  1.
     999902    2    1    2    0    0 -0.77207533222E-02 -0.98108494145E-02 -0.19900280234E-01  0.10204377896E+01  0.10201673384E+01 0.  0.
     999903    2    3    3    0    0 -0.39263924700E-01  0.10342382801E+00 -0.67939514799E-01  0.13132315584E+00  0.19795191453E-01 0.  0.
         14    1    1    2    0    0  0.77207533222E-02  0.98108494145E-02  0.19900280234E-01  0.23492210443E-01  0.00000000000E+00 0.  1.
     999901    1    3    3    0    0  0.31543171377E-01 -0.11323467743E+00  0.48039234565E-01  0.88911463372E+00  0.88000000000E+00 0.  1.
        -11    1    4    4    0    0 -0.27690682519E-02  0.22580952959E-01 -0.73852912763E-02  0.23924272690E-01  0.51100000000E-03 0. -1.
         11    1    4    4    0    0 -0.36494856448E-01  0.80842875056E-01 -0.60554223523E-01  0.10739888315E+00  0.51100000000E-03 0.  1.
</event>
<event>
 8    1  0.1078274E+005  0.1043930E+01  0.7957747E-01            NaN
         13   -1    0    0    0    0  0.00000000000E+00  0.00000000000E+00  0.74505805969E-08  0.10566000000E+00  0.10566000000E+00 0. -1.
     999900   -1    0    0    0    0 -0.00000000000E+00 -0.00000000000E+00 -0.74505805969E-08  0.93827000000E+00  0.93827000000E+00 0. -1.
     999902    2    1    2    0    0 -0.99870264098E-02  0.62621160878E-02 -0.12993203449E-01  0.10263863935E+01  0.10262364496E+01 0.  0.
     999903    2    3    3    0    0 -0.30336770966E-01  0.90947602948E-01 -0.97336274305E-01  0.13807366847E+00  0.19954986199E-01 0.  0.
         14    1    1    2    0    0  0.99870264098E-02 -0.62621160878E-02  0.12993203449E-01  0.17543606536E-01  0.00000000000E+00 0. -1.
     999901    1    3    3    0    0  0.20349744556E-01 -0.84685486860E-01  0.84343070856E-01  0.88831272500E+00  0.88000000000E+00 0. -1.
        -11    1    4    4    0    0 -0.52264139712E-02  0.20585269803E-01 -0.34185637080E-01  0.40249070044E-01  0.51100000000E-03 0.  1.
         11    1    4    4    0    0 -0.25110356995E-01  0.70362333145E-01 -0.63150637225E-01  0.97824598424E-01  0.51100000000E-03 0. -1.
</event>
<event>
 8    1  0.1078274E+005  0.1043930E+01  0.7957747E-01            NaN
         13   -1    0    0    0    0  0.00000000000E+00  0.00000000000E+00  0.74505805969E-08  0.10566000000E+00  0.10566000000E+00 0.  1.
     999900   -1    0    0    0    0 -0.00000000000E+00 -0.00000000000E+00 -0.74505805969E-08  0.93827000000E+00  0.93827000000E+00 0.  1.
     999902    2    1    2    0    0 -0.17415151375E-01 -0.97271853227E-02 -0.13052333205E-01  0.10200916059E+01  0.10198130296E+01 0.  0.
     999903    2    3    3    0    0  0.87236374004E-01 -0.58845837675E-01 -0.74767807089E-01  0.13038750705E+00  0.18375512423E-01 0.  0.
         14    1    1    2    0    0  0.17415151375E-01  0.97271853227E-02  0.13052333205E-01  0.23838394112E-01  0.00000000000E+00 0.  1.
     999901    1    3    3    0    0 -0.10465152538E+00  0.49118652353E-01  0.61715473884E-01  0.88970409884E+00  0.88000000000E+00 0. -1.
        -11    1    4    4    0    0  0.64810359309E-01 -0.35270350317E-01 -0.45993946226E-01  0.86948746372E-01  0.51100000000E-03 0.  1.
         11    1    4    4    0    0  0.22426014694E-01 -0.23575487358E-01 -0.28773860863E-01  0.43438760677E-01  0.51100000000E-03 0. -1.
</event>
<event>
 8    1  0.1078274E+005  0.1043930E+01  0.7957747E-01            NaN
         13   -1    0    0    0    0  0.00000000000E+00  0.00000000000E+00  0.74505805969E-08  0.10566000000E+00  0.10566000000E+00 0.  1.
     999900   -1    0    0    0    0 -0.00000000000E+00 -0.00000000000E+00 -0.74505805969E-08  0.93827000000E+00  0.93827000000E+00 0. -1.
     999902    2    1    2    0    0 -0.18941381718E-01 -0.11480100834E-01  0.12639933550E-01  0.10184283025E+01  0.10181089680E+01 0.  0.
     999903    2    3    3    0    0 -0.47520356681E-01 -0.11944822481E+00  0.17833185333E-01  0.13135398571E+00  0.20243131012E-01 0.  0.
         14    1    1    2    0    0  0.18941381718E-01  0.11480100834E-01 -0.12639933550E-01  0.25501697526E-01  0.00000000000E+00 0. -1.
     999901    1    3    3    0    0  0.28578974963E-01  0.10796812397E+00 -0.51932517835E-02  0.88707431677E+00  0.88000000000E+00 0.  1.
        -11    1    4    4    0    0 -0.41645178526E-01 -0.83635916384E-01  0.81324115521E-02  0.93785311444E-01  0.51100000000E-03 0.  1.
         11    1    4    4    0    0 -0.58751781551E-02 -0.35812308423E-01  0.97007737809E-02  0.37568674263E-01  0.51100000000E-03 0. -1.
</event>
<event>
 8    1  0.1078274E+005  0.1043930E+01  0.7957747E-01            NaN
         13   -1    0    0    0    0  0.00000000000E+00  0.00000000000E+00  0.74505805969E-08  0.10566000000E+00  0.10566000000E+00 0.  1.
     999900   -1    0    0    0    0 -0.00000000000E+00 -0.00000000000E+00 -0.74505805969E-08  0.93827000000E+00  0.93827000000E+00 0. -1.
     999902    2    1    2    0    0 -0.32975440269E-02 -0.21448105456E-01 -0.65975936348E-02  0.10212490991E+01  0.10209972082E+01 0.  0.
     999903    2    3    3    0    0  0.56347549132E-01  0.10568980647E+00 -0.44380136838E-01  0.12931350368E+00  0.20174345221E-01 0.  0.
         14    1    1    2    0    0  0.32975440269E-02  0.21448105456E-01  0.65975936348E-02  0.22680900908E-01  0.00000000000E+00 0.  1.
     999901    1    3    3    0    0 -0.59645093159E-01 -0.12713791192E+00  0.37782543203E-01  0.89193559541E+00  0.88000000000E+00 0.  1.
        -11    1    4    4    0    0  0.13110464611E-01  0.19669357066E-01 -0.86558764149E-03  0.23659633401E-01  0.51100000000E-03 0.  1.
         11    1    4    4    0    0  0.43237084521E-01  0.86020449400E-01 -0.43514549196E-01  0.10565387028E+00  0.51100000000E-03 0. -1.
</event>
<event>
 8    1  0.1078274E+005  0.1043930E+01  0.7957747E-01            NaN
         13   -1    0    0    0    0  0.00000000000E+00  0.00000000000E+00  0.74505805969E-08  0.10566000000E+00  0.10566000000E+00 0. -1.
     999900   -1    0    0    0    0 -0.00000000000E+00 -0.00000000000E+00 -0.74505805969E-08  0.93827000000E+00  0.93827000000E+00 0.  1.
     999902    2    1    2    0    0 -0.14884592220E-01 -0.11636041823E-01  0.13736617048E-01  0.10205709931E+01  0.10203036356E+01 0.  0.
     999903    2    3    3    0    0  0.75105309817E-01 -0.92280999743E-01 -0.49005547869E-01  0.13010012275E+00  0.19180921275E-01 0.  0.
         14    1    1    2    0    0  0.14884592220E-01  0.11636041823E-01 -0.13736617048E-01  0.23359006888E-01  0.00000000000E+00 0.  1.
     999901    1    3    3    0    0 -0.89989902037E-01  0.80644957920E-01  0.62742164918E-01  0.89047087036E+00  0.88000000000E+00 0. -1.
        -11    1    4    4    0    0  0.63511072180E-01 -0.71593906776E-01 -0.31999571618E-01  0.10091371305E+00  0.51100000000E-03 0.  1.
         11    1    4    4    0    0  0.11594237637E-01 -0.20687092967E-01 -0.17005976251E-01  0.29186409698E-01  0.51100000000E-03 0. -1.
</event>
<event>
 8    1  0.1078274E+005  0.1043930E+01  0.7957747E-01            NaN
         13   -1    0    0    0    0  0.00000000000E+00  0.00000000000E+00  0.74505805969E-08  0.10566000000E+00  0.10566000000E+00 0. -1.
     999900   -1    0    0    0    0 -0.00000000000E+00 -0.00000000000E+00 -0.74505805969E-08  0.93827000000E+00  0.93827000000E+00 0. -1.
     999902    2    1    2    0    0  0.12554532372E-02 -0.20223677392E-01 -0.10488758113E-01  0.10211136169E+01  0.10208586735E+01 0.  0.
     999903    2    3    3    0    0 -0.60315221500E-01 -0.53678081556E-01 -0.10339589181E+00  0.13345271284E+00  0.24487828311E-01 0.  0.
         14    1    1    2    0    0 -0.12554532372E-02  0.20223677392E-01  0.10488758113E-01  0.22816383080E-01  0.00000000000E+00 0. -1.
     999901    1    3    3    0    0  0.61570674737E-01  0.33454404163E-01  0.92907133701E-01  0.88766090408E+00  0.88000000000E+00 0.  1.
        -11    1    4    4    0    0 -0.47322859837E-01 -0.27292800934E-01 -0.72689759236E-01  0.90930810316E-01  0.51100000000E-03 0.  1.
         11    1    4    4    0    0 -0.12992361663E-01 -0.26385280622E-01 -0.30706132577E-01  0.42521902521E-01  0.51100000000E-03 0. -1.
</event>
<event>
 8    1  0.1078274E+005  0.1043930E+01  0.7957747E-01            NaN
         13   -1    0    0    0    0  0.00000000000E+00  0.00000000000E+00  0.74505805969E-08  0.10566000000E+00  0.10566000000E+00 0. -1.
     999900   -1    0    0    0    0 -0.00000000000E+00 -0.00000000000E+00 -0.74505805969E-08  0.93827000000E+00  0.93827000000E+00 0. -1.
     999902    2    1    2    0    0  0.31105877736E-02  0.20390300459E-01 -0.96196943850E-02  0.10211708561E+01  0.10209172047E+01 0.  0.
     999903    2    3    3    0    0  0.68489918977E-01  0.10471623316E+00 -0.42662169838E-01  0.13410990837E+00  0.22562098715E-01 0.  0.
         14    1    1    2    0    0 -0.31105877736E-02 -0.20390300459E-01  0.96196943850E-02  0.22759143859E-01  0.00000000000E+00 0. -1.
     999901    1    3    3    0    0 -0.65379331204E-01 -0.84325932704E-01  0.33042475454E-01  0.88706094777E+00  0.88000000000E+00 0. -1.
        -11    1    4    4    0    0  0.20474618053E-01  0.49298440540E-01 -0.23454734031E-01  0.58308934937E-01  0.51100000000E-03 0.  1.
         11    1    4    4    0    0  0.48015300925E-01  0.55417792624E-01 -0.19207435807E-01  0.75800973434E-01  0.51100000000E-03 0. -1.
</event>
<event>
 7    1  0.1078274E+005  0.1043930E+01  0.7957747E-01            NaN
         13   -1    0    0    0    0  0.00000000000E+00  0.00000000000E+00  0.74505805969E-08  0.10566000000E+00  0.10566000000E+00 0. -1.
     999900   -1    0    0    0    0 -0.00000000000E+00 -0.00000000000E+00 -0.74505805969E-08  0.93827000000E+00  0.93827000000E+00 0.  1.
     999902    2    1    2    0    0 -0.40803962984E-02  0.19456785870E-01  0.92732897813E-02  0.10219934995E+01  0.10217580452E+01 0.  0.
         14    1    1    2    0    0  0.40803962984E-02 -0.19456785870E-01 -0.92732897813E-02  0.21936500489E-01  0.00000000000E+00 0.  1.
     999901    1    3    3    0    0 -0.11968147866E+00  0.26022310192E-01  0.35847832711E-01  0.88920519796E+00  0.88000000000E+00 0.  1.
        -11    1    3    3    0    0  0.73407148185E-01  0.23105249489E-01 -0.25896662760E-01  0.81199508752E-01  0.51100000000E-03 0. -1.
         11    1    3    3    0    0  0.42193934181E-01 -0.29670773810E-01 -0.67788016919E-03  0.51588792802E-01  0.51100000000E-03 0.  1.
</event>
<event>
 8    1  0.1078274E+005  0.1043930E+01  0.7957747E-01            NaN
         13   -1    0    0    0    0  0.00000000000E+00  0.00000000000E+00  0.74505805969E-08  0.10566000000E+00  0.10566000000E+00 0. -1.
     999900   -1    0    0    0    0 -0.00000000000E+00 -0.00000000000E+00 -0.74505805969E-08  0.93827000000E+00  0.93827000000E+00 0.  1.
     999902    2    1    2    0    0 -0.16915722728E-01  0.16767714555E-01  0.38332777626E-02  0.10198054908E+01  0.10195201063E+01 0.  0.
     999903    2    3    3    0    0 -0.23529520704E-01 -0.12060703818E+00 -0.31645824998E-01  0.12841650064E+00  0.19739386825E-01 0.  0.
         14    1    1    2    0    0  0.16915722728E-01 -0.16767714555E-01 -0.38332777626E-02  0.24124509222E-01  0.00000000000E+00 0. -1.
     999901    1    3    3    0    0  0.66137979756E-02  0.13737475274E+00  0.35479102760E-01  0.89138899014E+00  0.88000000000E+00 0.  1.
        -11    1    4    4    0    0 -0.16582243821E-01 -0.11107316465E+00 -0.25753650296E-01  0.11522035558E+00  0.51100000000E-03 0.  1.
         11    1    4    4    0    0 -0.69472768832E-02 -0.95338735316E-02 -0.58921747013E-02  0.13196145055E-01  0.51100000000E-03 0. -1.
</event>
<event>
 8    1  0.1078274E+005  0.1043930E+01  0.7957747E-01            NaN
         13   -1    0    0    0    0  0.00000000000E+00  0.00000000000E+00  0.74505805969E-08  0.10566000000E+00  0.10566000000E+00 0. -1.
     999900   -1    0    0    0    0 -0.00000000000E+00 -0.00000000000E+00 -0.74505805969E-08  0.93827000000E+00  0.93827000000E+00 0. -1.
     999902    2    1    2    0    0 -0.19709324491E-01  0.10701624495E-01 -0.78685663877E-02  0.10201624470E+01  0.10198855434E+01 0.  0.
     999903    2    3    3    0    0  0.58411095263E-01 -0.10793792989E+00 -0.32418450386E-01  0.12843331736E+00  0.19537357102E-01 0.  0.
         14    1    1    2    0    0  0.19709324491E-01 -0.10701624495E-01  0.78685663877E-02  0.23767553003E-01  0.00000000000E+00 0. -1.
     999901    1    3    3    0    0 -0.78120419754E-01  0.11863955439E+00  0.24549883999E-01  0.89172912964E+00  0.88000000000E+00 0.  1.
        -11    1    4    4    0    0  0.45758018802E-03 -0.33222130298E-02  0.20566616969E-02  0.39670464302E-02  0.51100000000E-03 0.  1.
         11    1    4    4    0    0  0.57953515075E-01 -0.10461571686E+00 -0.34475112083E-01  0.12446627092E+00  0.51100000000E-03 0. -1.
</event>
<event>
 8    1  0.1078274E+005  0.1043930E+01  0.7957747E-01            NaN
         13   -1    0    0    0    0  0.00000000000E+00  0.00000000000E+00  0.74505805969E-08  0.10566000000E+00  0.10566000000E+00 0. -1.
     999900   -1    0    0    0    0 -0.00000000000E+00 -0.00000000000E+00 -0.74505805969E-08  0.93827000000E+00  0.93827000000E+00 0. -1.
     999902    2    1    2    0    0  0.65608093339E-02  0.21737361441E-01 -0.49049788446E-02  0.10207003655E+01  0.10204359952E+01 0.  0.
     999903    2    3    3    0    0 -0.61155331752E-02 -0.12554705102E+00 -0.14650540937E-01  0.12831683596E+00  0.21239356767E-01 0.  0.
         14    1    1    2    0    0 -0.65608093339E-02 -0.21737361441E-01  0.49049788446E-02  0.23229634500E-01  0.00000000000E+00 0. -1.
     999901    1    3    3    0    0  0.12676342509E-01  0.14728441246E+00  0.97455620920E-02  0.89238352954E+00  0.88000000000E+00 0.  1.
        -11    1    4    4    0    0 -0.14011615810E-01 -0.83463901605E-01 -0.10898282697E-01  0.85332185812E-01  0.51100000000E-03 0. -1.
         11    1    4    4    0    0  0.78960826346E-02 -0.42083149413E-01 -0.37522582399E-02  0.42984650148E-01  0.51100000000E-03 0.  1.
</event>
<event>
 8    1  0.1078274E+005  0.1043930E+01  0.7957747E-01            NaN
         13   -1    0    0    0    0  0.00000000000E+00  0.00000000000E+00  0.74505805969E-08  0.10566000000E+00  0.10566000000E+00 0.  1.
     999900   -1    0    0    0    0 -0.00000000000E+00 -0.00000000000E+00 -0.74505805969E-08  0.93827000000E+00  0.93827000000E+00 0. -1.
     999902    2    1    2    0    0 -0.17045605105E-01  0.96887579062E-03 -0.17332635038E-01  0.10196007663E+01  0.10193104586E+01 0.  0.
     999903    2    3    3    0    0  0.59566239817E-01 -0.82925089312E-01 -0.78320986993E-01  0.13020369458E+00  0.19852398223E-01 0.  0.
         14    1    1    2    0    0  0.17045605105E-01 -0.96887579062E-03  0.17332635038E-01  0.24329233671E-01  0.00000000000E+00 0.  1.
     999901    1    3    3    0    0 -0.76611844921E-01  0.83893965103E-01  0.60988351955E-01  0.88939707175E+00  0.88000000000E+00 0.  1.
        -11    1    4    4    0    0  0.21031287024E-01 -0.46120510812E-01 -0.39797059605E-01  0.64447526140E-01  0.51100000000E-03 0.  1.
         11    1    4    4    0    0  0.38534952793E-01 -0.36804578500E-01 -0.38523927388E-01  0.65756168439E-01  0.51100000000E-03 0. -1.
</event>
<event>
 8    1  0.1078274E+005  0.1043930E+01  0.7957747E-01            NaN
         13   -1    0    0    0    0  0.00000000000E+00  0.00000000000E+00  0.74505805969E-08  0.10566000000E+00  0.10566000000E+00 0.  1.
     999900   -1    0    0    0    0 -0.00000000000E+00 -0.00000000000E+00 -0.74505805969E-08  0.93827000000E+00  0.93827000000E+00 0. -1.
     999902    2    1    2    0    0  0.13616835836E-01  0.35619224320E-03 -0.15352464656E-01  0.10234057884E+01  0.10231999631E+01 0.  0.
     999903    2    3    3    0    0 -0.31829180731E-01  0.12182291919E+00 -0.39509704683E-01  0.13357261390E+00  0.20656864114E-01 0.  0.
         14    1    1    2    0    0 -0.13616835836E-01 -0.35619224320E-03  0.15352464656E-01  0.20524211607E-01  0.00000000000E+00 0.  1.
     999901    1    3    3    0    0  0.45446016568E-01 -0.12146672695E+00  0.24157240027E-01  0.88983317449E+00  0.88000000000E+00 0. -1.
        -11    1    4    4    0    0 -0.22813402614E-02  0.15188655971E-01  0.17719904800E-02  0.15469352115E-01  0.51100000000E-03 0.  1.
         11    1    4    4    0    0 -0.29547840470E-01  0.10663426322E+00 -0.41281695163E-01  0.11810326179E+00  0.51100000000E-03 0. -1.
</event>
<event>
 8    1  0.1078274E+005  0.1043930E+01  0.7957747E-01            NaN
         13   -1    0    0    0    0  0.00000000000E+00  0.00000000000E+00  0.74505805969E-08  0.10566000000E+00  0.10566000000E+00 0. -1.
     999900   -1    0    0    0    0 -0.00000000000E+00 -0.00000000000E+00 -0.74505805969E-08  0.93827000000E+00  0.93827000000E+00 0. -1.
     999902    2    1    2    0    0  0.15727451870E-01  0.17432429458E-01  0.18348527143E-02  0.10203798615E+01  0.10201080593E+01 0.  0.
     999903    2    3    3    0    0  0.97673428460E-02  0.92476671299E-01 -0.91533693077E-01  0.13224426009E+00  0.21512592553E-01 0.  0.
         14    1    1    2    0    0 -0.15727451870E-01 -0.17432429458E-01 -0.18348527143E-02  0.23550138506E-01  0.00000000000E+00 0.  1.
     999901    1    3    3    0    0  0.59601090244E-02 -0.75044241841E-01  0.93368545791E-01  0.88813560140E+00  0.88000000000E+00 0.  1.
        -11    1    4    4    0    0  0.30556265104E-02  0.70794444144E-01 -0.79683962093E-01  0.10663482129E+00  0.51100000000E-03 0. -1.
         11    1    4    4    0    0  0.67117163357E-02  0.21682227155E-01 -0.11849730984E-01  0.25609438806E-01  0.51100000000E-03 0.  1.
</event>
<event>
 8    1  0.1078274E+005  0.1043930E+01  0.7957747E-01            NaN
         13   -1    0    0    0    0  0.00000000000E+00  0.00000000000E+00  0.74505805969E-08  0.10566000000E+00  0.10566000000E+00 0.  1.
     999900   -1    0    0    0    0 -0.00000000000E+00 -0.00000000000E+00 -0.74505805969E-08  0.93827000000E+00  0.93827000000E+00 0.  1.
     999902    2    1    2    0    0 -0.17849784019E-01 -0.15166002120E-01  0.29466744439E-02  0.10203226855E+01  0.10200495464E+01 0.  0.
     999903    2    3    3    0    0  0.16990187465E-01 -0.11676689137E+00  0.56721473458E-01  0.13216262481E+00  0.18068216746E-01 0.  0.
         14    1    1    2    0    0  0.17849784019E-01  0.15166002120E-01 -0.29466744439E-02  0.23607314547E-01  0.00000000000E+00 0. -1.
     999901    1    3    3    0    0 -0.34839971484E-01  0.10160088925E+00 -0.53774799014E-01  0.88816006064E+00  0.88000000000E+00 0.  1.
        -11    1    4    4    0    0 -0.16586446735E-02 -0.10184141122E-01  0.97453047851E-02  0.14202109664E-01  0.51100000000E-03 0.  1.
         11    1    4    4    0    0  0.18648832138E-01 -0.10658275024E+00  0.46976168673E-01  0.11796051515E+00  0.51100000000E-03 0. -1.
</event>
<event>
 8    1  0.1078274E+005  0.1043930E+01  0.7957747E-01            NaN
         13   -1    0    0    0    0  0.00000000000E+00  0.00000000000E+00  0.74505805969E-08  0.10566000000E+00  0.10566000000E+00 0.  1.
     999900   -1    0    0    0    0 -0.00000000000E+00 -0.00000000000E+00 -0.74505805969E-08  0.93827000000E+00  0.93827000000E+00 0. -1.
     999902    2    1    2    0    0  0.12431373075E-02 -0.93168331861E-02  0.20642350589E-01  0.10212483905E+01  0.10209964837E+01 0.  0.
     999903    2    3    3    0    0  0.47306499444E-01  0.37730980039E-01 -0.11199159111E+00  0.12887677927E+00  0.20138917833E-01 0.  0.
         14    1    1    2    0    0 -0.12431373075E-02  0.93168331861E-02 -0.20642350589E-01  0.22681609485E-01  0.00000000000E+00 0. -1.
     999901    1    3    3    0    0 -0.46063362137E-01 -0.47047813225E-01  0.13263394170E+00  0.89237161124E+00  0.88000000000E+00 0.  1.
        -11    1    4    4    0    0  0.30808923027E-01  0.31563537528E-01 -0.63789912219E-01  0.77555532757E-01  0.51100000000E-03 0.  1.
         11    1    4    4    0    0  0.16497576417E-01  0.61674425107E-02 -0.48201678893E-01  0.51321246515E-01  0.51100000000E-03 0. -1.
</event>
<event>
 8    1  0.1078274E+005  0.1043930E+01  0.7957747E-01            NaN
         13   -1    0    0    0    0  0.00000000000E+00  0.00000000000E+00  0.74505805969E-08  0.10566000000E+00  0.10566000000E+00 0. -1.
     999900   -1    0    0    0    0 -0.00000000000E+00 -0.00000000000E+00 -0.74505805969E-08  0.93827000000E+00  0.93827000000E+00 0. -1.
     999902    2    1    2    0    0  0.17704582175E-01  0.66487252383E-04 -0.13160565507E-01  0.10218696932E+01  0.10216315445E+01 0.  0.
     999903    2    3    3    0    0  0.38228494593E-01 -0.29280844947E-01  0.12009374839E+00  0.13111764632E+00  0.21226000459E-01 0.  0.
         14    1    1    2    0    0 -0.17704582175E-01 -0.66487252383E-04  0.13160565507E-01  0.22060306775E-01  0.00000000000E+00 0. -1.
     999901    1    3    3    0    0 -0.20523912418E-01  0.29347332199E-01 -0.13325431390E+00  0.89075204690E+00  0.88000000000E+00 0. -1.
        -11    1    4    4    0    0  0.19747884928E-02 -0.41556165091E-02  0.34660098341E-01  0.34967877776E-01  0.51100000000E-03 0. -1.
         11    1    4    4    0    0  0.36253706100E-01 -0.25125228438E-01  0.85433650047E-01  0.96149768546E-01  0.51100000000E-03 0.  1.
</event>
<event>
 8    1  0.1078274E+005  0.1043930E+01  0.7957747E-01            NaN
         13   -1    0    0    0    0  0.00000000000E+00  0.00000000000E+00  0.74505805969E-08  0.10566000000E+00  0.10566000000E+00 0.  1.
     999900   -1    0    0    0    0 -0.00000000000E+00 -0.00000000000E+00 -0.74505805969E-08  0.93827000000E+00  0.93827000000E+00 0.  1.
     999902    2    1    2    0    0  0.38985531233E-02  0.24289539479E-01  0.40739256964E-03  0.10193262114E+01  0.10190292336E+01 0.  0.
     999903    2    3    3    0    0  0.59922627388E-01  0.10241640575E+00  0.55441873209E-01  0.13238128742E+00  0.19265578480E-01 0.  0.
         14    1    1    2    0    0 -0.38985531233E-02 -0.24289539479E-01 -0.40739256964E-03  0.24603788596E-01  0.00000000000E+00 0. -1.
     999901    1    3    3    0    0 -0.56024074265E-01 -0.78126866266E-01 -0.55034480639E-01  0.88694492399E+00  0.88000000000E+00 0.  1.
        -11    1    4    4    0    0  0.18301840812E-01  0.48152569952E-01  0.19159263867E-01  0.54963313974E-01  0.51100000000E-03 0.  1.
         11    1    4    4    0    0  0.41620786576E-01  0.54263835793E-01  0.36282609342E-01  0.77417973442E-01  0.51100000000E-03 0. -1.
</event>
<event>
 8    1  0.1410779E+005  0.1043930E+01  0.7957747E-01            NaN
         13   -1    0    0    0    0  0.00000000000E+00  0.00000000000E+00  0.74505805969E-08  0.10566000000E+00  0.10566000000E+00 0. -1.
     999900   -1    0    0    0    0 -0.00000000000E+00 -0.00000000000E+00 -0.74505805969E-08  0.93827000000E+00  0.93827000000E+00 0. -1.
     999902    2    1    2    0    0 -0.60072848095E-02 -0.20549766546E-01 -0.10676692309E-01  0.10200056999E+01  0.10197250883E+01 0.  0.
     999903    2    3    3    0    0  0.10290644724E+00 -0.25168333228E-03  0.74847811287E-01  0.12894529011E+00  0.20854082520E-01 0.  0.
         14    1    1    2    0    0  0.60072848095E-02  0.20549766546E-01  0.10676692309E-01  0.23924300085E-01  0.00000000000E+00 0. -1.
     999901    1    3    3    0    0 -0.10891373205E+00 -0.20298083214E-01 -0.85524503596E-01  0.89106040981E+00  0.88000000000E+00 0.  1.
        -11    1    4    4    0    0  0.62702276563E-01  0.92328905850E-02  0.50084647722E-01  0.80780906241E-01  0.51100000000E-03 0. -1.
         11    1    4    4    0    0  0.40204170680E-01 -0.94845739173E-02  0.24763163565E-01  0.48164383866E-01  0.51100000000E-03 0.  1.
</event>
<event>
 8    1  0.1078274E+005  0.1043930E+01  0.7957747E-01            NaN
         13   -1    0    0    0    0  0.00000000000E+00  0.00000000000E+00  0.74505805969E-08  0.10566000000E+00  0.10566000000E+00 0.  1.
     999900   -1    0    0    0    0 -0.00000000000E+00 -0.00000000000E+00 -0.74505805969E-08  0.93827000000E+00  0.93827000000E+00 0. -1.
     999902    2    1    2    0    0 -0.21541021414E-01 -0.54227676659E-02 -0.65174931609E-02  0.10207804918E+01  0.10205179630E+01 0.  0.
     999903    2    3    3    0    0 -0.11965157507E+00 -0.56510518569E-01  0.15223962709E-02  0.13381923061E+00  0.19882923980E-01 0.  0.
         14    1    1    2    0    0  0.21541021414E-01  0.54227676659E-02  0.65174931609E-02  0.23149508198E-01  0.00000000000E+00 0. -1.
     999901    1    3    3    0    0  0.98110553653E-01  0.51087750903E-01 -0.80398894318E-02  0.88696126119E+00  0.88000000000E+00 0.  1.
        -11    1    4    4    0    0 -0.30772767196E-01 -0.67665366333E-02  0.49997322914E-02  0.31906232352E-01  0.51100000000E-03 0. -1.
         11    1    4    4    0    0 -0.88878807872E-01 -0.49743981936E-01 -0.34773360205E-02  0.10191299826E+00  0.51100000000E-03 0.  1.
</event>
<event>
 8    1  0.1078274E+005  0.1043930E+01  0.7957747E-01            NaN
         13   -1    0    0    0    0  0.00000000000E+00  0.00000000000E+00  0.74505805969E-08  0.10566000000E+00  0.10566000000E+00 0. -1.
     999900   -1    0    0    0    0 -0.00000000000E+00 -0.00000000000E+00 -0.74505805969E-08  0.93827000000E+00  0.93827000000E+00 0.  1.
     999902    2    1    2    0    0 -0.15931689048E-01  0.51925756034E-02 -0.17592316550E-01  0.10196345033E+01  0.10193450099E+01 0.  0.
     999903    2    3    3    0    0  0.45607254099E-01 -0.17383212594E-01  0.11577232962E+00  0.12717563223E+00  0.19703081514E-01 0.  0.
         14    1    1    2    0    0  0.15931689048E-01 -0.51925756034E-02  0.17592316550E-01  0.24295496679E-01  0.00000000000E+00 0. -1.
     999901    1    3    3    0    0 -0.61538943147E-01  0.22575788197E-01 -0.13336464617E+00  0.89245887109E+00  0.88000000000E+00 0. -1.
        -11    1    4    4    0    0  0.80431641062E-02 -0.11659780849E-01  0.39386882874E-01  0.41859654105E-01  0.51100000000E-03 0. -1.
         11    1    4    4    0    0  0.37564089993E-01 -0.57234317445E-02  0.76385446748E-01  0.85315978127E-01  0.51100000000E-03 0.  1.
</event>
<event>
 8    1  0.1078274E+005  0.1043930E+01  0.7957747E-01            NaN
         13   -1    0    0    0    0  0.00000000000E+00  0.00000000000E+00  0.74505805969E-08  0.10566000000E+00  0.10566000000E+00 0. -1.
     999900   -1    0    0    0    0 -0.00000000000E+00 -0.00000000000E+00 -0.74505805969E-08  0.93827000000E+00  0.93827000000E+00 0.  1.
     999902    2    1    2    0    0  0.33835657402E-02  0.21958390173E-01  0.96731020227E-02  0.10196980311E+01  0.10194100677E+01 0.  0.
     999903    2    3    3    0    0  0.78948356861E-01 -0.94741072013E-01 -0.28079434453E-01  0.12798391984E+00  0.19563111243E-01 0.  0.
         14    1    1    2    0    0 -0.33835657402E-02 -0.21958390173E-01 -0.96731020227E-02  0.24231968943E-01  0.00000000000E+00 0. -1.
     999901    1    3    3    0    0 -0.75564791121E-01  0.11669946219E+00  0.37752536476E-01  0.89171411122E+00  0.88000000000E+00 0. -1.
        -11    1    4    4    0    0  0.15016789645E-01 -0.27643124212E-01 -0.13187651530E-01  0.34114829053E-01  0.51100000000E-03 0.  1.
         11    1    4    4    0    0  0.63931567216E-01 -0.67097947801E-01 -0.14891782923E-01  0.93869090788E-01  0.51100000000E-03 0. -1.
</event>
<event>
 8    1  0.1078274E+005  0.1043930E+01  0.7957747E-01            NaN
         13   -1    0    0    0    0  0.00000000000E+00  0.00000000000E+00  0.74505805969E-08  0.10566000000E+00  0.10566000000E+00 0.  1.
     999900   -1    0    0    0    0 -0.00000000000E+00 -0.00000000000E+00 -0.74505805969E-08  0.93827000000E+00  0.93827000000E+00 0.  1.
     999902    2    1    2    0    0 -0.64616829768E-02  0.14829391919E-01 -0.17845201618E-01  0.10198444144E+01  0.10195599611E+01 0.  0.
     999903    2    3    3    0    0  0.20279968458E-01 -0.88733193183E-01 -0.91048784367E-01  0.13035068793E+00  0.20409899942E-01 0.  0.
         14    1    1    2    0    0  0.64616829768E-02 -0.14829391919E-01  0.17845201618E-01  0.24085585572E-01  0.00000000000E+00 0.  1.
     999901    1    3    3    0    0 -0.26741651435E-01  0.10356258510E+00  0.73203582749E-01  0.88949372650E+00  0.88000000000E+00 0.  1.
        -11    1    4    4    0    0  0.13501320670E-01 -0.72183176867E-01 -0.82722820120E-01  0.11061655740E+00  0.51100000000E-03 0. -1.
         11    1    4    4    0    0  0.67786477874E-02 -0.16550016316E-01 -0.83259642465E-02  0.19734130524E-01  0.51100000000E-03 0.  1.
</event>
<event>
 8    1  0.1078274E+005  0.1043930E+01  0.7957747E-01            NaN
         13   -1    0    0    0    0  0.00000000000E+00  0.00000000000E+00  0.74505805969E-08  0.10566000000E+00  0.10566000000E+00 0. -1.
     999900   -1    0    0    0    0 -0.00000000000E+00 -0.00000000000E+00 -0.74505805969E-08  0.93827000000E+00  0.93827000000E+00 0. -1.
     999902    2    1    2    0    0  0.47309516935E-02  0.16384513772E-02  0.24726170623E-01  0.10187020405E+01  0.10183896098E+01 0.  0.
     999903    2    3    3    0    0  0.28622159792E-01  0.12018311733E+00  0.37308391933E-01  0.13034291270E+00  0.18279744582E-01 0.  0.
         14    1    1    2    0    0 -0.47309516935E-02 -0.16384513772E-02 -0.24726170623E-01  0.25227959499E-01  0.00000000000E+00 0.  1.
     999901    1    3    3    0    0 -0.23891208099E-01 -0.11854466595E+00 -0.12582221311E-01  0.88835912780E+00  0.88000000000E+00 0. -1.
        -11    1    4    4    0    0  0.29274075326E-01  0.10886653302E+00  0.29379429793E-01  0.11650023825E+00  0.51100000000E-03 0.  1.
         11    1    4    4    0    0 -0.65191553406E-03  0.11316584310E-01  0.79289621402E-02  0.13842674450E-01  0.51100000000E-03 0. -1.
</event>
<event>
 8    1  0.1571326E+005  0.1043930E+01  0.7957747E-01            NaN
         13   -1    0    0    0    0  0.00000000000E+00  0.00000000000E+00  0.74505805969E-08  0.10566000000E+00  0.10566000000E+00 0. -1.
     999900   -1    0    0    0    0 -0.00000000000E+00 -0.00000000000E+00 -0.74505805969E-08  0.93827000000E+00  0.93827000000E+00 0. -1.
     999902    2    1    2    0    0  0.21924327484E-01  0.21823520020E-03 -0.70576914205E-02  0.10208966596E+01  0.10206367889E+01 0.  0.
     999903    2    3    3    0    0 -0.43326663860E-01 -0.11400700862E+00 -0.41650869577E-01  0.13044633185E+00  0.20165632694E-01 0.  0.
         14    1    1    2    0    0 -0.21924327484E-01 -0.21823520020E-03  0.70576914205E-02  0.23033340410E-01  0.00000000000E+00 0. -1.
     999901    1    3    3    0    0  0.65250991344E-01  0.11422524382E+00  0.34593178156E-01  0.89045032774E+00  0.88000000000E+00 0. -1.
        -11    1    4    4    0    0 -0.26867105711E-01 -0.43610234850E-01 -0.14740340935E-01  0.53303214958E-01  0.51100000000E-03 0. -1.
         11    1    4    4    0    0 -0.16459558149E-01 -0.70396773767E-01 -0.26910528642E-01  0.77143116893E-01  0.51100000000E-03 0.  1.
</event>
<event>
 8    1  0.1078274E+005  0.1043930E+01  0.7957747E-01            NaN
         13   -1    0    0    0    0  0.00000000000E+00  0.00000000000E+00  0.74505805969E-08  0.10566000000E+00  0.10566000000E+00 0.  1.
     999900   -1    0    0    0    0 -0.00000000000E+00 -0.00000000000E+00 -0.74505805969E-08  0.93827000000E+00  0.93827000000E+00 0.  1.
     999902    2    1    2    0    0  0.83335705722E-02 -0.19776434640E-01 -0.39855124833E-02  0.10221024927E+01  0.10218693975E+01 0.  0.
     999903    2    3    3    0    0 -0.36386316032E-01  0.73108036939E-01 -0.10021581802E+00  0.13087431483E+00  0.20399192151E-01 0.  0.
         14    1    1    2    0    0 -0.83335705722E-02  0.19776434640E-01  0.39855124833E-02  0.21827507308E-01  0.00000000000E+00 0.  1.
     999901    1    3    3    0    0  0.44719886604E-01 -0.92884471579E-01  0.96230305536E-01  0.89122817787E+00  0.88000000000E+00 0. -1.
        -11    1    4    4    0    0 -0.38263441563E-01  0.69301002352E-01 -0.90370461381E-01  0.12014075619E+00  0.51100000000E-03 0.  1.
         11    1    4    4    0    0  0.18771255317E-02  0.38070345877E-02 -0.98453566378E-02  0.10733558634E-01  0.51100000000E-03 0. -1.
</event>
<event>
 8    1  0.1078274E+005  0.1043930E+01  0.7957747E-01            NaN
         13   -1    0    0    0    0  0.00000000000E+00  0.00000000000E+00  0.74505805969E-08  0.10566000000E+00  0.10566000000E+00 0.  1.
     999900   -1    0    0    0    0 -0.00000000000E+00 -0.00000000000E+00 -0.74505805969E-08  0.93827000000E+00  0.93827000000E+00 0. -1.
     999902    2    1    2    0    0 -0.19506839304E-01 -0.62701233497E-02  0.11615345364E-01  0.10203769222E+01  0.10201050514E+01 0.  0.
     999903    2    3    3    0    0  0.43074108055E-01  0.72436013892E-01 -0.94356327332E-01  0.12833374699E+00  0.21542497875E-01 0.  0.
         14    1    1    2    0    0  0.19506839304E-01  0.62701233497E-02 -0.11615345364E-01  0.23553077811E-01  0.00000000000E+00 0. -1.
     999901    1    3    3    0    0 -0.62580947359E-01 -0.78706137241E-01  0.10597167270E+00  0.89204317520E+00  0.88000000000E+00 0.  1.
        -11    1    4    4    0    0  0.15192727651E-02  0.53622562877E-02 -0.16748522133E-01  0.17658881529E-01  0.51100000000E-03 0. -1.
         11    1    4    4    0    0  0.41554835290E-01  0.67073757604E-01 -0.77607805199E-01  0.11067486546E+00  0.51100000000E-03 0.  1.
</event>
<event>
 7    1  0.1078274E+005  0.1043930E+01  0.7957747E-01            NaN
         13   -1    0    0    0    0  0.00000000000E+00  0.00000000000E+00  0.74505805969E-08  0.10566000000E+00  0.10566000000E+00 0.  1.
     999900   -1    0    0    0    0 -0.00000000000E+00 -0.00000000000E+00 -0.74505805969E-08  0.93827000000E+00  0.93827000000E+00 0.  1.
     999903    2    1    2    0    0 -0.54993061911E-01  0.75779743077E-02 -0.88814814711E-01  0.10665824952E+00  0.20155602837E-01 0.  0.
         14    1    1    2    0    0  0.20387856946E-01  0.34931451846E-01 -0.26060012585E-01  0.48114398000E-01  0.00000000000E+00 0. -1.
     999901    1    1    2    0    0  0.34605204966E-01 -0.42509426154E-01  0.11487482730E+00  0.88915735248E+00  0.88000000000E+00 0. -1.
        -11    1    3    3    0    0 -0.18948062391E-01 -0.33876520864E-02 -0.44517120423E-01  0.48502993586E-01  0.51100000000E-03 0. -1.
         11    1    3    3    0    0 -0.36044999520E-01  0.10965626394E-01 -0.44297694288E-01  0.58155255935E-01  0.51100000000E-03 0.  1.
</event>
<event>
 8    1  0.1078274E+005  0.1043930E+01  0.7957747E-01            NaN
         13   -1    0    0    0    0  0.00000000000E+00  0.00000000000E+00  0.74505805969E-08  0.10566000000E+00  0.10566000000E+00 0.  1.
     999900   -1    0    0    0    0 -0.00000000000E+00 -0.00000000000E+00 -0.74505805969E-08  0.93827000000E+00  0.93827000000E+00 0.  1.
     999902    2    1    2    0    0  0.19253962605E-01  0.78164196766E-02  0.13866528676E-01  0.10189481644E+01  0.10186418751E+01 0.  0.
     999903    2    3    3    0    0 -0.40768836518E-01  0.98799311226E-01  0.71916195920E-01  0.13032541720E+00  0.19732541732E-01 0.  0.
         14    1    1    2    0    0 -0.19253962605E-01 -0.78164196766E-02 -0.13866528676E-01  0.24981835602E-01  0.00000000000E+00 0. -1.
     999901    1    3    3    0    0  0.60022799123E-01 -0.90982891549E-01 -0.58049667244E-01  0.88862274720E+00  0.88000000000E+00 0.  1.
        -11    1    4    4    0    0 -0.10069299065E-01  0.42203610105E-01  0.37314494881E-01  0.57229084728E-01  0.51100000000E-03 0. -1.
         11    1    4    4    0    0 -0.30699537453E-01  0.56595701121E-01  0.34601701039E-01  0.73096332473E-01  0.51100000000E-03 0.  1.
</event>
<event>
 8    1  0.1078274E+005  0.1043930E+01  0.7957747E-01            NaN
         13   -1    0    0    0    0  0.00000000000E+00  0.00000000000E+00  0.74505805969E-08  0.10566000000E+00  0.10566000000E+00 0. -1.
     999900   -1    0    0    0    0 -0.00000000000E+00 -0.00000000000E+00 -0.74505805969E-08  0.93827000000E+00  0.93827000000E+00 0.  1.
     999902    2    1    2    0    0 -0.30184862573E-03  0.22935269636E-01 -0.67598229686E-02  0.10200173901E+01  0.10197370559E+01 0.  0.
     999903    2    3    3    0    0  0.68408339742E-02  0.46800645481E-01  0.11994125202E+00  0.13059412950E+00  0.20780406595E-01 0.  0.
         14    1    1    2    0    0  0.30184862573E-03 -0.22935269636E-01  0.67598229686E-02  0.23912609904E-01  0.00000000000E+00 0. -1.
     999901    1    3    3    0    0 -0.71426825999E-02 -0.23865375845E-01 -0.12670107499E+00  0.88942326059E+00  0.88000000000E+00 0.  1.
        -11    1    4    4    0    0 -0.22335750863E-02  0.38629777101E-01  0.80792615199E-01  0.89582120584E-01  0.51100000000E-03 0.  1.
         11    1    4    4    0    0  0.90744090604E-02  0.81708683802E-02  0.39148636819E-01  0.41012008920E-01  0.51100000000E-03 0. -1.
</event>
<event>
 8    1  0.1078274E+005  0.1043930E+01  0.7957747E-01            NaN
         13   -1    0    0    0    0  0.00000000000E+00  0.00000000000E+00  0.74505805969E-08  0.10566000000E+00  0.10566000000E+00 0. -1.
     999900   -1    0    0    0    0 -0.00000000000E+00 -0.00000000000E+00 -0.74505805969E-08  0.93827000000E+00  0.93827000000E+00 0.  1.
     999902    2    1    2    0    0  0.67050040372E-02 -0.16807231431E-01 -0.13458152860E-01  0.10213786811E+01  0.10211296921E+01 0.  0.
     999903    2    3    3    0    0  0.96067269294E-01  0.84434234264E-01 -0.21544172190E-01  0.13104119868E+00  0.18697172243E-01 0.  0.
         14    1    1    2    0    0 -0.67050040372E-02  0.16807231431E-01  0.13458152860E-01  0.22551318940E-01  0.00000000000E+00 0. -1.
     999901    1    3    3    0    0 -0.89362265257E-01 -0.10124146569E+00  0.80860193300E-02  0.89033748238E+00  0.88000000000E+00 0.  1.
        -11    1    4    4    0    0  0.37247579924E-01  0.22211272848E-01 -0.11200648375E-01  0.44793286291E-01  0.51100000000E-03 0. -1.
         11    1    4    4    0    0  0.58819689370E-01  0.62222961416E-01 -0.10343523815E-01  0.86247912386E-01  0.51100000000E-03 0.  1.
</event>
<event>
 8    1  0.1078274E+005  0.1043930E+01  0.7957747E-01            NaN
         13   -1    0    0    0    0  0.00000000000E+00  0.00000000000E+00  0.74505805969E-08  0.10566000000E+00  0.10566000000E+00 0.  1.
     999900   -1    0    0    0    0 -0.00000000000E+00 -0.00000000000E+00 -0.74505805969E-08  0.93827000000E+00  0.93827000000E+00 0. -1.
     999902    2    1    2    0    0 -0.16006771838E-01  0.20322350344E-01 -0.28668224276E-02  0.10179024504E+01  0.10175696365E+01 0.  0.
     999903    2    3    3    0    0 -0.18831950827E-01 -0.71880171540E-01 -0.10177060303E+00  0.12757035251E+00  0.19888131302E-01 0.  0.
         14    1    1    2    0    0  0.16006771838E-01 -0.20322350344E-01  0.28668224276E-02  0.26027549616E-01  0.00000000000E+00 0.  1.
     999901    1    3    3    0    0  0.28251789889E-02  0.92202521883E-01  0.98903780605E-01  0.89033209787E+00  0.88000000000E+00 0.  1.
        -11    1    4    4    0    0 -0.87768584550E-02 -0.56712401669E-01 -0.86509965869E-01  0.10381505220E+00  0.51100000000E-03 0. -1.
         11    1    4    4    0    0 -0.10055092372E-01 -0.15167769871E-01 -0.15260637163E-01  0.23755300316E-01  0.51100000000E-03 0.  1.
</event>
<event>
 8    1  0.1078274E+005  0.1043930E+01  0.7957747E-01            NaN
         13   -1    0    0    0    0  0.00000000000E+00  0.00000000000E+00  0.74505805969E-08  0.10566000000E+00  0.10566000000E+00 0.  1.
     999900   -1    0    0    0    0 -0.00000000000E+00 -0.00000000000E+00 -0.74505805969E-08  0.93827000000E+00  0.93827000000E+00 0.  1.
     999902    2    1    2    0    0  0.19178464093E-01 -0.43637823609E-03  0.13162218919E-01  0.10206652645E+01  0.10204000854E+01 0.  0.
     999903    2    3    3    0    0 -0.15491666686E-01  0.10652919715E+00  0.72936941360E-01  0.13149898662E+00  0.19588886745E-01 0.  0.
         14    1    1    2    0    0 -0.19178464093E-01  0.43637823609E-03 -0.13162218919E-01  0.23264735498E-01  0.00000000000E+00 0. -1.
     999901    1    3    3    0    0  0.34670130779E-01 -0.10696557539E+00 -0.59774722440E-01  0.88916627789E+00  0.88000000000E+00 0. -1.
        -11    1    4    4    0    0 -0.13069051525E-01  0.84543662243E-01  0.47744341773E-01  0.97970476295E-01  0.51100000000E-03 0. -1.
         11    1    4    4    0    0 -0.24226151613E-02  0.21985534908E-01  0.25192599587E-01  0.33528510321E-01  0.51100000000E-03 0.  1.
</event>
<event>
 8    1  0.1078274E+005  0.1043930E+01  0.7957747E-01            NaN
         13   -1    0    0    0    0  0.00000000000E+00  0.00000000000E+00  0.74505805969E-08  0.10566000000E+00  0.10566000000E+00 0.  1.
     999900   -1    0    0    0    0 -0.00000000000E+00 -0.00000000000E+00 -0.74505805969E-08  0.93827000000E+00  0.93827000000E+00 0.  1.
     999902    2    1    2    0    0  0.13620167006E-01  0.18571766516E-01  0.23784819719E-03  0.10208979347E+01  0.10206380931E+01 0.  0.
     999903    2    3    3    0    0 -0.10256651125E+00 -0.35462094187E-01 -0.67001278399E-01  0.12907951009E+00  0.19872072479E-01 0.  0.
         14    1    1    2    0    0 -0.13620167006E-01 -0.18571766516E-01 -0.23784819719E-03  0.23032065313E-01  0.00000000000E+00 0. -1.
     999901    1    3    3    0    0  0.11618667825E+00  0.54033860703E-01  0.67239126596E-01  0.89181842460E+00  0.88000000000E+00 0. -1.
        -11    1    4    4    0    0 -0.71226907864E-01 -0.25375086508E-01 -0.35581867064E-01  0.83567324977E-01  0.51100000000E-03 0. -1.
         11    1    4    4    0    0 -0.31339603382E-01 -0.10087007680E-01 -0.31419411335E-01  0.45512185113E-01  0.51100000000E-03 0.  1.
</event>
<event>
 8    1  0.1143691E+005  0.1043930E+01  0.7957747E-01            NaN
         13   -1    0    0    0    0  0.00000000000E+00  0.00000000000E+00  0.74505805969E-08  0.10566000000E+00  0.10566000000E+00 0.  1.
     999900   -1    0    0    0    0 -0.00000000000E+00 -0.00000000000E+00 -0.74505805969E-08  0.93827000000E+00  0.93827000000E+00 0.  1.
     999902    2    1    2    0    0  0.12935947108E-01  0.29163881275E-02 -0.20516246973E-01  0.10195013194E+01  0.10192086046E+01 0.  0.
     999903    2    3    3    0    0 -0.11480747909E+00 -0.51938739691E-01  0.10686573904E-01  0.12804123389E+00  0.20049059307E-01 0.  0.
         14    1    1    2    0    0 -0.12935947108E-01 -0.29163881275E-02  0.20516246973E-01  0.24428680626E-01  0.00000000000E+00 0.  1.
     999901    1    3    3    0    0  0.12774342619E+00  0.54855127819E-01 -0.31202820877E-01  0.89146008549E+00  0.88000000000E+00 0.  1.
        -11    1    4    4    0    0 -0.47118648293E-01 -0.30684325151E-01  0.98477487072E-02  0.57087074741E-01  0.51100000000E-03 0.  1.
         11    1    4    4    0    0 -0.67688830792E-01 -0.21254414540E-01  0.83882519692E-03  0.70954159147E-01  0.51100000000E-03 0. -1.
</event>
<event>
 8    1  0.1078274E+005  0.1043930E+01  0.7957747E-01            NaN
         13   -1    0    0    0    0  0.00000000000E+00  0.00000000000E+00  0.74505805969E-08  0.10566000000E+00  0.10566000000E+00 0. -1.
     999900   -1    0    0    0    0 -0.00000000000E+00 -0.00000000000E+00 -0.74505805969E-08  0.93827000000E+00  0.93827000000E+00 0.  1.
     999902    2    1    2    0    0  0.17705048781E-01 -0.81552476784E-02 -0.71930553818E-02  0.10231522026E+01  0.10229412070E+01 0.  0.
     999903    2    3    3    0    0  0.68283361260E-01  0.10274600675E+00  0.46460538950E-01  0.13313199944E+00  0.18606135218E-01 0.  0.
         14    1    1    2    0    0 -0.17705048781E-01  0.81552476784E-02  0.71930553818E-02  0.20777797351E-01  0.00000000000E+00 0. -1.
     999901    1    3    3    0    0 -0.50578312479E-01 -0.11090125443E+00 -0.53653594332E-01  0.89002020320E+00  0.88000000000E+00 0. -1.
        -11    1    4    4    0    0  0.37108307558E-01  0.70152996143E-01  0.25213607208E-01  0.83273383906E-01  0.51100000000E-03 0.  1.
         11    1    4    4    0    0  0.31175053702E-01  0.32593010610E-01  0.21246931742E-01  0.49858615538E-01  0.51100000000E-03 0. -1.
</event>
<event>
 8    1  0.1078274E+005  0.1043930E+01  0.7957747E-01            NaN
         13   -1    0    0    0    0  0.00000000000E+00  0.00000000000E+00  0.74505805969E-08  0.10566000000E+00  0.10566000000E+00 0.  1.
     999900   -1    0    0    0    0 -0.00000000000E+00 -0.00000000000E+00 -0.74505805969E-08  0.93827000000E+00  0.93827000000E+00 0. -1.
     999902    2    1    2    0    0  0.17700243054E-02  0.16157145673E-01 -0.17717332444E-01  0.10198864934E+01  0.10196030449E+01 0.  0.
     999903    2    3    3    0    0 -0.61450161671E-01  0.31589441353E-01 -0.11130440719E+00  0.13253454052E+00  0.20067839821E-01 0.  0.
         14    1    1    2    0    0 -0.17700243054E-02 -0.16157145673E-01  0.17717332444E-01  0.24043506634E-01  0.00000000000E+00 0.  1.
     999901    1    3    3    0    0  0.63220185977E-01 -0.15432295680E-01  0.93587074749E-01  0.88735195285E+00  0.88000000000E+00 0.  1.
        -11    1    4    4    0    0 -0.14282553713E-01 -0.42938711484E-03 -0.15809145417E-01  0.21315860612E-01  0.51100000000E-03 0.  1.
         11    1    4    4    0    0 -0.47167607959E-01  0.32018828468E-01 -0.95495261776E-01  0.11121867990E+00  0.51100000000E-03 0. -1.
</event>
<event>
 8    1  0.1078274E+005  0.1043930E+01  0.7957747E-01            NaN
         13   -1    0    0    0    0  0.00000000000E+00  0.00000000000E+00  0.74505805969E-08  0.10566000000E+00  0.10566000000E+00 0.  1.
     999900   -1    0    0    0    0 -0.00000000000E+00 -0.00000000000E+00 -0.74505805969E-08  0.93827000000E+00  0.93827000000E+00 0.  1.
     999902    2    1    2    0    0  0.69034752491E-02 -0.16906267546E-01 -0.14332631752E-01  0.10207156901E+01  0.10204516724E+01 0.  0.
     999903    2    3    3    0    0 -0.32922667217E-02  0.81831202746E-01 -0.10024558580E+00  0.13097748314E+00  0.19968446418E-01 0.  0.
         14    1    1    2    0    0 -0.69034752491E-02  0.16906267546E-01  0.14332631752E-01  0.23214309936E-01  0.00000000000E+00 0.  1.
     999901    1    3    3    0    0  0.10195741971E-01 -0.98737470292E-01  0.85912954052E-01  0.88973820693E+00  0.88000000000E+00 0. -1.
        -11    1    4    4    0    0 -0.10063280303E-01  0.41572720816E-01 -0.59650838214E-01  0.73403299293E-01  0.51100000000E-03 0. -1.
         11    1    4    4    0    0  0.67710135812E-02  0.40258481931E-01 -0.40594747590E-01  0.57574183843E-01  0.51100000000E-03 0.  1.
</event>
<event>
 8    1  0.1078274E+005  0.1043930E+01  0.7957747E-01            NaN
         13   -1    0    0    0    0  0.00000000000E+00  0.00000000000E+00  0.74505805969E-08  0.10566000000E+00  0.10566000000E+00 0.  1.
     999900   -1    0    0    0    0 -0.00000000000E+00 -0.00000000000E+00 -0.74505805969E-08  0.93827000000E+00  0.93827000000E+00 0. -1.
     999902    2    1    2    0    0 -0.78379260460E-03 -0.12271139840E-01  0.21505619417E-01  0.10191572959E+01  0.10188561757E+01 0.  0.
     999903    2    3    3    0    0 -0.65489450936E-01 -0.83435081059E-01  0.76219974804E-01  0.13222731585E+00  0.20598484502E-01 0.  0.
         14    1    1    2    0    0  0.78379260460E-03  0.12271139840E-01 -0.21505619417E-01  0.24772704138E-01  0.00000000000E+00 0. -1.
     999901    1    3    3    0    0  0.64705658332E-01  0.71163941218E-01 -0.54714355387E-01  0.88692998001E+00  0.88000000000E+00 0. -1.
        -11    1    4    4    0    0 -0.30597054187E-01 -0.27764071924E-01  0.20737007161E-01  0.46231028560E-01  0.51100000000E-03 0.  1.
         11    1    4    4    0    0 -0.34892396749E-01 -0.55671009134E-01  0.55482967643E-01  0.85996287294E-01  0.51100000000E-03 0. -1.
</event>
<event>
 8    1  0.1078274E+005  0.1043930E+01  0.7957747E-01            NaN
         13   -1    0    0    0    0  0.00000000000E+00  0.00000000000E+00  0.74505805969E-08  0.10566000000E+00  0.10566000000E+00 0. -1.
     999900   -1    0    0    0    0 -0.00000000000E+00 -0.00000000000E+00 -0.74505805969E-08  0.93827000000E+00  0.93827000000E+00 0.  1.
     999902    2    1    2    0    0 -0.36372754426E-02 -0.12484999645E-01  0.19379547504E-01  0.10205917942E+01  0.10203249181E+01 0.  0.
     999903    2    3    3    0    0 -0.91281127682E-01 -0.86614945439E-01  0.38980503455E-01  0.13292018196E+00  0.17717281885E-01 0.  0.
         14    1    1    2    0    0  0.36372754426E-02  0.12484999645E-01 -0.19379547504E-01  0.23338205806E-01  0.00000000000E+00 0.  1.
     999901    1    3    3    0    0  0.87643852239E-01  0.74129945793E-01 -0.19600955951E-01  0.88767161224E+00  0.88000000000E+00 0.  1.
        -11    1    4    4    0    0 -0.44904015729E-01 -0.33580148597E-01  0.11167706502E-01  0.57174957787E-01  0.51100000000E-03 0.  1.
         11    1    4    4    0    0 -0.46377111953E-01 -0.53034796842E-01  0.27812796952E-01  0.75745224169E-01  0.51100000000E-03 0. -1.
</event>
<event>
 8    1  0.1078274E+005  0.1043930E+01  0.7957747E-01            NaN
         13   -1    0    0    0    0  0.00000000000E+00  0.00000000000E+00  0.74505805969E-08  0.10566000000E+00  0.10566000000E+00 0. -1.
     999900   -1    0    0    0    0 -0.00000000000E+00 -0.00000000000E+00 -0.74505805969E-08  0.93827000000E+00  0.93827000000E+00 0. -1.
     999902    2    1    2    0    0  0.20033496950E-01  0.33465332515E-02 -0.11901522606E-01  0.10203888334E+01  0.10201172407E+01 0.  0.
     999903    2    3    3    0    0 -0.14473674307E-01  0.87003669981E-01 -0.95803060911E-01  0.13177827217E+00  0.20202987335E-01 0.  0.
         14    1    1    2    0    0 -0.20033496950E-01 -0.33465332515E-02  0.11901522606E-01  0.23541166606E-01  0.00000000000E+00 0.  1.
     999901    1    3    3    0    0  0.34507171257E-01 -0.83657136730E-01  0.83901538304E-01  0.88861056123E+00  0.88000000000E+00 0.  1.
        -11    1    4    4    0    0 -0.68358402670E-02  0.10142709498E-01 -0.20669364893E-01  0.24022635872E-01  0.51100000000E-03 0. -1.
         11    1    4    4    0    0 -0.76378340402E-02  0.76860960483E-01 -0.75133696017E-01  0.10775563630E+00  0.51100000000E-03 0.  1.
</event>
<event>
 8    1  0.1078274E+005  0.1043930E+01  0.7957747E-01            NaN
         13   -1    0    0    0    0  0.00000000000E+00  0.00000000000E+00  0.74505805969E-08  0.10566000000E+00  0.10566000000E+00 0. -1.
     999900   -1    0    0    0    0 -0.00000000000E+00 -0.00000000000E+00 -0.74505805969E-08  0.93827000000E+00  0.93827000000E+00 0. -1.
     999902    2    1    2    0    0  0.19180681324E-01  0.12279250918E-01  0.36754538862E-02  0.10208608106E+01  0.10206001210E+01 0.  0.
     999903    2    3    3    0    0 -0.94861472080E-01  0.83848391946E-01  0.23054630456E-01  0.13040962877E+00  0.21116429003E-01 0.  0.
         14    1    1    2    0    0 -0.19180681324E-01 -0.12279250918E-01 -0.36754538862E-02  0.23069189419E-01  0.00000000000E+00 0.  1.
     999901    1    3    3    0    0  0.11404215340E+00 -0.71569141028E-01 -0.19379176570E-01  0.89045118181E+00  0.88000000000E+00 0. -1.
        -11    1    4    4    0    0 -0.62687782142E-01  0.66092828529E-01  0.21645279525E-01  0.93631187430E-01  0.51100000000E-03 0. -1.
         11    1    4    4    0    0 -0.32173689938E-01  0.17755563417E-01  0.14093509310E-02  0.36778441342E-01  0.51100000000E-03 0.  1.
</event>
<event>
 8    1  0.1078274E+005  0.1043930E+01  0.7957747E-01            NaN
         13   -1    0    0    0    0  0.00000000000E+00  0.00000000000E+00  0.74505805969E-08  0.10566000000E+00  0.10566000000E+00 0. -1.
     999900   -1    0    0    0    0 -0.00000000000E+00 -0.00000000000E+00 -0.74505805969E-08  0.93827000000E+00  0.93827000000E+00 0. -1.
     999902    2    1    2    0    0  0.22664098108E-02  0.94068658735E-03  0.24146995940E-01  0.10196586400E+01  0.10193697284E+01 0.  0.
     999903    2    3    3    0    0  0.11889935418E+00  0.42861135472E-01 -0.21813388440E-01  0.12978621952E+00  0.19862162596E-01 0.  0.
         14    1    1    2    0    0 -0.22664098108E-02 -0.94068658735E-03 -0.24146995940E-01  0.24271360028E-01  0.00000000000E+00 0.  1.
     999901    1    3    3    0    0 -0.11663294437E+00 -0.41920448884E-01  0.45960384380E-01  0.88987242045E+00  0.88000000000E+00 0. -1.
        -11    1    4    4    0    0  0.80759552322E-01  0.35698332233E-01 -0.21907205822E-01  0.90976167228E-01  0.51100000000E-03 0. -1.
         11    1    4    4    0    0  0.38139801862E-01  0.71628032384E-02  0.93817382252E-04  0.38810052293E-01  0.51100000000E-03 0.  1.
</event>
<event>
 8    1  0.1078274E+005  0.1043930E+01  0.7957747E-01            NaN
         13   -1    0    0    0    0  0.00000000000E+00  0.00000000000E+00  0.74505805969E-08  0.10566000000E+00  0.10566000000E+00 0.  1.
     999900   -1    0    0    0    0 -0.00000000000E+00 -0.00000000000E+00 -0.74505805969E-08  0.93827000000E+00  0.93827000000E+00 0.  1.
     999902    2    1    2    0    0  0.20518684853E-02  0.93490717689E-02 -0.22276238398E-01  0.10196844622E+01  0.10193961724E+01 0.  0.
     999903    2    3    3    0    0  0.87219102581E-01 -0.22577849027E-01 -0.94500561805E-01  0.13205326684E+00  0.19768105143E-01 0.  0.
         14    1    1    2    0    0 -0.20518684853E-02 -0.93490717689E-02  0.22276238398E-01  0.24245537824E-01  0.00000000000E+00 0.  1.
     999901    1    3    3    0    0 -0.85167234096E-01  0.31926920796E-01  0.72224323407E-01  0.88763119533E+00  0.88000000000E+00 0. -1.
        -11    1    4    4    0    0  0.39171573408E-01 -0.57794055369E-02 -0.28914232423E-01  0.49031700453E-01  0.51100000000E-03 0. -1.
         11    1    4    4    0    0  0.48047529173E-01 -0.16798443490E-01 -0.65586329382E-01  0.83021566391E-01  0.51100000000E-03 0.  1.
</event>
<event>
 8    1  0.1078274E+005  0.1043930E+01  0.7957747E-01            NaN
         13   -1    0    0    0    0  0.00000000000E+00  0.00000000000E+00  0.74505805969E-08  0.10566000000E+00  0.10566000000E+00 0. -1.
     999900   -1    0    0    0    0 -0.00000000000E+00 -0.00000000000E+00 -0.74505805969E-08  0.93827000000E+00  0.93827000000E+00 0.  1.
     999902    2    1    2    0    0 -0.69392834094E-02  0.94553507895E-02 -0.18995231287E-01  0.10216056607E+01  0.10213617135E+01 0.  0.
     999903    2    3    3    0    0  0.34722534949E-01  0.33450044332E-01  0.11859964998E+00  0.12961698154E+00  0.20251543901E-01 0.  0.
         14    1    1    2    0    0  0.69392834094E-02 -0.94553507895E-02  0.18995231287E-01  0.22324339284E-01  0.00000000000E+00 0.  1.
     999901    1    3    3    0    0 -0.41661818358E-01 -0.23994693542E-01 -0.13759488126E+00  0.89198867918E+00  0.88000000000E+00 0.  1.
        -11    1    4    4    0    0  0.13457385972E-01  0.13163587106E-01  0.23709469792E-01  0.30278397275E-01  0.51100000000E-03 0.  1.
         11    1    4    4    0    0  0.21265148977E-01  0.20286457225E-01  0.94890180183E-01  0.99338584266E-01  0.51100000000E-03 0. -1.
</event>
<event>
 8    1  0.1078274E+005  0.1043930E+01  0.7957747E-01            NaN
         13   -1    0    0    0    0  0.00000000000E+00  0.00000000000E+00  0.74505805969E-08  0.10566000000E+00  0.10566000000E+00 0. -1.
     999900   -1    0    0    0    0 -0.00000000000E+00 -0.00000000000E+00 -0.74505805969E-08  0.93827000000E+00  0.93827000000E+00 0.  1.
     999902    2    1    2    0    0 -0.20352453179E-01  0.12222385849E-01  0.70925884476E-02  0.10191527145E+01  0.10188514816E+01 0.  0.
     999903    2    3    3    0    0  0.65910824185E-01  0.28813643167E-01  0.10563081663E+00  0.12930643268E+00  0.19693179878E-01 0.  0.
         14    1    1    2    0    0  0.20352453179E-01 -0.12222385849E-01 -0.70925884476E-02  0.24777285508E-01  0.00000000000E+00 0.  1.
     999901    1    3    3    0    0 -0.86263277364E-01 -0.16591257318E-01 -0.98538228181E-01  0.88984628181E+00  0.88000000000E+00 0.  1.
        -11    1    4    4    0    0  0.48864669614E-01  0.23890659726E-01  0.63644143161E-01  0.83721906561E-01  0.51100000000E-03 0. -1.
         11    1    4    4    0    0  0.17046154571E-01  0.49229834407E-02  0.41986673468E-01  0.45584526119E-01  0.51100000000E-03 0.  1.
</event>
<event>
 8    1  0.1078274E+005  0.1043930E+01  0.7957747E-01            NaN
         13   -1    0    0    0    0  0.00000000000E+00  0.00000000000E+00  0.74505805969E-08  0.10566000000E+00  0.10566000000E+00 0.  1.
     999900   -1    0    0    0    0 -0.00000000000E+00 -0.00000000000E+00 -0.74505805969E-08  0.93827000000E+00  0.93827000000E+00 0. -1.
     999902    2    1    2    0    0 -0.74783769405E-02  0.12515075949E-01 -0.17928401846E-01  0.10208219745E+01  0.10205603965E+01 0.  0.
     999903    2    3    3    0    0  0.96306517044E-01 -0.14317637103E-01  0.81746357101E-01  0.12873097230E+00  0.20230085850E-01 0.  0.
         14    1    1    2    0    0  0.74783769405E-02 -0.12515075949E-01  0.17928401846E-01  0.23108025455E-01  0.00000000000E+00 0.  1.
     999901    1    3    3    0    0 -0.10378489399E+00  0.26832713052E-01 -0.99674758947E-01  0.89209100224E+00  0.88000000000E+00 0. -1.
        -11    1    4    4    0    0  0.41053716663E-01  0.29445608716E-02  0.39662612860E-01  0.57161718575E-01  0.51100000000E-03 0.  1.
         11    1    4    4    0    0  0.55252800382E-01 -0.17262197975E-01  0.42083744241E-01  0.71569253729E-01  0.51100000000E-03 0. -1.
</event>
<event>
 8    1  0.1078274E+005  0.1043930E+01  0.7957747E-01            NaN
         13   -1    0    0    0    0  0.00000000000E+00  0.00000000000E+00  0.74505805969E-08  0.10566000000E+00  0.10566000000E+00 0.  1.
     999900   -1    0    0    0    0 -0.00000000000E+00 -0.00000000000E+00 -0.74505805969E-08  0.93827000000E+00  0.93827000000E+00 0. -1.
     999902    2    1    2    0    0 -0.13352242594E-01  0.21140833612E-01  0.47837861541E-02  0.10184721557E+01  0.10181539324E+01 0.  0.
     999903    2    3    3    0    0 -0.21708891315E-01 -0.96738208621E-01  0.77873815422E-01  0.12756954901E+00  0.19496197990E-01 0.  0.
         14    1    1    2    0    0  0.13352242594E-01 -0.21140833612E-01 -0.47837861541E-02  0.25457844333E-01  0.00000000000E+00 0.  1.
     999901    1    3    3    0    0  0.83566487213E-02  0.11787904223E+00 -0.73090029268E-01  0.89090260666E+00  0.88000000000E+00 0. -1.
        -11    1    4    4    0    0 -0.19747127907E-01 -0.45242190284E-01  0.41461534415E-01  0.64468013769E-01  0.51100000000E-03 0. -1.
         11    1    4    4    0    0 -0.19617634081E-02 -0.51496018338E-01  0.36412281008E-01  0.63101535239E-01  0.51100000000E-03 0.  1.
</event>
<event>
 8    1  0.1078274E+005  0.1043930E+01  0.7957747E-01            NaN
         13   -1    0    0    0    0  0.00000000000E+00  0.00000000000E+00  0.74505805969E-08  0.10566000000E+00  0.10566000000E+00 0. -1.
     999900   -1    0    0    0    0 -0.00000000000E+00 -0.00000000000E+00 -0.74505805969E-08  0.93827000000E+00  0.93827000000E+00 0.  1.
     999902    2    1    2    0    0 -0.12850240165E-01  0.14182010144E-01 -0.13577281650E-01  0.10204651186E+01  0.10201953036E+01 0.  0.
     999903    2    3    3    0    0 -0.46179252706E-01  0.10327998884E-01  0.11929259647E+00  0.12985853819E+00  0.19832433706E-01 0.  0.
         14    1    1    2    0    0  0.12850240165E-01 -0.14182010144E-01  0.13577281650E-01  0.23464881441E-01  0.00000000000E+00 0.  1.
     999901    1    3    3    0    0  0.33329012541E-01  0.38540112604E-02 -0.13286987812E+00  0.89060658037E+00  0.88000000000E+00 0.  1.
        -11    1    4    4    0    0 -0.18193614536E-01 -0.30502946831E-03  0.68689945080E-01  0.71061032423E-01  0.51100000000E-03 0.  1.
         11    1    4    4    0    0 -0.27985638170E-01  0.10633028352E-01  0.50602651393E-01  0.58797505770E-01  0.51100000000E-03 0. -1.
</event>
<event>
 8    1  0.1078274E+005  0.1043930E+01  0.7957747E-01            NaN
         13   -1    0    0    0    0  0.00000000000E+00  0.00000000000E+00  0.74505805969E-08  0.10566000000E+00  0.10566000000E+00 0. -1.
     999900   -1    0    0    0    0 -0.00000000000E+00 -0.00000000000E+00 -0.74505805969E-08  0.93827000000E+00  0.93827000000E+00 0. -1.
     999902    2    1    2    0    0 -0.91644133012E-02  0.15393439187E-01  0.14723531315E-01  0.10207410626E+01  0.10204776284E+01 0.  0.
     999903    2    3    3    0    0  0.50273561834E-02  0.13026841369E+00  0.18467624525E-01  0.13315349833E+00  0.19841044508E-01 0.  0.
         14    1    1    2    0    0  0.91644133012E-02 -0.15393439187E-01 -0.14723531315E-01  0.23188937353E-01  0.00000000000E+00 0.  1.
     999901    1    3    3    0    0 -0.14191769485E-01 -0.11487497451E+00 -0.37440932093E-02  0.88758756431E+00  0.88000000000E+00 0. -1.
        -11    1    4    4    0    0  0.29538615585E-02  0.47946571084E-01 -0.27357921127E-02  0.48118028391E-01  0.51100000000E-03 0.  1.
         11    1    4    4    0    0  0.20734946250E-02  0.82321842608E-01  0.21203416637E-01  0.85035469943E-01  0.51100000000E-03 0. -1.
</event>
<event>
 8    1  0.1078274E+005  0.1043930E+01  0.7957747E-01            NaN
         13   -1    0    0    0    0  0.00000000000E+00  0.00000000000E+00  0.74505805969E-08  0.10566000000E+00  0.10566000000E+00 0. -1.
     999900   -1    0    0    0    0 -0.00000000000E+00 -0.00000000000E+00 -0.74505805969E-08  0.93827000000E+00  0.93827000000E+00 0.  1.
     999902    2    1    2    0    0  0.77384730154E-02 -0.14996132274E-01 -0.15760803501E-01  0.10208395068E+01  0.10205783301E+01 0.  0.
     999903    2    3    3    0    0  0.11758680841E+00 -0.77930155651E-04 -0.58576078070E-01  0.13285169313E+00  0.19792722429E-01 0.  0.
         14    1    1    2    0    0 -0.77384730154E-02  0.14996132274E-01  0.15760803501E-01  0.23090493169E-01  0.00000000000E+00 0.  1.
     999901    1    3    3    0    0 -0.10984833539E+00 -0.14918202119E-01  0.42815274568E-01  0.88798781370E+00  0.88000000000E+00 0.  1.
        -11    1    4    4    0    0  0.91870065095E-01  0.70576974305E-02 -0.40733226701E-01  0.10074411562E+00  0.51100000000E-03 0. -1.
         11    1    4    4    0    0  0.25716743312E-01 -0.71356275861E-02 -0.17842851369E-01  0.32107577510E-01  0.51100000000E-03 0.  1.
</event>
<event>
 8    1  0.1078274E+005  0.1043930E+01  0.7957747E-01            NaN
         13   -1    0    0    0    0  0.00000000000E+00  0.00000000000E+00  0.74505805969E-08  0.10566000000E+00  0.10566000000E+00 0. -1.
     999900   -1    0    0    0    0 -0.00000000000E+00 -0.00000000000E+00 -0.74505805969E-08  0.93827000000E+00  0.93827000000E+00 0.  1.
     999902    2    1    2    0    0 -0.49237538058E-02 -0.71283329266E-02  0.19737527020E-01  0.10223748045E+01  0.10221475502E+01 0.  0.
     999903    2    3    3    0    0  0.93684187074E-01  0.67653185699E-01  0.62031343304E-01  0.13270937947E+00  0.20253676300E-01 0.  0.
         14    1    1    2    0    0  0.49237538058E-02  0.71283329266E-02 -0.19737527020E-01  0.21555195539E-01  0.00000000000E+00 0.  1.
     999901    1    3    3    0    0 -0.98607940880E-01 -0.74781518625E-01 -0.42293816284E-01  0.88966542499E+00  0.88000000000E+00 0. -1.
        -11    1    4    4    0    0  0.16181208956E-01  0.22018784370E-01  0.12859898114E-01  0.30204246207E-01  0.51100000000E-03 0. -1.
         11    1    4    4    0    0  0.77502978118E-01  0.45634401329E-01  0.49171445190E-01  0.10250513326E+00  0.51100000000E-03 0.  1.
</event>
<event>
 8    1  0.1078274E+005  0.1043930E+01  0.7957747E-01            NaN
         13   -1    0    0    0    0  0.00000000000E+00  0.00000000000E+00  0.74505805969E-08  0.10566000000E+00  0.10566000000E+00 0. -1.
     999900   -1    0    0    0    0 -0.00000000000E+00 -0.00000000000E+00 -0.74505805969E-08  0.93827000000E+00  0.93827000000E+00 0. -1.
     999902    2    1    2    0    0  0.44925418398E-02  0.11849721553E-01  0.21084121537E-01  0.10193304265E+01  0.10190335517E+01 0.  0.
     999903    2    3    3    0    0 -0.27122040091E-02 -0.86008826954E-01  0.96300077316E-01  0.13068784154E+00  0.20018308410E-01 0.  0.
         14    1    1    2    0    0 -0.44925418398E-02 -0.11849721553E-01 -0.21084121537E-01  0.24599573452E-01  0.00000000000E+00 0.  1.
     999901    1    3    3    0    0  0.72047458489E-02  0.97858548507E-01 -0.75215955779E-01  0.88864258500E+00  0.88000000000E+00 0. -1.
        -11    1    4    4    0    0 -0.51553698418E-02 -0.18227967102E-01  0.11761599509E-01  0.22303205305E-01  0.51100000000E-03 0. -1.
         11    1    4    4    0    0  0.24431658327E-02 -0.67780859853E-01  0.84538477807E-01  0.10838463624E+00  0.51100000000E-03 0.  1.
</event>
<event>
 8    1  0.1078274E+005  0.1043930E+01  0.7957747E-01            NaN
         13   -1    0    0    0    0  0.00000000000E+00  0.00000000000E+00  0.74505805969E-08  0.10566000000E+00  0.10566000000E+00 0. -1.
     999900   -1    0    0    0    0 -0.00000000000E+00 -0.00000000000E+00 -0.74505805969E-08  0.93827000000E+00  0.93827000000E+00 0.  1.
     999902    2    1    2    0    0  0.11203320683E-01 -0.23965568686E-01 -0.55942565506E-02  0.10168900558E+01  0.10165304850E+01 0.  0.
     999903    2    3    3    0    0 -0.26052866931E-01  0.23638518574E-01  0.11942699025E+00  0.12600034051E+00  0.19384229994E-01 0.  0.
         14    1    1    2    0    0 -0.11203320683E-01  0.23965568686E-01  0.55942565506E-02  0.27039944214E-01  0.00000000000E+00 0. -1.
     999901    1    3    3    0    0  0.37256187614E-01 -0.47604087260E-01 -0.12502124680E+00  0.89088971528E+00  0.88000000000E+00 0.  1.
        -11    1    4    4    0    0 -0.12132847369E-01  0.39034679136E-03  0.50393755487E-01  0.51837728239E-01  0.51100000000E-03 0.  1.
         11    1    4    4    0    0 -0.13920019562E-01  0.23248171782E-01  0.69033234760E-01  0.74162612267E-01  0.51100000000E-03 0. -1.
</event>
<event>
 8    1  0.1078274E+005  0.1043930E+01  0.7957747E-01            NaN
         13   -1    0    0    0    0  0.00000000000E+00  0.00000000000E+00  0.74505805969E-08  0.10566000000E+00  0.10566000000E+00 0. -1.
     999900   -1    0    0    0    0 -0.00000000000E+00 -0.00000000000E+00 -0.74505805969E-08  0.93827000000E+00  0.93827000000E+00 0. -1.
     999902    2    1    2    0    0  0.18866840021E-01  0.23599029289E-02  0.14326775722E-01  0.10201227890E+01  0.10198449496E+01 0.  0.
     999903    2    3    3    0    0  0.96130997698E-01  0.82424840841E-01 -0.29938603110E-01  0.13201267862E+00  0.22271152985E-01 0.  0.
         14    1    1    2    0    0 -0.18866840021E-01 -0.23599029289E-02 -0.14326775722E-01  0.23807211025E-01  0.00000000000E+00 0.  1.
     999901    1    3    3    0    0 -0.77264157677E-01 -0.80064937912E-01  0.44265378832E-01  0.88811011035E+00  0.88000000000E+00 0.  1.
        -11    1    4    4    0    0  0.82733667210E-01  0.65230318020E-01 -0.17174849835E-01  0.10674778999E+00  0.51100000000E-03 0.  1.
         11    1    4    4    0    0  0.13397330487E-01  0.17194522821E-01 -0.12763753274E-01  0.25264888638E-01  0.51100000000E-03 0. -1.
</event>
<event>
 8    1  0.1078274E+005  0.1043930E+01  0.7957747E-01            NaN
         13   -1    0    0    0    0  0.00000000000E+00  0.00000000000E+00  0.74505805969E-08  0.10566000000E+00  0.10566000000E+00 0.  1.
     999900   -1    0    0    0    0 -0.00000000000E+00 -0.00000000000E+00 -0.74505805969E-08  0.93827000000E+00  0.93827000000E+00 0.  1.
     999902    2    1    2    0    0 -0.21072421733E-01 -0.72398789297E-02 -0.90144981532E-02  0.10198941106E+01  0.10196108438E+01 0.  0.
     999903    2    3    3    0    0 -0.70827602554E-01 -0.41515923289E-01 -0.10280489190E+00  0.13285010759E+00  0.18444080810E-01 0.  0.
         14    1    1    2    0    0  0.21072421733E-01  0.72398789297E-02  0.90144981532E-02  0.24035889449E-01  0.00000000000E+00 0.  1.
     999901    1    3    3    0    0  0.49755180821E-01  0.34276044360E-01  0.93790393748E-01  0.88704400296E+00  0.88000000000E+00 0. -1.
        -11    1    4    4    0    0 -0.23495000462E-01 -0.23891680919E-01 -0.37530244074E-01  0.50315085263E-01  0.51100000000E-03 0.  1.
         11    1    4    4    0    0 -0.47332602093E-01 -0.17624242371E-01 -0.65274647828E-01  0.82535022324E-01  0.51100000000E-03 0. -1.
</event>
<event>
 7    1  0.1078274E+005  0.1043930E+01  0.7957747E-01            NaN
         13   -1    0    0    0    0  0.00000000000E+00  0.00000000000E+00  0.74505805969E-08  0.10566000000E+00  0.10566000000E+00 0. -1.
     999900   -1    0    0    0    0 -0.00000000000E+00 -0.00000000000E+00 -0.74505805969E-08  0.93827000000E+00  0.93827000000E+00 0. -1.
     999902    2    1    2    0    0 -0.74834408918E-02 -0.66152514777E-02 -0.21665394735E-01  0.10200730771E+01  0.10197940625E+01 0.  0.
         14    1    1    2    0    0  0.74834408918E-02  0.66152514777E-02  0.21665394735E-01  0.23856922868E-01  0.00000000000E+00 0. -1.
     999901    1    3    3    0    0 -0.90849905193E-01  0.20042659700E-01  0.36177003685E-01  0.88564337579E+00  0.88000000000E+00 0. -1.
        -11    1    3    3    0    0  0.64213379990E-03 -0.31811213371E-01 -0.37311572549E-01  0.49038558289E-01  0.51100000000E-03 0.  1.
         11    1    3    3    0    0  0.82724330502E-01  0.51533021925E-02 -0.20530825871E-01  0.85391143056E-01  0.51100000000E-03 0. -1.
</event>
<event>
 8    1  0.1078274E+005  0.1043930E+01  0.7957747E-01            NaN
         13   -1    0    0    0    0  0.00000000000E+00  0.00000000000E+00  0.74505805969E-08  0.10566000000E+00  0.10566000000E+00 0.  1.
     999900   -1    0    0    0    0 -0.00000000000E+00 -0.00000000000E+00 -0.74505805969E-08  0.93827000000E+00  0.93827000000E+00 0. -1.
     999902    2    1    2    0    0  0.51798261317E-02  0.17207522237E-01  0.15377112521E-01  0.10202786785E+01  0.10200045082E+01 0.  0.
     999903    2    3    3    0    0  0.73214841902E-02  0.74944080197E-02  0.13062731654E+00  0.13270809491E+00  0.20932566659E-01 0.  0.
         14    1    1    2    0    0 -0.51798261317E-02 -0.17207522237E-01 -0.15377112521E-01  0.23651321522E-01  0.00000000000E+00 0. -1.
     999901    1    3    3    0    0 -0.21416580585E-02  0.97131142171E-02 -0.11525020402E+00  0.88757058357E+00  0.88000000000E+00 0. -1.
        -11    1    4    4    0    0  0.93716763354E-02  0.11315313045E-01  0.12333874215E+00  0.12421179921E+00  0.51100000000E-03 0. -1.
         11    1    4    4    0    0 -0.20501921452E-02 -0.38209050255E-02  0.72885743823E-02  0.84962956971E-02  0.51100000000E-03 0.  1.
</event>
<event>
 8    1  0.1078274E+005  0.1043930E+01  0.7957747E-01            NaN
         13   -1    0    0    0    0  0.00000000000E+00  0.00000000000E+00  0.74505805969E-08  0.10566000000E+00  0.10566000000E+00 0.  1.
     999900   -1    0    0    0    0 -0.00000000000E+00 -0.00000000000E+00 -0.74505805969E-08  0.93827000000E+00  0.93827000000E+00 0.  1.
     999902    2    1    2    0    0 -0.15056447030E-01 -0.47000946216E-02 -0.17768354219E-01  0.10201707513E+01  0.10198940435E+01 0.  0.
     999903    2    3    3    0    0  0.13497821995E-01 -0.10484687296E+00  0.72259407209E-01  0.12946893739E+00  0.19123960126E-01 0.  0.
         14    1    1    2    0    0  0.15056447030E-01  0.47000946216E-02  0.17768354219E-01  0.23759248689E-01  0.00000000000E+00 0.  1.
     999901    1    3    3    0    0 -0.28554269025E-01  0.10014677834E+00 -0.90027761429E-01  0.89070181392E+00  0.88000000000E+00 0. -1.
        -11    1    4    4    0    0  0.15974021610E-01 -0.59413282518E-01  0.35987565118E-01  0.71277440120E-01  0.51100000000E-03 0.  1.
         11    1    4    4    0    0 -0.24761996142E-02 -0.45433590443E-01  0.36271842091E-01  0.58191497272E-01  0.51100000000E-03 0. -1.
</event>
<event>
 8    1  0.1078274E+005  0.1043930E+01  0.7957747E-01            NaN
         13   -1    0    0    0    0  0.00000000000E+00  0.00000000000E+00  0.74505805969E-08  0.10566000000E+00  0.10566000000E+00 0.  1.
     999900   -1    0    0    0    0 -0.00000000000E+00 -0.00000000000E+00 -0.74505805969E-08  0.93827000000E+00  0.93827000000E+00 0.  1.
     999902    2    1    2    0    0 -0.19965552359E-01  0.85509813512E-02  0.29584121030E-02  0.10220098092E+01  0.10217747087E+01 0.  0.
     999903    2    3    3    0    0  0.23690384742E-01 -0.12156187275E+00  0.37179263141E-01  0.13071509794E+00  0.19121087525E-01 0.  0.
         14    1    1    2    0    0  0.19965552359E-01 -0.85509813512E-02 -0.29584121030E-02  0.21920190812E-01  0.00000000000E+00 0. -1.
     999901    1    3    3    0    0 -0.43655937101E-01  0.13011285410E+00 -0.34220851038E-01  0.89129471124E+00  0.88000000000E+00 0.  1.
        -11    1    4    4    0    0  0.17329088919E-01 -0.82873992965E-01  0.34454295048E-01  0.91409822235E-01  0.51100000000E-03 0.  1.
         11    1    4    4    0    0  0.63612958236E-02 -0.38687879781E-01  0.27249680929E-02  0.39305275709E-01  0.51100000000E-03 0. -1.
</event>
<event>
 8    1  0.1207669E+005  0.1043930E+01  0.7957747E-01            NaN
         13   -1    0    0    0    0  0.00000000000E+00  0.00000000000E+00  0.74505805969E-08  0.10566000000E+00  0.10566000000E+00 0.  1.
     999900   -1    0    0    0    0 -0.00000000000E+00 -0.00000000000E+00 -0.74505805969E-08  0.93827000000E+00  0.93827000000E+00 0. -1.
     999902    2    1    2    0    0  0.19061825363E-01  0.29805249234E-02 -0.12754762543E-01  0.10208016476E+01  0.10205396039E+01 0.  0.
     999903    2    3    3    0    0 -0.10035577115E+00  0.64482752299E-01 -0.47466167068E-01  0.12993242720E+00  0.20002311745E-01 0.  0.
         14    1    1    2    0    0 -0.19061825363E-01 -0.29805249234E-02  0.12754762543E-01  0.23128352352E-01  0.00000000000E+00 0. -1.
     999901    1    3    3    0    0  0.11941759652E+00 -0.61502227376E-01  0.34711404525E-01  0.89086922044E+00  0.88000000000E+00 0. -1.
        -11    1    4    4    0    0 -0.66854934729E-01  0.31552021088E-01 -0.30749727216E-01  0.80068215774E-01  0.51100000000E-03 0.  1.
         11    1    4    4    0    0 -0.33500836425E-01  0.32930731211E-01 -0.16716439852E-01  0.49864211430E-01  0.51100000000E-03 0. -1.
</event>
<event>
 8    1  0.1078274E+005  0.1043930E+01  0.7957747E-01            NaN
         13   -1    0    0    0    0  0.00000000000E+00  0.00000000000E+00  0.74505805969E-08  0.10566000000E+00  0.10566000000E+00 0.  1.
     999900   -1    0    0    0    0 -0.00000000000E+00 -0.00000000000E+00 -0.74505805969E-08  0.93827000000E+00  0.93827000000E+00 0.  1.
     999902    2    1    2    0    0 -0.11466471143E-01  0.16621625298E-01  0.12315047477E-01  0.10202779645E+01  0.10200037775E+01 0.  0.
     999903    2    3    3    0    0  0.31925118048E-01  0.40901450546E-01  0.12006177482E+00  0.13231304563E+00  0.19994260467E-01 0.  0.
         14    1    1    2    0    0  0.11466471143E-01 -0.16621625298E-01 -0.12315047477E-01  0.23652035481E-01  0.00000000000E+00 0. -1.
     999901    1    3    3    0    0 -0.43391589192E-01 -0.24279825247E-01 -0.10774672734E+00  0.88796491889E+00  0.88000000000E+00 0.  1.
        -11    1    4    4    0    0  0.20285798343E-01  0.23476812980E-01  0.47126234135E-01  0.56425326112E-01  0.51100000000E-03 0.  1.
         11    1    4    4    0    0  0.11639319705E-01  0.17424637566E-01  0.72935540684E-01  0.75887719517E-01  0.51100000000E-03 0. -1.
</event>
<event>
 8    1  0.1078274E+005  0.1043930E+01  0.7957747E-01            NaN
         13   -1    0    0    0    0  0.00000000000E+00  0.00000000000E+00  0.74505805969E-08  0.10566000000E+00  0.10566000000E+00 0.  1.
     999900   -1    0    0    0    0 -0.00000000000E+00 -0.00000000000E+00 -0.74505805969E-08  0.93827000000E+00  0.93827000000E+00 0.  1.
     999902    2    1    2    0    0  0.79901868636E-02  0.17928633478E-01  0.22407774150E-01  0.10141409529E+01  0.10137033516E+01 0.  0.
     999903    2    3    3    0    0 -0.41474332947E-01  0.60760359682E-01  0.10170163800E+00  0.12815629596E+00  0.25862548609E-01 0.  0.
         14    1    1    2    0    0 -0.79901868636E-02 -0.17928633478E-01 -0.22407774150E-01  0.29789047095E-01  0.00000000000E+00 0. -1.
     999901    1    3    3    0    0  0.49464519810E-01 -0.42831726204E-01 -0.79293863853E-01  0.88598465694E+00  0.88000000000E+00 0.  1.
        -11    1    4    4    0    0 -0.35244651875E-01  0.32110351808E-01  0.52859043901E-01  0.71187076230E-01  0.51100000000E-03 0.  1.
         11    1    4    4    0    0 -0.62296810714E-02  0.28650007873E-01  0.48842594103E-01  0.56969219734E-01  0.51100000000E-03 0. -1.
</event>
<event>
 8    1  0.1078274E+005  0.1043930E+01  0.7957747E-01            NaN
         13   -1    0    0    0    0  0.00000000000E+00  0.00000000000E+00  0.74505805969E-08  0.10566000000E+00  0.10566000000E+00 0.  1.
     999900   -1    0    0    0    0 -0.00000000000E+00 -0.00000000000E+00 -0.74505805969E-08  0.93827000000E+00  0.93827000000E+00 0. -1.
     999902    2    1    2    0    0  0.14838017041E-01 -0.17642466853E-02  0.18297122562E-01  0.10203066215E+01  0.10200331063E+01 0.  0.
     999903    2    3    3    0    0  0.56985868877E-01 -0.94808855770E-01  0.68599093565E-01  0.13297126837E+00  0.27192171467E-01 0.  0.
         14    1    1    2    0    0 -0.14838017041E-01  0.17642466853E-02 -0.18297122562E-01  0.23623378465E-01  0.00000000000E+00 0. -1.
     999901    1    3    3    0    0 -0.42147851836E-01  0.93044609085E-01 -0.50301971003E-01  0.88733535317E+00  0.88000000000E+00 0.  1.
        -11    1    4    4    0    0  0.66757894667E-02 -0.28902106922E-01  0.95085599269E-02  0.31154001066E-01  0.51100000000E-03 0. -1.
         11    1    4    4    0    0  0.50310079410E-01 -0.65906748848E-01  0.59090533638E-01  0.10181726730E+00  0.51100000000E-03 0.  1.
</event>
<event>
 8    1  0.1078274E+005  0.1043930E+01  0.7957747E-01            NaN
         13   -1    0    0    0    0  0.00000000000E+00  0.00000000000E+00  0.74505805969E-08  0.10566000000E+00  0.10566000000E+00 0. -1.
     999900   -1    0    0    0    0 -0.00000000000E+00 -0.00000000000E+00 -0.74505805969E-08  0.93827000000E+00  0.93827000000E+00 0.  1.
     999902    2    1    2    0    0  0.15604675265E-01  0.16641906617E-01  0.53370520267E-02  0.10205004659E+01  0.10202314726E+01 0.  0.
     999903    2    3    3    0    0 -0.80687476645E-01  0.28052649949E-01  0.94801493411E-01  0.13066549809E+00  0.28084322698E-01 0.  0.
         14    1    1    2    0    0 -0.15604675265E-01 -0.16641906617E-01 -0.53370520267E-02  0.23429534147E-01  0.00000000000E+00 0. -1.
     999901    1    3    3    0    0  0.96292151910E-01 -0.11410743332E-01 -0.89464441385E-01  0.88983496776E+00  0.88000000000E+00 0. -1.
        -11    1    4    4    0    0 -0.66112499156E-02  0.10054653437E-01  0.54710519419E-02  0.13228688958E-01  0.51100000000E-03 0.  1.
         11    1    4    4    0    0 -0.74076226730E-01  0.17997996512E-01  0.89330441470E-01  0.11743680913E+00  0.51100000000E-03 0. -1.
</event>
<event>
 8    1  0.1078274E+005  0.1043930E+01  0.7957747E-01            NaN
         13   -1    0    0    0    0  0.00000000000E+00  0.00000000000E+00  0.74505805969E-08  0.10566000000E+00  0.10566000000E+00 0.  1.
     999900   -1    0    0    0    0 -0.00000000000E+00 -0.00000000000E+00 -0.74505805969E-08  0.93827000000E+00  0.93827000000E+00 0. -1.
     999902    2    1    2    0    0  0.16110046636E-01  0.16442198041E-01 -0.50265791735E-02  0.10203684640E+01  0.10200963956E+01 0.  0.
     999903    2    3    3    0    0 -0.87391315291E-01  0.39387474357E-01  0.84640696675E-01  0.12948169346E+00  0.20318619106E-01 0.  0.
         14    1    1    2    0    0 -0.16110046636E-01 -0.16442198041E-01  0.50265791735E-02  0.23561535969E-01  0.00000000000E+00 0.  1.
     999901    1    3    3    0    0  0.10350136193E+00 -0.22945276316E-01 -0.89667275849E-01  0.89088677057E+00  0.88000000000E+00 0. -1.
        -11    1    4    4    0    0 -0.25192412507E-01  0.21822293713E-01  0.30038811428E-01  0.44871610889E-01  0.51100000000E-03 0. -1.
         11    1    4    4    0    0 -0.62198902783E-01  0.17565180644E-01  0.54601885247E-01  0.84610082568E-01  0.51100000000E-03 0.  1.
</event>
<event>
 8    1  0.1078274E+005  0.1043930E+01  0.7957747E-01            NaN
         13   -1    0    0    0    0  0.00000000000E+00  0.00000000000E+00  0.74505805969E-08  0.10566000000E+00  0.10566000000E+00 0.  1.
     999900   -1    0    0    0    0 -0.00000000000E+00 -0.00000000000E+00 -0.74505805969E-08  0.93827000000E+00  0.93827000000E+00 0. -1.
     999902    2    1    2    0    0  0.73936681670E-02 -0.17012213093E-01 -0.10997383395E-01  0.10223655810E+01  0.10221381302E+01 0.  0.
     999903    2    3    3    0    0  0.53844789818E-01 -0.77981135295E-01 -0.94225568832E-01  0.13512161965E+00  0.19976872215E-01 0.  0.
         14    1    1    2    0    0 -0.73936681670E-02  0.17012213093E-01  0.10997383395E-01  0.21564418954E-01  0.00000000000E+00 0.  1.
     999901    1    3    3    0    0 -0.46451121651E-01  0.60968922202E-01  0.83228185437E-01  0.88724396139E+00  0.88000000000E+00 0.  1.
        -11    1    4    4    0    0  0.20152769388E-01 -0.21939445337E-01 -0.41678587436E-01  0.51233184045E-01  0.51100000000E-03 0.  1.
         11    1    4    4    0    0  0.33692020430E-01 -0.56041689957E-01 -0.52546981397E-01  0.83888435609E-01  0.51100000000E-03 0. -1.
</event>
<event>
 8    1  0.1078274E+005  0.1043930E+01  0.7957747E-01            NaN
         13   -1    0    0    0    0  0.00000000000E+00  0.00000000000E+00  0.74505805969E-08  0.10566000000E+00  0.10566000000E+00 0.  1.
     999900   -1    0    0    0    0 -0.00000000000E+00 -0.00000000000E+00 -0.74505805969E-08  0.93827000000E+00  0.93827000000E+00 0.  1.
     999902    2    1    2    0    0  0.21731983274E-01 -0.70681412177E-02 -0.48022972157E-02  0.10205783453E+01  0.10203111580E+01 0.  0.
     999903    2    3    3    0    0  0.14918532816E-01 -0.48758741399E-01 -0.12033047258E+00  0.13202261351E+00  0.18723524319E-01 0.  0.
         14    1    1    2    0    0 -0.21731983274E-01  0.70681412177E-02  0.48022972157E-02  0.23351654671E-01  0.00000000000E+00 0.  1.
     999901    1    3    3    0    0  0.68134504585E-02  0.41690600181E-01  0.11552817536E+00  0.88855573182E+00  0.88000000000E+00 0. -1.
        -11    1    4    4    0    0 -0.11306445368E-02 -0.29341926545E-02 -0.23341838498E-01  0.23558233998E-01  0.51100000000E-03 0. -1.
         11    1    4    4    0    0  0.16049177353E-01 -0.45824548745E-01 -0.96988634077E-01  0.10846437951E+00  0.51100000000E-03 0.  1.
</event>
<event>
 8    1  0.1078274E+005  0.1043930E+01  0.7957747E-01            NaN
         13   -1    0    0    0    0  0.00000000000E+00  0.00000000000E+00  0.74505805969E-08  0.10566000000E+00  0.10566000000E+00 0. -1.
     999900   -1    0    0    0    0 -0.00000000000E+00 -0.00000000000E+00 -0.74505805969E-08  0.93827000000E+00  0.93827000000E+00 0. -1.
     999902    2    1    2    0    0  0.22000422360E-01  0.33321177466E-02  0.72708692272E-02  0.10205208750E+01  0.10202523557E+01 0.  0.
     999903    2    3    3    0    0 -0.40981597238E-01  0.55286890306E-02 -0.12106290350E+00  0.12898225167E+00  0.16435842770E-01 0.  0.
         14    1    1    2    0    0 -0.22000422360E-01 -0.33321177466E-02 -0.72708692272E-02  0.23409124973E-01  0.00000000000E+00 0. -1.
     999901    1    3    3    0    0  0.62982019598E-01 -0.21965712840E-02  0.12833377272E+00  0.89153862336E+00  0.88000000000E+00 0. -1.
        -11    1    4    4    0    0 -0.29168025157E-01 -0.36797698245E-02 -0.75836431210E-01  0.81337198238E-01  0.51100000000E-03 0.  1.
         11    1    4    4    0    0 -0.11813572081E-01  0.92084588551E-02 -0.45226472288E-01  0.47645053430E-01  0.51100000000E-03 0. -1.
</event>
<event>
 8    1  0.1078274E+005  0.1043930E+01  0.7957747E-01            NaN
         13   -1    0    0    0    0  0.00000000000E+00  0.00000000000E+00  0.74505805969E-08  0.10566000000E+00  0.10566000000E+00 0.  1.
     999900   -1    0    0    0    0 -0.00000000000E+00 -0.00000000000E+00 -0.74505805969E-08  0.93827000000E+00  0.93827000000E+00 0. -1.
     999902    2    1    2    0    0  0.12450514920E-01 -0.35518409232E-02 -0.22724981867E-01  0.10177755416E+01  0.10174394318E+01 0.  0.
     999903    2    3    3    0    0  0.10541599014E+00 -0.40311797273E-01 -0.62925946667E-01  0.13120349623E+00  0.22740067777E-01 0.  0.
         14    1    1    2    0    0 -0.12450514920E-01  0.35518409232E-02  0.22724981867E-01  0.26154458446E-01  0.00000000000E+00 0.  1.
     999901    1    3    3    0    0 -0.92965475223E-01  0.36759956350E-01  0.40200964800E-01  0.88657204532E+00  0.88000000000E+00 0. -1.
        -11    1    4    4    0    0  0.91417410600E-01 -0.42564257111E-01 -0.53332283698E-01  0.11407652059E+00  0.51100000000E-03 0.  1.
         11    1    4    4    0    0  0.13998579543E-01  0.22524598373E-02 -0.95936629699E-02  0.17126975644E-01  0.51100000000E-03 0. -1.
</event>
<event>
 8    1  0.1078274E+005  0.1043930E+01  0.7957747E-01            NaN
         13   -1    0    0    0    0  0.00000000000E+00  0.00000000000E+00  0.74505805969E-08  0.10566000000E+00  0.10566000000E+00 0.  1.
     999900   -1    0    0    0    0 -0.00000000000E+00 -0.00000000000E+00 -0.74505805969E-08  0.93827000000E+00  0.93827000000E+00 0. -1.
     999902    2    1    2    0    0 -0.21946546620E-01  0.83175837509E-02 -0.24963377025E-02  0.10203277796E+01  0.10200547598E+01 0.  0.
     999903    2    3    3    0    0 -0.79180451130E-01 -0.71646248468E-01 -0.74639063929E-01  0.13191655313E+00  0.20694404199E-01 0.  0.
         14    1    1    2    0    0  0.21946546620E-01 -0.83175837509E-02  0.24963377025E-02  0.23602220445E-01  0.00000000000E+00 0.  1.
     999901    1    3    3    0    0  0.57233904510E-01  0.79963832218E-01  0.72142726227E-01  0.88841122642E+00  0.88000000000E+00 0.  1.
        -11    1    4    4    0    0 -0.40447934877E-01 -0.36966855557E-01 -0.25739735122E-01  0.60542373019E-01  0.51100000000E-03 0.  1.
         11    1    4    4    0    0 -0.38732516253E-01 -0.34679392911E-01 -0.48899328807E-01  0.71374180112E-01  0.51100000000E-03 0. -1.
</event>
<event>
 8    1  0.1078274E+005  0.1043930E+01  0.7957747E-01            NaN
         13   -1    0    0    0    0  0.00000000000E+00  0.00000000000E+00  0.74505805969E-08  0.10566000000E+00  0.10566000000E+00 0. -1.
     999900   -1    0    0    0    0 -0.00000000000E+00 -0.00000000000E+00 -0.74505805969E-08  0.93827000000E+00  0.93827000000E+00 0.  1.
     999902    2    1    2    0    0 -0.63009176697E-02 -0.10545797000E-01  0.21517621973E-01  0.10191525212E+01  0.10188512836E+01 0.  0.
     999903    2    3    3    0    0 -0.20221301743E-01 -0.11476704144E+00 -0.53363295029E-01  0.12973529822E+00  0.20080625063E-01 0.  0.
         14    1    1    2    0    0  0.63009176697E-02  0.10545797000E-01 -0.21517621973E-01  0.24777478750E-01  0.00000000000E+00 0.  1.
     999901    1    3    3    0    0  0.13920384073E-01  0.10422124444E+00  0.74880917002E-01  0.88941722303E+00  0.88000000000E+00 0. -1.
        -11    1    4    4    0    0 -0.16424694100E-01 -0.61424914531E-01 -0.19801450293E-01  0.66596916266E-01  0.51100000000E-03 0. -1.
         11    1    4    4    0    0 -0.37966076428E-02 -0.53342126912E-01 -0.33561844735E-01  0.63138381956E-01  0.51100000000E-03 0.  1.
</event>
<event>
 8    1  0.1078274E+005  0.1043930E+01  0.7957747E-01            NaN
         13   -1    0    0    0    0  0.00000000000E+00  0.00000000000E+00  0.74505805969E-08  0.10566000000E+00  0.10566000000E+00 0. -1.
     999900   -1    0    0    0    0 -0.00000000000E+00 -0.00000000000E+00 -0.74505805969E-08  0.93827000000E+00  0.93827000000E+00 0. -1.
     999902    2    1    2    0    0 -0.19354650651E-02 -0.16445679047E-01 -0.16795027555E-01  0.10203444253E+01  0.10200717950E+01 0.  0.
     999903    2    3    3    0    0 -0.11468208698E+00  0.22843217690E-01 -0.56516315728E-01  0.13139380860E+00  0.19910934869E-01 0.  0.
         14    1    1    2    0    0  0.19354650651E-02  0.16445679047E-01  0.16795027555E-01  0.23585574721E-01  0.00000000000E+00 0. -1.
     999901    1    3    3    0    0  0.11274662191E+00 -0.39288896738E-01  0.39721288172E-01  0.88895061668E+00  0.88000000000E+00 0. -1.
        -11    1    4    4    0    0 -0.34419638268E-01 -0.91073611172E-03 -0.11212237671E-01  0.36214863431E-01  0.51100000000E-03 0.  1.
         11    1    4    4    0    0 -0.80262448708E-01  0.23753953802E-01 -0.45304078057E-01  0.95178945169E-01  0.51100000000E-03 0. -1.
</event>
<event>
 8    1  0.1078274E+005  0.1043930E+01  0.7957747E-01            NaN
         13   -1    0    0    0    0  0.00000000000E+00  0.00000000000E+00  0.74505805969E-08  0.10566000000E+00  0.10566000000E+00 0.  1.
     999900   -1    0    0    0    0 -0.00000000000E+00 -0.00000000000E+00 -0.74505805969E-08  0.93827000000E+00  0.93827000000E+00 0.  1.
     999902    2    1    2    0    0  0.21360347134E-01  0.69098166799E-02 -0.91338867037E-03  0.10214612600E+01  0.10212141115E+01 0.  0.
     999903    2    3    3    0    0 -0.88719226755E-01  0.49981801584E-01 -0.78925294772E-01  0.13013720788E+00  0.18363252301E-01 0.  0.
         14    1    1    2    0    0 -0.21360347134E-01 -0.69098166799E-02  0.91338867037E-03  0.22468739954E-01  0.00000000000E+00 0. -1.
     999901    1    3    3    0    0  0.11007957389E+00 -0.43071984904E-01  0.78011906102E-01  0.89132405216E+00  0.88000000000E+00 0. -1.
        -11    1    4    4    0    0 -0.53323057848E-01  0.38925103919E-01 -0.45217837604E-01  0.80021410709E-01  0.51100000000E-03 0.  1.
         11    1    4    4    0    0 -0.35396168908E-01  0.11056697664E-01 -0.33707457169E-01  0.50115797174E-01  0.51100000000E-03 0. -1.
</event>
<event>
 8    1  0.1078274E+005  0.1043930E+01  0.7957747E-01            NaN
         13   -1    0    0    0    0  0.00000000000E+00  0.00000000000E+00  0.74505805969E-08  0.10566000000E+00  0.10566000000E+00 0.  1.
     999900   -1    0    0    0    0 -0.00000000000E+00 -0.00000000000E+00 -0.74505805969E-08  0.93827000000E+00  0.93827000000E+00 0.  1.
     999902    2    1    2    0    0 -0.21894853446E-01 -0.11844300813E-01 -0.12891502682E-01  0.10158967535E+01  0.10155098970E+01 0.  0.
     999903    2    3    3    0    0  0.53918940822E-01 -0.26530219978E-01 -0.11022902939E+00  0.12716844757E+00  0.20255132290E-01 0.  0.
         14    1    1    2    0    0  0.21894853446E-01  0.11844300813E-01  0.12891502682E-01  0.28033246523E-01  0.00000000000E+00 0.  1.
     999901    1    3    3    0    0 -0.75813794268E-01  0.14685919165E-01  0.97337526709E-01  0.88872830591E+00  0.88000000000E+00 0. -1.
        -11    1    4    4    0    0  0.79176704167E-02 -0.10630986680E-01 -0.36366446195E-01  0.38710294658E-01  0.51100000000E-03 0. -1.
         11    1    4    4    0    0  0.46001270405E-01 -0.15899233299E-01 -0.73862583196E-01  0.88458152908E-01  0.51100000000E-03 0.  1.
</event>
<event>
 8    1  0.1078274E+005  0.1043930E+01  0.7957747E-01            NaN
         13   -1    0    0    0    0  0.00000000000E+00  0.00000000000E+00  0.74505805969E-08  0.10566000000E+00  0.10566000000E+00 0.  1.
     999900   -1    0    0    0    0 -0.00000000000E+00 -0.00000000000E+00 -0.74505805969E-08  0.93827000000E+00  0.93827000000E+00 0.  1.
     999902    2    1    2    0    0  0.12737764323E-01  0.20370956523E-01  0.21879674610E-02  0.10198050397E+01  0.10195196443E+01 0.  0.
     999903    2    3    3    0    0  0.17346833255E-01 -0.11997282118E+00  0.35177670883E-01  0.12806183672E+00  0.21632730988E-01 0.  0.
         14    1    1    2    0    0 -0.12737764323E-01 -0.20370956523E-01 -0.21879674610E-02  0.24124960336E-01  0.00000000000E+00 0. -1.
     999901    1    3    3    0    0 -0.46090689326E-02  0.14034377771E+00 -0.32989703422E-01  0.89174320294E+00  0.88000000000E+00 0. -1.
        -11    1    4    4    0    0  0.75661178158E-02 -0.10004318185E+00  0.23817139696E-01  0.10311838652E+00  0.51100000000E-03 0.  1.
         11    1    4    4    0    0  0.97807154394E-02 -0.19929639333E-01  0.11360531186E-01  0.24943450208E-01  0.51100000000E-03 0. -1.
</event>
<event>
 8    1  0.1078274E+005  0.1043930E+01  0.7957747E-01            NaN
         13   -1    0    0    0    0  0.00000000000E+00  0.00000000000E+00  0.74505805969E-08  0.10566000000E+00  0.10566000000E+00 0.  1.
     999900   -1    0    0    0    0 -0.00000000000E+00 -0.00000000000E+00 -0.74505805969E-08  0.93827000000E+00  0.93827000000E+00 0.  1.
     999902    2    1    2    0    0 -0.16481962287E-01 -0.26820876149E-02 -0.17553447797E-01  0.10197024908E+01  0.10194146347E+01 0.  0.
     999903    2    3    3    0    0  0.43884413471E-01  0.95153693968E-01 -0.75006846858E-01  0.13036743997E+00  0.19737657107E-01 0.  0.
         14    1    1    2    0    0  0.16481962287E-01  0.26820876149E-02  0.17553447797E-01  0.24227509248E-01  0.00000000000E+00 0.  1.
     999901    1    3    3    0    0 -0.60366375759E-01 -0.97835781582E-01  0.57453399061E-01  0.88933505078E+00  0.88000000000E+00 0. -1.
        -11    1    4    4    0    0  0.11446345269E-01  0.13425952939E-01 -0.61746927742E-02  0.18699277638E-01  0.51100000000E-03 0.  1.
         11    1    4    4    0    0  0.32438068202E-01  0.81727741029E-01 -0.68832154084E-01  0.11166816233E+00  0.51100000000E-03 0. -1.
</event>
<event>
 8    1  0.1078274E+005  0.1043930E+01  0.7957747E-01            NaN
         13   -1    0    0    0    0  0.00000000000E+00  0.00000000000E+00  0.74505805969E-08  0.10566000000E+00  0.10566000000E+00 0. -1.
     999900   -1    0    0    0    0 -0.00000000000E+00 -0.00000000000E+00 -0.74505805969E-08  0.93827000000E+00  0.93827000000E+00 0. -1.
     999902    2    1    2    0    0  0.18041476822E-01  0.15556325970E-01  0.91277130068E-03  0.10200903835E+01  0.10198117783E+01 0.  0.
     999903    2    3    3    0    0  0.88219194552E-01  0.93962912310E-01 -0.27037643838E-01  0.13338088735E+00  0.21160617886E-01 0.  0.
         14    1    1    2    0    0 -0.18041476822E-01 -0.15556325970E-01 -0.91277130068E-03  0.23839616504E-01  0.00000000000E+00 0.  1.
     999901    1    3    3    0    0 -0.70177717730E-01 -0.78406586340E-01  0.27950415138E-01  0.88670949614E+00  0.88000000000E+00 0. -1.
        -11    1    4    4    0    0  0.19203513595E-01  0.98302880416E-02 -0.73348669177E-02  0.22791904069E-01  0.51100000000E-03 0.  1.
         11    1    4    4    0    0  0.69015680956E-01  0.84132624268E-01 -0.19702776920E-01  0.11058898328E+00  0.51100000000E-03 0. -1.
</event>
<event>
 8    1  0.1078274E+005  0.1043930E+01  0.7957747E-01            NaN
         13   -1    0    0    0    0  0.00000000000E+00  0.00000000000E+00  0.74505805969E-08  0.10566000000E+00  0.10566000000E+00 0.  1.
     999900   -1    0    0    0    0 -0.00000000000E+00 -0.00000000000E+00 -0.74505805969E-08  0.93827000000E+00  0.93827000000E+00 0. -1.
     999902    2    1    2    0    0 -0.12242877217E-01  0.77811314137E-02  0.16917256802E-01  0.10216448564E+01  0.10214017745E+01 0.  0.
     999903    2    3    3    0    0  0.72259214995E-01  0.21300560633E-01  0.10788493534E+00  0.13282626010E+00  0.18125894780E-01 0.  0.
         14    1    1    2    0    0  0.12242877217E-01 -0.77811314137E-02 -0.16917256802E-01  0.22285143624E-01  0.00000000000E+00 0. -1.
     999901    1    3    3    0    0 -0.84502092213E-01 -0.13519429219E-01 -0.90967678543E-01  0.88881859628E+00  0.88000000000E+00 0. -1.
        -11    1    4    4    0    0  0.29703580058E-01  0.77180691459E-02  0.59636130369E-01  0.67071606705E-01  0.51100000000E-03 0.  1.
         11    1    4    4    0    0  0.42555634937E-01  0.13582491487E-01  0.48248804976E-01  0.65754653390E-01  0.51100000000E-03 0. -1.
</event>
<event>
 8    1  0.1078274E+005  0.1043930E+01  0.7957747E-01            NaN
         13   -1    0    0    0    0  0.00000000000E+00  0.00000000000E+00  0.74505805969E-08  0.10566000000E+00  0.10566000000E+00 0. -1.
     999900   -1    0    0    0    0 -0.00000000000E+00 -0.00000000000E+00 -0.74505805969E-08  0.93827000000E+00  0.93827000000E+00 0.  1.
     999902    2    1    2    0    0 -0.85609225055E-03 -0.20662428553E-01 -0.13212214997E-01  0.10193895951E+01  0.10190941640E+01 0.  0.
     999903    2    3    3    0    0 -0.11745814233E+00  0.46223333224E-01  0.15419419178E-01  0.12872157968E+00  0.19961834954E-01 0.  0.
         14    1    1    2    0    0  0.85609225055E-03  0.20662428553E-01  0.13212214997E-01  0.24540404902E-01  0.00000000000E+00 0. -1.
     999901    1    3    3    0    0  0.11660205008E+00 -0.66885761777E-01 -0.28631634175E-01  0.89066801542E+00  0.88000000000E+00 0.  1.
        -11    1    4    4    0    0 -0.58439789843E-01  0.22612150183E-01  0.17689190015E-01  0.65112878428E-01  0.51100000000E-03 0.  1.
         11    1    4    4    0    0 -0.59018352484E-01  0.23611183041E-01 -0.22697708377E-02  0.63608701253E-01  0.51100000000E-03 0. -1.
</event>
<event>
 7    1  0.1078274E+005  0.1043930E+01  0.7957747E-01            NaN
         13   -1    0    0    0    0  0.00000000000E+00  0.00000000000E+00  0.74505805969E-08  0.10566000000E+00  0.10566000000E+00 0.  1.
     999900   -1    0    0    0    0 -0.00000000000E+00 -0.00000000000E+00 -0.74505805969E-08  0.93827000000E+00  0.93827000000E+00 0.  1.
     999903    2    1    2    0    0  0.62726601299E-01  0.19062530021E-01  0.73019403048E-01  0.99809165975E-01  0.18221685701E-01 0.  0.
         14    1    1    2    0    0  0.46864761355E-01  0.95819846124E-02 -0.28637007318E-01  0.55751219485E-01  0.00000000000E+00 0. -1.
     999901    1    1    2    0    0 -0.10959136265E+00 -0.28644514634E-01 -0.44382395730E-01  0.88836961454E+00  0.88000000000E+00 0.  1.
        -11    1    3    3    0    0  0.84485816502E-02  0.12904910374E-02  0.22229160540E-02  0.88456981522E-02  0.51100000000E-03 0.  1.
         11    1    3    3    0    0  0.54278019648E-01  0.17772038984E-01  0.70796486994E-01  0.90963467823E-01  0.51100000000E-03 0. -1.
</event>
<event>
 8    1  0.1078274E+005  0.1043930E+01  0.7957747E-01            NaN
         13   -1    0    0    0    0  0.00000000000E+00  0.00000000000E+00  0.74505805969E-08  0.10566000000E+00  0.10566000000E+00 0.  1.
     999900   -1    0    0    0    0 -0.00000000000E+00 -0.00000000000E+00 -0.74505805969E-08  0.93827000000E+00  0.93827000000E+00 0.  1.
     999902    2    1    2    0    0 -0.11060648682E-01 -0.50462804083E-02  0.20135457467E-01  0.10204089553E+01  0.10201378321E+01 0.  0.
     999903    2    3    3    0    0 -0.11385693118E+00 -0.51343837599E-01 -0.35730350240E-01  0.13145927848E+00  0.20131903348E-01 0.  0.
         14    1    1    2    0    0  0.11060648682E-01  0.50462804083E-02 -0.20135457467E-01  0.23521044675E-01  0.00000000000E+00 0. -1.
     999901    1    3    3    0    0  0.10279628250E+00  0.46297557191E-01  0.55865807706E-01  0.88894967685E+00  0.88000000000E+00 0. -1.
        -11    1    4    4    0    0 -0.51870215016E-01 -0.34097954318E-01 -0.20039420732E-01  0.65230584841E-01  0.51100000000E-03 0. -1.
         11    1    4    4    0    0 -0.61986716163E-01 -0.17245883282E-01 -0.15690929508E-01  0.66228693636E-01  0.51100000000E-03 0.  1.
</event>
<event>
 8    1  0.1078274E+005  0.1043930E+01  0.7957747E-01            NaN
         13   -1    0    0    0    0  0.00000000000E+00  0.00000000000E+00  0.74505805969E-08  0.10566000000E+00  0.10566000000E+00 0.  1.
     999900   -1    0    0    0    0 -0.00000000000E+00 -0.00000000000E+00 -0.74505805969E-08  0.93827000000E+00  0.93827000000E+00 0. -1.
     999902    2    1    2    0    0  0.21736228581E-01  0.21025110364E-01  0.67737502546E-02  0.10129396371E+01  0.10124654591E+01 0.  0.
     999903    2    3    3    0    0  0.11461851000E-01 -0.29447382092E-01  0.11654093283E+00  0.12462557684E+00  0.30841903925E-01 0.  0.
         14    1    1    2    0    0 -0.21736228581E-01 -0.21025110364E-01 -0.67737502546E-02  0.30990362877E-01  0.00000000000E+00 0. -1.
     999901    1    3    3    0    0  0.10274377581E-01  0.50472492455E-01 -0.10976718257E+00  0.88831406028E+00  0.88000000000E+00 0. -1.
        -11    1    4    4    0    0  0.15587932417E-01 -0.30487784877E-02  0.60290826572E-01  0.62350008637E-01  0.51100000000E-03 0.  1.
         11    1    4    4    0    0 -0.41260814174E-02 -0.26398603604E-01  0.56250106255E-01  0.62275568201E-01  0.51100000000E-03 0. -1.
</event>
<event>
 8    1  0.1078274E+005  0.1043930E+01  0.7957747E-01            NaN
         13   -1    0    0    0    0  0.00000000000E+00  0.00000000000E+00  0.74505805969E-08  0.10566000000E+00  0.10566000000E+00 0. -1.
     999900   -1    0    0    0    0 -0.00000000000E+00 -0.00000000000E+00 -0.74505805969E-08  0.93827000000E+00  0.93827000000E+00 0.  1.
     999902    2    1    2    0    0 -0.91752073977E-02  0.47134398144E-02  0.20810598767E-01  0.10207032489E+01  0.10204389449E+01 0.  0.
     999903    2    3    3    0    0 -0.14458292673E-01 -0.12794814934E+00 -0.41957322163E-02  0.13039300813E+00  0.20123649129E-01 0.  0.
         14    1    1    2    0    0  0.91752073977E-02 -0.47134398144E-02 -0.20810598767E-01  0.23226751102E-01  0.00000000000E+00 0.  1.
     999901    1    3    3    0    0  0.52830852756E-02  0.13266158915E+00  0.25006330984E-01  0.89031024077E+00  0.88000000000E+00 0. -1.
        -11    1    4    4    0    0 -0.91955193603E-04 -0.25629153772E-01  0.67018749384E-02  0.26496003992E-01  0.51100000000E-03 0. -1.
         11    1    4    4    0    0 -0.14366337480E-01 -0.10231899557E+00 -0.10897607155E-01  0.10389700414E+00  0.51100000000E-03 0.  1.
</event>
<event>
 8    1  0.1078274E+005  0.1043930E+01  0.7957747E-01            NaN
         13   -1    0    0    0    0  0.00000000000E+00  0.00000000000E+00  0.74505805969E-08  0.10566000000E+00  0.10566000000E+00 0.  1.
     999900   -1    0    0    0    0 -0.00000000000E+00 -0.00000000000E+00 -0.74505805969E-08  0.93827000000E+00  0.93827000000E+00 0.  1.
     999902    2    1    2    0    0 -0.14191764061E-01  0.13106811853E-01 -0.13060479098E-01  0.10206111064E+01  0.10203446769E+01 0.  0.
     999903    2    3    3    0    0  0.67826237254E-01  0.88430016653E-01 -0.67650465588E-01  0.13191509294E+00  0.20118149686E-01 0.  0.
         14    1    1    2    0    0  0.14191764061E-01 -0.13106811853E-01  0.13060479098E-01  0.23318893592E-01  0.00000000000E+00 0.  1.
     999901    1    3    3    0    0 -0.82018001315E-01 -0.75323204801E-01  0.54589986490E-01  0.88869601346E+00  0.88000000000E+00 0. -1.
        -11    1    4    4    0    0  0.82991018109E-02  0.34617025177E-02 -0.90239621892E-02  0.12749568219E-01  0.51100000000E-03 0.  1.
         11    1    4    4    0    0  0.59527135443E-01  0.84968314136E-01 -0.58626503399E-01  0.11916552472E+00  0.51100000000E-03 0. -1.
</event>
<event>
 8    1  0.1078274E+005  0.1043930E+01  0.7957747E-01            NaN
         13   -1    0    0    0    0  0.00000000000E+00  0.00000000000E+00  0.74505805969E-08  0.10566000000E+00  0.10566000000E+00 0. -1.
     999900   -1    0    0    0    0 -0.00000000000E+00 -0.00000000000E+00 -0.74505805969E-08  0.93827000000E+00  0.93827000000E+00 0. -1.
     999902    2    1    2    0    0 -0.16771545647E-01  0.50263363034E-02 -0.14736506196E-01  0.10210452143E+01  0.10207887227E+01 0.  0.
     999903    2    3    3    0    0 -0.88041026318E-03  0.12455669615E+00 -0.40034288655E-01  0.13246206521E+00  0.20695622078E-01 0.  0.
         14    1    1    2    0    0  0.16771545647E-01 -0.50263363034E-02  0.14736506196E-01  0.22884785664E-01  0.00000000000E+00 0. -1.
     999901    1    3    3    0    0 -0.15891135383E-01 -0.11953035985E+00  0.25297782459E-01  0.88858314912E+00  0.88000000000E+00 0. -1.
        -11    1    4    4    0    0 -0.81087785311E-02  0.28724228525E-01 -0.13488788669E-01  0.32757321844E-01  0.51100000000E-03 0.  1.
         11    1    4    4    0    0  0.72283682679E-02  0.95832467628E-01 -0.26545499986E-01  0.99704743368E-01  0.51100000000E-03 0. -1.
</event>
<event>
 8    1  0.1078274E+005  0.1043930E+01  0.7957747E-01            NaN
         13   -1    0    0    0    0  0.00000000000E+00  0.00000000000E+00  0.74505805969E-08  0.10566000000E+00  0.10566000000E+00 0.  1.
     999900   -1    0    0    0    0 -0.00000000000E+00 -0.00000000000E+00 -0.74505805969E-08  0.93827000000E+00  0.93827000000E+00 0. -1.
     999902    2    1    2    0    0 -0.19384516479E-01  0.99824514987E-02  0.91602752728E-02  0.10202800643E+01  0.10200059265E+01 0.  0.
     999903    2    3    3    0    0 -0.42918623479E-01  0.55106196721E-01 -0.10884688981E+00  0.13094565158E+00  0.20504074938E-01 0.  0.
         14    1    1    2    0    0  0.19384516479E-01 -0.99824514987E-02 -0.91602752728E-02  0.23649935732E-01  0.00000000000E+00 0. -1.
     999901    1    3    3    0    0  0.23534106999E-01 -0.45123745222E-01  0.11800716508E+00  0.88933441268E+00  0.88000000000E+00 0.  1.
        -11    1    4    4    0    0 -0.28110619463E-01  0.28681491386E-01 -0.45261612736E-01  0.60512061469E-01  0.51100000000E-03 0.  1.
         11    1    4    4    0    0 -0.14808004016E-01  0.26424705335E-01 -0.63585277073E-01  0.70433590114E-01  0.51100000000E-03 0. -1.
</event>
<event>
 8    1  0.1078274E+005  0.1043930E+01  0.7957747E-01            NaN
         13   -1    0    0    0    0  0.00000000000E+00  0.00000000000E+00  0.74505805969E-08  0.10566000000E+00  0.10566000000E+00 0.  1.
     999900   -1    0    0    0    0 -0.00000000000E+00 -0.00000000000E+00 -0.74505805969E-08  0.93827000000E+00  0.93827000000E+00 0. -1.
     999902    2    1    2    0    0  0.17413731686E-01  0.12423391088E-01 -0.95606250462E-02  0.10204995871E+01  0.10202305735E+01 0.  0.
     999903    2    3    3    0    0  0.63389649134E-01 -0.57308367993E-01  0.96279496670E-01  0.13023084421E+00  0.19693517822E-01 0.  0.
         14    1    1    2    0    0 -0.17413731686E-01 -0.12423391088E-01  0.95606250462E-02  0.23430412900E-01  0.00000000000E+00 0.  1.
     999901    1    3    3    0    0 -0.45975917448E-01  0.69731759081E-01 -0.10584012172E+00  0.89026874289E+00  0.88000000000E+00 0. -1.
        -11    1    4    4    0    0  0.34776701754E-01 -0.23572862762E-01  0.58687162605E-01  0.72177164112E-01  0.51100000000E-03 0.  1.
         11    1    4    4    0    0  0.28612947380E-01 -0.33735505231E-01  0.37592334065E-01  0.58053680094E-01  0.51100000000E-03 0. -1.
</event>
<event>
 8    1  0.1078274E+005  0.1043930E+01  0.7957747E-01            NaN
         13   -1    0    0    0    0  0.00000000000E+00  0.00000000000E+00  0.74505805969E-08  0.10566000000E+00  0.10566000000E+00 0. -1.
     999900   -1    0    0    0    0 -0.00000000000E+00 -0.00000000000E+00 -0.74505805969E-08  0.93827000000E+00  0.93827000000E+00 0. -1.
     999902    2    1    2    0    0  0.17914874949E-03 -0.24216943406E-01  0.50704282142E-02  0.10191872903E+01  0.10188869078E+01 0.  0.
     999903    2    3    3    0    0 -0.73450179892E-01 -0.41600379042E-01  0.97970908054E-01  0.13106907685E+00  0.21337376076E-01 0.  0.
         14    1    1    2    0    0 -0.17914874949E-03  0.24216943406E-01 -0.50704282142E-02  0.24742709724E-01  0.00000000000E+00 0. -1.
     999901    1    3    3    0    0  0.73629328642E-01  0.17383435635E-01 -0.92900479839E-01  0.88811821343E+00  0.88000000000E+00 0. -1.
        -11    1    4    4    0    0 -0.54307881186E-01 -0.35001484186E-01  0.85911726924E-01  0.10749667808E+00  0.51100000000E-03 0. -1.
         11    1    4    4    0    0 -0.19142298706E-01 -0.65988948556E-02  0.12059181129E-01  0.23572398766E-01  0.51100000000E-03 0.  1.
</event>
<event>
 8    1  0.1078274E+005  0.1043930E+01  0.7957747E-01            NaN
         13   -1    0    0    0    0  0.00000000000E+00  0.00000000000E+00  0.74505805969E-08  0.10566000000E+00  0.10566000000E+00 0. -1.
     999900   -1    0    0    0    0 -0.00000000000E+00 -0.00000000000E+00 -0.74505805969E-08  0.93827000000E+00  0.93827000000E+00 0. -1.
     999902    2    1    2    0    0 -0.84047880133E-02 -0.32004971123E-03  0.22947235383E-01  0.10194898997E+01  0.10191969079E+01 0.  0.
     999903    2    3    3    0    0 -0.59811543827E-01 -0.80620197584E-01  0.83742091535E-01  0.13225442762E+00  0.20036434253E-01 0.  0.
         14    1    1    2    0    0  0.84047880133E-02  0.32004971123E-03 -0.22947235383E-01  0.24440100349E-01  0.00000000000E+00 0.  1.
     999901    1    3    3    0    0  0.51406755813E-01  0.80300147873E-01 -0.60794856152E-01  0.88723547203E+00  0.88000000000E+00 0. -1.
        -11    1    4    4    0    0 -0.39734551802E-01 -0.55623095105E-01  0.44456509135E-01  0.81543887824E-01  0.51100000000E-03 0. -1.
         11    1    4    4    0    0 -0.20076992025E-01 -0.24997102479E-01  0.39285582400E-01  0.50710539798E-01  0.51100000000E-03 0.  1.
</event>
<event>
 8    1  0.1078274E+005  0.1043930E+01  0.7957747E-01            NaN
         13   -1    0    0    0    0  0.00000000000E+00  0.00000000000E+00  0.74505805969E-08  0.10566000000E+00  0.10566000000E+00 0. -1.
     999900   -1    0    0    0    0 -0.00000000000E+00 -0.00000000000E+00 -0.74505805969E-08  0.93827000000E+00  0.93827000000E+00 0.  1.
     999902    2    1    2    0    0  0.10031043819E-01  0.58876501680E-02  0.20579864057E-01  0.10202906881E+01  0.10200167994E+01 0.  0.
     999903    2    3    3    0    0 -0.49664583642E-01 -0.88150845268E-01 -0.75997508586E-01  0.12802727657E+00  0.19447875099E-01 0.  0.
         14    1    1    2    0    0 -0.10031043819E-01 -0.58876501680E-02 -0.20579864057E-01  0.23639311944E-01  0.00000000000E+00 0.  1.
     999901    1    3    3    0    0  0.59695627461E-01  0.94038495436E-01  0.96577372643E-01  0.89226341148E+00  0.88000000000E+00 0. -1.
        -11    1    4    4    0    0 -0.32005772447E-01 -0.45007222556E-01 -0.50768444411E-01  0.75018101956E-01  0.51100000000E-03 0.  1.
         11    1    4    4    0    0 -0.17658811194E-01 -0.43143622713E-01 -0.25229064175E-01  0.53009174618E-01  0.51100000000E-03 0. -1.
</event>
<event>
 8    1  0.1078274E+005  0.1043930E+01  0.7957747E-01            NaN
         13   -1    0    0    0    0  0.00000000000E+00  0.00000000000E+00  0.74505805969E-08  0.10566000000E+00  0.10566000000E+00 0.  1.
     999900   -1    0    0    0    0 -0.00000000000E+00 -0.00000000000E+00 -0.74505805969E-08  0.93827000000E+00  0.93827000000E+00 0.  1.
     999902    2    1    2    0    0 -0.11390358593E-01  0.17153936339E-01 -0.12490016890E-01  0.10198468457E+01  0.10195624504E+01 0.  0.
     999903    2    3    3    0    0  0.20265139948E-01 -0.11244007289E+00 -0.55857271606E-01  0.12873664115E+00  0.19991050366E-01 0.  0.
         14    1    1    2    0    0  0.11390358593E-01 -0.17153936339E-01  0.12490016890E-01  0.24083154335E-01  0.00000000000E+00 0.  1.
     999901    1    3    3    0    0 -0.31655498541E-01  0.12959400923E+00  0.43367254716E-01  0.89111020452E+00  0.88000000000E+00 0. -1.
        -11    1    4    4    0    0  0.52271546983E-02 -0.73406758264E-02 -0.59786137130E-03  0.90458403174E-02  0.51100000000E-03 0.  1.
         11    1    4    4    0    0  0.15037985250E-01 -0.10509939706E+00 -0.55259410234E-01  0.11969080083E+00  0.51100000000E-03 0. -1.
</event>
<event>
 8    1  0.1078274E+005  0.1043930E+01  0.7957747E-01            NaN
         13   -1    0    0    0    0  0.00000000000E+00  0.00000000000E+00  0.74505805969E-08  0.10566000000E+00  0.10566000000E+00 0. -1.
     999900   -1    0    0    0    0 -0.00000000000E+00 -0.00000000000E+00 -0.74505805969E-08  0.93827000000E+00  0.93827000000E+00 0.  1.
     999902    2    1    2    0    0  0.13783379869E-01 -0.19966432567E-02  0.20126717561E-01  0.10194544427E+01  0.10191605898E+01 0.  0.
     999903    2    3    3    0    0  0.85260473030E-01 -0.96007819953E-01  0.20653202789E-01  0.13156517406E+00  0.19899509725E-01 0.  0.
         14    1    1    2    0    0 -0.13783379869E-01  0.19966432567E-02 -0.20126717561E-01  0.24475557291E-01  0.00000000000E+00 0.  1.
     999901    1    3    3    0    0 -0.71477093161E-01  0.94011176696E-01 -0.52648522725E-03  0.88788926865E+00  0.88000000000E+00 0. -1.
        -11    1    4    4    0    0  0.47645064915E-01 -0.61375895015E-01  0.20785710170E-01  0.80432329121E-01  0.51100000000E-03 0. -1.
         11    1    4    4    0    0  0.37615408115E-01 -0.34631924938E-01 -0.13250738106E-03  0.51132844941E-01  0.51100000000E-03 0.  1.
</event>
<event>
 8    1  0.1078274E+005  0.1043930E+01  0.7957747E-01            NaN
         13   -1    0    0    0    0  0.00000000000E+00  0.00000000000E+00  0.74505805969E-08  0.10566000000E+00  0.10566000000E+00 0.  1.
     999900   -1    0    0    0    0 -0.00000000000E+00 -0.00000000000E+00 -0.74505805969E-08  0.93827000000E+00  0.93827000000E+00 0.  1.
     999902    2    1    2    0    0 -0.19299910654E-01  0.93398627620E-02 -0.10735044120E-01  0.10199516606E+01  0.10196697648E+01 0.  0.
     999903    2    3    3    0    0  0.37134120341E-01 -0.11472769277E+00  0.38059252917E-01  0.12812295418E+00  0.20630033286E-01 0.  0.
         14    1    1    2    0    0  0.19299910654E-01 -0.93398627620E-02  0.10735044120E-01  0.23978339390E-01  0.00000000000E+00 0.  1.
     999901    1    3    3    0    0 -0.56434030995E-01  0.12406755553E+00 -0.48794297037E-01  0.89182870643E+00  0.88000000000E+00 0.  1.
        -11    1    4    4    0    0  0.32919891036E-01 -0.10600016755E+00  0.28713208184E-01  0.11464930960E+00  0.51100000000E-03 0. -1.
         11    1    4    4    0    0  0.42142293053E-02 -0.87275252158E-02  0.93460447325E-02  0.13473644576E-01  0.51100000000E-03 0.  1.
</event>
<event>
 8    1  0.1078274E+005  0.1043930E+01  0.7957747E-01            NaN
         13   -1    0    0    0    0  0.00000000000E+00  0.00000000000E+00  0.74505805969E-08  0.10566000000E+00  0.10566000000E+00 0.  1.
     999900   -1    0    0    0    0 -0.00000000000E+00 -0.00000000000E+00 -0.74505805969E-08  0.93827000000E+00  0.93827000000E+00 0. -1.
     999902    2    1    2    0    0 -0.45362949304E-02  0.79214793166E-02  0.21587334355E-01  0.10204919794E+01  0.10202227890E+01 0.  0.
     999903    2    3    3    0    0 -0.78625297404E-01  0.85545218133E-01 -0.56177271709E-01  0.13056953384E+00  0.19814024641E-01 0.  0.
         14    1    1    2    0    0  0.45362949304E-02 -0.79214793166E-02 -0.21587334355E-01  0.23438020625E-01  0.00000000000E+00 0.  1.
     999901    1    3    3    0    0  0.74089002474E-01 -0.77623738817E-01  0.77764606064E-01  0.88992244554E+00  0.88000000000E+00 0.  1.
        -11    1    4    4    0    0 -0.49812961843E-01  0.45886791583E-01 -0.41350391694E-01  0.79353921287E-01  0.51100000000E-03 0. -1.
         11    1    4    4    0    0 -0.28812335561E-01  0.39658426551E-01 -0.14826880015E-01  0.51215612550E-01  0.51100000000E-03 0.  1.
</event>
<event>
 8    1  0.1078274E+005  0.1043930E+01  0.7957747E-01            NaN
         13   -1    0    0    0    0  0.00000000000E+00  0.00000000000E+00  0.74505805969E-08  0.10566000000E+00  0.10566000000E+00 0. -1.
     999900   -1    0    0    0    0 -0.00000000000E+00 -0.00000000000E+00 -0.74505805969E-08  0.93827000000E+00  0.93827000000E+00 0.  1.
     999902    2    1    2    0    0 -0.71190357004E-02  0.15238050452E-01 -0.17212886066E-01  0.10198642090E+01  0.10195802286E+01 0.  0.
     999903    2    3    3    0    0  0.39118457663E-01 -0.12880039557E-01  0.11909622415E+00  0.12772705231E+00  0.20836029741E-01 0.  0.
         14    1    1    2    0    0  0.71190357004E-02 -0.15238050452E-01  0.17212886066E-01  0.24065791024E-01  0.00000000000E+00 0. -1.
     999901    1    3    3    0    0 -0.46237493363E-01  0.28118090009E-01 -0.13630911022E+00  0.89213715667E+00  0.88000000000E+00 0.  1.
        -11    1    4    4    0    0  0.25961299628E-01 -0.20936764180E-02  0.92926617614E-01  0.96509014820E-01  0.51100000000E-03 0. -1.
         11    1    4    4    0    0  0.13157158035E-01 -0.10786363139E-01  0.26169606538E-01  0.31218037489E-01  0.51100000000E-03 0.  1.
</event>
<event>
 8    1  0.1078274E+005  0.1043930E+01  0.7957747E-01            NaN
         13   -1    0    0    0    0  0.00000000000E+00  0.00000000000E+00  0.74505805969E-08  0.10566000000E+00  0.10566000000E+00 0. -1.
     999900   -1    0    0    0    0 -0.00000000000E+00 -0.00000000000E+00 -0.74505805969E-08  0.93827000000E+00  0.93827000000E+00 0. -1.
     999902    2    1    2    0    0  0.55712141620E-02  0.14912643676E-01 -0.17456915977E-01  0.10203043935E+01  0.10200308260E+01 0.  0.
     999903    2    3    3    0    0 -0.29364073155E-01 -0.73940581891E-01 -0.10222232299E+00  0.13109095215E+00  0.20148845478E-01 0.  0.
         14    1    1    2    0    0 -0.55712141620E-02 -0.14912643676E-01  0.17456915977E-01  0.23625606534E-01  0.00000000000E+00 0. -1.
     999901    1    3    3    0    0  0.34935287317E-01  0.88853225567E-01  0.84765407017E-01  0.88921344132E+00  0.88000000000E+00 0.  1.
        -11    1    4    4    0    0 -0.51892057471E-02 -0.36378860055E-01 -0.54394343690E-01  0.65645678165E-01  0.51100000000E-03 0. -1.
         11    1    4    4    0    0 -0.24174867408E-01 -0.37561721836E-01 -0.47827979304E-01  0.65445273984E-01  0.51100000000E-03 0.  1.
</event>
<event>
 8    1  0.1078274E+005  0.1043930E+01  0.7957747E-01            NaN
         13   -1    0    0    0    0  0.00000000000E+00  0.00000000000E+00  0.74505805969E-08  0.10566000000E+00  0.10566000000E+00 0.  1.
     999900   -1    0    0    0    0 -0.00000000000E+00 -0.00000000000E+00 -0.74505805969E-08  0.93827000000E+00  0.93827000000E+00 0.  1.
     999902    2    1    2    0    0 -0.12952182460E-01  0.51991876429E-02  0.18881589461E-01  0.10204501149E+01  0.10201799508E+01 0.  0.
     999903    2    3    3    0    0  0.78474146185E-02  0.11055228185E+00 -0.64680812727E-01  0.12999260737E+00  0.20762502228E-01 0.  0.
         14    1    1    2    0    0  0.12952182460E-01 -0.51991876429E-02 -0.18881589461E-01  0.23479885076E-01  0.00000000000E+00 0. -1.
     999901    1    3    3    0    0 -0.20799597078E-01 -0.10535309420E+00  0.83562402188E-01  0.89045750755E+00  0.88000000000E+00 0. -1.
        -11    1    4    4    0    0  0.76562837208E-02  0.24996982281E-01 -0.22993331438E-01  0.34819853750E-01  0.51100000000E-03 0. -1.
         11    1    4    4    0    0  0.19113089768E-03  0.85555299565E-01 -0.41687481288E-01  0.95172753621E-01  0.51100000000E-03 0.  1.
</event>
<event>
 8    1  0.1078274E+005  0.1043930E+01  0.7957747E-01            NaN
         13   -1    0    0    0    0  0.00000000000E+00  0.00000000000E+00  0.74505805969E-08  0.10566000000E+00  0.10566000000E+00 0.  1.
     999900   -1    0    0    0    0 -0.00000000000E+00 -0.00000000000E+00 -0.74505805969E-08  0.93827000000E+00  0.93827000000E+00 0.  1.
     999902    2    1    2    0    0  0.21940214120E-01  0.43705760252E-02  0.10370119878E-02  0.10215346808E+01  0.10212891626E+01 0.  0.
     999903    2    3    3    0    0  0.24495167984E-02  0.13328074296E-02  0.13016173247E+00  0.13189300639E+00  0.21116629129E-01 0.  0.
         14    1    1    2    0    0 -0.21940214120E-01 -0.43705760252E-02 -0.10370119878E-02  0.22395319249E-01  0.00000000000E+00 0.  1.
     999901    1    3    3    0    0  0.19490697321E-01  0.30377685956E-02 -0.12912472049E+00  0.88964167436E+00  0.88000000000E+00 0.  1.
        -11    1    4    4    0    0 -0.71768568058E-02 -0.49128478118E-02  0.77795475665E-01  0.78281801858E-01  0.51100000000E-03 0.  1.
         11    1    4    4    0    0  0.96263736042E-02  0.62456552415E-02  0.52366256809E-01  0.53611204532E-01  0.51100000000E-03 0. -1.
</event>
<event>
 8    1  0.1078274E+005  0.1043930E+01  0.7957747E-01            NaN
         13   -1    0    0    0    0  0.00000000000E+00  0.00000000000E+00  0.74505805969E-08  0.10566000000E+00  0.10566000000E+00 0. -1.
     999900   -1    0    0    0    0 -0.00000000000E+00 -0.00000000000E+00 -0.74505805969E-08  0.93827000000E+00  0.93827000000E+00 0. -1.
     999902    2    1    2    0    0  0.11672299499E-01  0.16643871332E-01 -0.18514940562E-01  0.10164333811E+01  0.10160613929E+01 0.  0.
     999903    2    3    3    0    0  0.11231215556E+00  0.99601393711E-02  0.56206548776E-01  0.12752598777E+00  0.19760485006E-01 0.  0.
         14    1    1    2    0    0 -0.11672299499E-01 -0.16643871332E-01  0.18514940562E-01  0.27496618929E-01  0.00000000000E+00 0.  1.
     999901    1    3    3    0    0 -0.10063985606E+00  0.66837319611E-02 -0.74721489338E-01  0.88890739330E+00  0.88000000000E+00 0. -1.
        -11    1    4    4    0    0  0.77910620943E-01  0.15378251040E-01  0.35334375004E-01  0.86921427961E-01  0.51100000000E-03 0.  1.
         11    1    4    4    0    0  0.34401534617E-01 -0.54181116692E-02  0.20872173772E-01  0.40604559806E-01  0.51100000000E-03 0. -1.
</event>
<event>
 8    1  0.1078274E+005  0.1043930E+01  0.7957747E-01            NaN
         13   -1    0    0    0    0  0.00000000000E+00  0.00000000000E+00  0.74505805969E-08  0.10566000000E+00  0.10566000000E+00 0.  1.
     999900   -1    0    0    0    0 -0.00000000000E+00 -0.00000000000E+00 -0.74505805969E-08  0.93827000000E+00  0.93827000000E+00 0.  1.
     999902    2    1    2    0    0 -0.13904934010E-01 -0.65481833126E-02 -0.17538603608E-01  0.10206098690E+01  0.10203434109E+01 0.  0.
     999903    2    3    3    0    0 -0.84080935708E-01  0.80268735276E-01 -0.60486941814E-01  0.13251842756E+00  0.19743097512E-01 0.  0.
         14    1    1    2    0    0  0.13904934010E-01  0.65481833126E-02  0.17538603608E-01  0.23320131025E-01  0.00000000000E+00 0.  1.
     999901    1    3    3    0    0  0.70176001697E-01 -0.86816918589E-01  0.42948338206E-01  0.88809144142E+00  0.88000000000E+00 0. -1.
        -11    1    4    4    0    0 -0.57167043022E-01  0.53351694487E-01 -0.50761735301E-01  0.93228155641E-01  0.51100000000E-03 0.  1.
         11    1    4    4    0    0 -0.26913892686E-01  0.26917040789E-01 -0.97252065128E-02  0.39290271914E-01  0.51100000000E-03 0. -1.
</event>
<event>
 8    1  0.1078274E+005  0.1043930E+01  0.7957747E-01            NaN
         13   -1    0    0    0    0  0.00000000000E+00  0.00000000000E+00  0.74505805969E-08  0.10566000000E+00  0.10566000000E+00 0.  1.
     999900   -1    0    0    0    0 -0.00000000000E+00 -0.00000000000E+00 -0.74505805969E-08  0.93827000000E+00  0.93827000000E+00 0.  1.
     999902    2    1    2    0    0  0.22607212608E-01 -0.51361700389E-02 -0.14925636085E-02  0.10206986838E+01  0.10204342748E+01 0.  0.
     999903    2    3    3    0    0  0.79553731497E-01 -0.16600052922E-01  0.10294716427E+00  0.13262099389E+00  0.19643101515E-01 0.  0.
         14    1    1    2    0    0 -0.22607212608E-01  0.51361700389E-02  0.14925636085E-02  0.23231316164E-01  0.00000000000E+00 0.  1.
     999901    1    3    3    0    0 -0.56946518889E-01  0.11463882883E-01 -0.10443972788E+00  0.88807768995E+00  0.88000000000E+00 0.  1.
        -11    1    4    4    0    0  0.64427028941E-01 -0.74936060662E-02  0.71386296746E-01  0.96453411936E-01  0.51100000000E-03 0.  1.
         11    1    4    4    0    0  0.15126702556E-01 -0.91064468559E-02  0.31560867522E-01  0.36167581952E-01  0.51100000000E-03 0. -1.
</event>
<event>
 8    1  0.1078274E+005  0.1043930E+01  0.7957747E-01            NaN
         13   -1    0    0    0    0  0.00000000000E+00  0.00000000000E+00  0.74505805969E-08  0.10566000000E+00  0.10566000000E+00 0. -1.
     999900   -1    0    0    0    0 -0.00000000000E+00 -0.00000000000E+00 -0.74505805969E-08  0.93827000000E+00  0.93827000000E+00 0.  1.
     999902    2    1    2    0    0 -0.65997325557E-02 -0.17399910477E-01  0.13136512740E-01  0.10211510334E+01  0.10208969349E+01 0.  0.
     999903    2    3    3    0    0  0.96822392604E-01 -0.68540999209E-01 -0.52608352507E-01  0.13118814973E+00  0.19241818864E-01 0.  0.
         14    1    1    2    0    0  0.65997325557E-02  0.17399910477E-01 -0.13136512740E-01  0.22778966644E-01  0.00000000000E+00 0.  1.
     999901    1    3    3    0    0 -0.10342212516E+00  0.51141088732E-01  0.65744865247E-01  0.88996288363E+00  0.88000000000E+00 0. -1.
        -11    1    4    4    0    0  0.52441184999E-01 -0.44151705590E-01 -0.38456946487E-01  0.78604381842E-01  0.51100000000E-03 0. -1.
         11    1    4    4    0    0  0.44381207605E-01 -0.24389293620E-01 -0.14151406020E-01  0.52583767886E-01  0.51100000000E-03 0.  1.
</event>
<event>
 8    1  0.1078274E+005  0.1043930E+01  0.7957747E-01            NaN
         13   -1    0    0    0    0  0.00000000000E+00  0.00000000000E+00  0.74505805969E-08  0.10566000000E+00  0.10566000000E+00 0. -1.
     999900   -1    0    0    0    0 -0.00000000000E+00 -0.00000000000E+00 -0.74505805969E-08  0.93827000000E+00  0.93827000000E+00 0. -1.
     999902    2    1    2    0    0 -0.38913217852E-02  0.21485320665E-01  0.76237206024E-02  0.10208024730E+01  0.10205404482E+01 0.  0.
     999903    2    3    3    0    0  0.57614933617E-01  0.77979837138E-01 -0.86849867252E-01  0.13181433548E+00  0.20779413393E-01 0.  0.
         14    1    1    2    0    0  0.38913217852E-02 -0.21485320665E-01 -0.76237206024E-02  0.23127527000E-01  0.00000000000E+00 0.  1.
     999901    1    3    3    0    0 -0.61506255402E-01 -0.56494516473E-01  0.94473587855E-01  0.88898813752E+00  0.88000000000E+00 0.  1.
        -11    1    4    4    0    0  0.41140765695E-01  0.41177943980E-01 -0.58461441079E-01  0.82499617493E-01  0.51100000000E-03 0.  1.
         11    1    4    4    0    0  0.16474167922E-01  0.36801893158E-01 -0.28388426173E-01  0.49314717989E-01  0.51100000000E-03 0. -1.
</event>
<event>
 8    1  0.1078274E+005  0.1043930E+01  0.7957747E-01            NaN
         13   -1    0    0    0    0  0.00000000000E+00  0.00000000000E+00  0.74505805969E-08  0.10566000000E+00  0.10566000000E+00 0. -1.
     999900   -1    0    0    0    0 -0.00000000000E+00 -0.00000000000E+00 -0.74505805969E-08  0.93827000000E+00  0.93827000000E+00 0.  1.
     999902    2    1    2    0    0 -0.21757648741E-01  0.75884632135E-02 -0.32814610616E-02  0.10206545185E+01  0.10203890915E+01 0.  0.
     999903    2    3    3    0    0  0.12248735143E+00 -0.44488511923E-02  0.31898455591E-01  0.12813609092E+00  0.19452577996E-01 0.  0.
         14    1    1    2    0    0  0.21757648741E-01 -0.75884632135E-02  0.32814610616E-02  0.23275481507E-01  0.00000000000E+00 0. -1.
     999901    1    3    3    0    0 -0.14424500017E+00  0.12037314406E-01 -0.35179916653E-01  0.89251842757E+00  0.88000000000E+00 0.  1.
        -11    1    4    4    0    0  0.51025424963E-01  0.19726614547E-02  0.42532788284E-02  0.51242920366E-01  0.51100000000E-03 0. -1.
         11    1    4    4    0    0  0.71461926468E-01 -0.64215126470E-02  0.27645176763E-01  0.76893170558E-01  0.51100000000E-03 0.  1.
</event>
<event>
 8    1  0.1078274E+005  0.1043930E+01  0.7957747E-01            NaN
         13   -1    0    0    0    0  0.00000000000E+00  0.00000000000E+00  0.74505805969E-08  0.10566000000E+00  0.10566000000E+00 0.  1.
     999900   -1    0    0    0    0 -0.00000000000E+00 -0.00000000000E+00 -0.74505805969E-08  0.93827000000E+00  0.93827000000E+00 0.  1.
     999902    2    1    2    0    0  0.51494555388E-02  0.84645104028E-02 -0.19736268560E-01  0.10218464060E+01  0.10216077487E+01 0.  0.
     999903    2    3    3    0    0  0.23063001654E-01 -0.11853138113E+00  0.44643940140E-01  0.13022223465E+00  0.19574438687E-01 0.  0.
         14    1    1    2    0    0 -0.51494555388E-02 -0.84645104028E-02  0.19736268560E-01  0.22083594032E-01  0.00000000000E+00 0.  1.
     999901    1    3    3    0    0 -0.17913546116E-01  0.12699589153E+00 -0.64380208700E-01  0.89162417131E+00  0.88000000000E+00 0.  1.
        -11    1    4    4    0    0  0.15991347529E-01 -0.43935532775E-01  0.10733110443E-01  0.47974107774E-01  0.51100000000E-03 0.  1.
         11    1    4    4    0    0  0.70716541257E-02 -0.74595848352E-01  0.33910829696E-01  0.82248126879E-01  0.51100000000E-03 0. -1.
</event>
<event>
 8    1  0.1078274E+005  0.1043930E+01  0.7957747E-01            NaN
         13   -1    0    0    0    0  0.00000000000E+00  0.00000000000E+00  0.74505805969E-08  0.10566000000E+00  0.10566000000E+00 0.  1.
     999900   -1    0    0    0    0 -0.00000000000E+00 -0.00000000000E+00 -0.74505805969E-08  0.93827000000E+00  0.93827000000E+00 0. -1.
     999902    2    1    2    0    0 -0.15294431912E-02  0.24633404288E-01 -0.12137063349E-02  0.10192193366E+01  0.10189197413E+01 0.  0.
     999903    2    3    3    0    0  0.14202763968E-01  0.82883125525E-01 -0.99972386572E-01  0.13164184178E+00  0.16240856770E-01 0.  0.
         14    1    1    2    0    0  0.15294431912E-02 -0.24633404288E-01  0.12137063349E-02  0.24710663414E-01  0.00000000000E+00 0. -1.
     999901    1    3    3    0    0 -0.15732207159E-01 -0.58249721237E-01  0.98758680237E-01  0.88757749481E+00  0.88000000000E+00 0.  1.
        -11    1    4    4    0    0  0.92275629084E-02  0.45588740510E-01 -0.67284822446E-01  0.81798469613E-01  0.51100000000E-03 0.  1.
         11    1    4    4    0    0  0.49752010593E-02  0.37294385015E-01 -0.32687564127E-01  0.49843372165E-01  0.51100000000E-03 0. -1.
</event>
<event>
 8    1  0.1078274E+005  0.1043930E+01  0.7957747E-01            NaN
         13   -1    0    0    0    0  0.00000000000E+00  0.00000000000E+00  0.74505805969E-08  0.10566000000E+00  0.10566000000E+00 0.  1.
     999900   -1    0    0    0    0 -0.00000000000E+00 -0.00000000000E+00 -0.74505805969E-08  0.93827000000E+00  0.93827000000E+00 0. -1.
     999902    2    1    2    0    0 -0.15381029621E-01 -0.97892962218E-02 -0.15026166268E-01  0.10203039113E+01  0.10200303326E+01 0.  0.
     999903    2    3    3    0    0  0.32275051776E-01 -0.12367266396E+00 -0.23431745110E-01  0.13164695992E+00  0.21101388584E-01 0.  0.
         14    1    1    2    0    0  0.15381029621E-01  0.97892962218E-02  0.15026166268E-01  0.23626088661E-01  0.00000000000E+00 0.  1.
     999901    1    3    3    0    0 -0.47656081397E-01  0.11388336774E+00  0.84055788426E-02  0.88865695141E+00  0.88000000000E+00 0. -1.
        -11    1    4    4    0    0  0.21405394764E-01 -0.44804259554E-01 -0.48662985052E-02  0.49895436478E-01  0.51100000000E-03 0. -1.
         11    1    4    4    0    0  0.10869657012E-01 -0.78868404406E-01 -0.18565446605E-01  0.81751523446E-01  0.51100000000E-03 0.  1.
</event>
<event>
 8    1  0.1078274E+005  0.1043930E+01  0.7957747E-01            NaN
         13   -1    0    0    0    0  0.00000000000E+00  0.00000000000E+00  0.74505805969E-08  0.10566000000E+00  0.10566000000E+00 0.  1.
     999900   -1    0    0    0    0 -0.00000000000E+00 -0.00000000000E+00 -0.74505805969E-08  0.93827000000E+00  0.93827000000E+00 0. -1.
     999902    2    1    2    0    0 -0.21813817521E-01 -0.20621775963E-02  0.75792544053E-02  0.10207450845E+01  0.10204817427E+01 0.  0.
     999903    2    3    3    0    0 -0.10202851490E+00 -0.75194173032E-01  0.36476262454E-01  0.13360489063E+00  0.21348713482E-01 0.  0.
         14    1    1    2    0    0  0.21813817521E-01  0.20621775963E-02 -0.75792544053E-02  0.23184915541E-01  0.00000000000E+00 0. -1.
     999901    1    3    3    0    0  0.80214697378E-01  0.73131995435E-01 -0.28897008048E-01  0.88714019383E+00  0.88000000000E+00 0.  1.
        -11    1    4    4    0    0 -0.79638478384E-01 -0.47052326688E-01  0.24390458285E-01  0.95662763197E-01  0.51100000000E-03 0. -1.
         11    1    4    4    0    0 -0.22390036515E-01 -0.28141846344E-01  0.12085804169E-01  0.37942127434E-01  0.51100000000E-03 0.  1.
</event>
<event>
 8    1  0.1078274E+005  0.1043930E+01  0.7957747E-01            NaN
         13   -1    0    0    0    0  0.00000000000E+00  0.00000000000E+00  0.74505805969E-08  0.10566000000E+00  0.10566000000E+00 0.  1.
     999900   -1    0    0    0    0 -0.00000000000E+00 -0.00000000000E+00 -0.74505805969E-08  0.93827000000E+00  0.93827000000E+00 0. -1.
     999902    2    1    2    0    0  0.36821546496E-02  0.25739133812E-01 -0.19624671869E-02  0.10178548672E+01  0.10175208195E+01 0.  0.
     999903    2    3    3    0    0  0.20880903844E-01 -0.11332284626E+00  0.45645877888E-01  0.12549810796E+00  0.19701505054E-01 0.  0.
         14    1    1    2    0    0 -0.36821546496E-02 -0.25739133812E-01  0.19624671869E-02  0.26075132785E-01  0.00000000000E+00 0.  1.
     999901    1    3    3    0    0 -0.17198749195E-01  0.13906198008E+00 -0.47608345075E-01  0.89235675926E+00  0.88000000000E+00 0.  1.
        -11    1    4    4    0    0  0.29829683736E-03 -0.13671348172E-01  0.12349730211E-01  0.18432897198E-01  0.51100000000E-03 0.  1.
         11    1    4    4    0    0  0.20582607007E-01 -0.99651498092E-01  0.33296147677E-01  0.10706521076E+00  0.51100000000E-03 0. -1.
</event>
<event>
 8    1  0.1078274E+005  0.1043930E+01  0.7957747E-01            NaN
         13   -1    0    0    0    0  0.00000000000E+00  0.00000000000E+00  0.74505805969E-08  0.10566000000E+00  0.10566000000E+00 0. -1.
     999900   -1    0    0    0    0 -0.00000000000E+00 -0.00000000000E+00 -0.74505805969E-08  0.93827000000E+00  0.93827000000E+00 0.  1.
     999902    2    1    2    0    0 -0.11103426032E-02  0.15341693914E-01 -0.17422217683E-01  0.10206892147E+01  0.10204245876E+01 0.  0.
     999903    2    3    3    0    0 -0.12801232697E+00  0.46263871957E-02 -0.24309955352E-01  0.13149498823E+00  0.17070403802E-01 0.  0.
         14    1    1    2    0    0  0.11103426032E-02 -0.15341693914E-01  0.17422217683E-01  0.23240785311E-01  0.00000000000E+00 0. -1.
     999901    1    3    3    0    0  0.12690198437E+00  0.10715306719E-01  0.68877376689E-02  0.88919422646E+00  0.88000000000E+00 0. -1.
        -11    1    4    4    0    0 -0.46388541910E-01  0.31705433377E-02 -0.67603007323E-03  0.46504486916E-01  0.51100000000E-03 0.  1.
         11    1    4    4    0    0 -0.81623785061E-01  0.14558438580E-02 -0.23633925279E-01  0.84990501317E-01  0.51100000000E-03 0. -1.
</event>
<event>
 8    1  0.1078274E+005  0.1043930E+01  0.7957747E-01            NaN
         13   -1    0    0    0    0  0.00000000000E+00  0.00000000000E+00  0.74505805969E-08  0.10566000000E+00  0.10566000000E+00 0.  1.
     999900   -1    0    0    0    0 -0.00000000000E+00 -0.00000000000E+00 -0.74505805969E-08  0.93827000000E+00  0.93827000000E+00 0. -1.
     999902    2    1    2    0    0 -0.16911993090E-01 -0.16206750871E-01  0.16767751852E-02  0.10204462639E+01  0.10201760102E+01 0.  0.
     999903    2    3    3    0    0 -0.69473055338E-01 -0.20990804060E-01 -0.10826892265E+00  0.13203554311E+00  0.21073816885E-01 0.  0.
         14    1    1    2    0    0  0.16911993090E-01  0.16206750871E-01 -0.16767751852E-02  0.23483736055E-01  0.00000000000E+00 0. -1.
     999901    1    3    3    0    0  0.52561062248E-01  0.47840531893E-02  0.10994569784E+00  0.88841072084E+00  0.88000000000E+00 0.  1.
        -11    1    4    4    0    0 -0.30894725571E-01 -0.84823396705E-02 -0.30059152204E-01  0.43934586679E-01  0.51100000000E-03 0. -1.
         11    1    4    4    0    0 -0.38578329767E-01 -0.12508464390E-01 -0.78209770447E-01  0.88100956427E-01  0.51100000000E-03 0.  1.
</event>
<event>
 8    1  0.1078274E+005  0.1043930E+01  0.7957747E-01            NaN
         13   -1    0    0    0    0  0.00000000000E+00  0.00000000000E+00  0.74505805969E-08  0.10566000000E+00  0.10566000000E+00 0. -1.
     999900   -1    0    0    0    0 -0.00000000000E+00 -0.00000000000E+00 -0.74505805969E-08  0.93827000000E+00  0.93827000000E+00 0. -1.
     999902    2    1    2    0    0  0.17964032229E-01  0.13250929100E-01  0.89055255775E-02  0.10198966490E+01  0.10196134427E+01 0.  0.
     999903    2    3    3    0    0 -0.11281481728E+00 -0.40641283086E-01 -0.38059840445E-01  0.12736473155E+00  0.19857655936E-01 0.  0.
         14    1    1    2    0    0 -0.17964032229E-01 -0.13250929100E-01 -0.89055255775E-02  0.24033351030E-01  0.00000000000E+00 0.  1.
     999901    1    3    3    0    0  0.13077884951E+00  0.53892212185E-01  0.46965366022E-01  0.89253191742E+00  0.88000000000E+00 0. -1.
        -11    1    4    4    0    0 -0.73745746209E-01 -0.30549764319E-01 -0.16135961231E-01  0.81439262950E-01  0.51100000000E-03 0.  1.
         11    1    4    4    0    0 -0.39069071068E-01 -0.10091518766E-01 -0.21923879214E-01  0.45925468598E-01  0.51100000000E-03 0. -1.
</event>
<event>
 8    1  0.1078274E+005  0.1043930E+01  0.7957747E-01            NaN
         13   -1    0    0    0    0  0.00000000000E+00  0.00000000000E+00  0.74505805969E-08  0.10566000000E+00  0.10566000000E+00 0.  1.
     999900   -1    0    0    0    0 -0.00000000000E+00 -0.00000000000E+00 -0.74505805969E-08  0.93827000000E+00  0.93827000000E+00 0. -1.
     999902    2    1    2    0    0  0.11546394547E-01 -0.17952173404E-01 -0.11021910476E-01  0.10199074633E+01  0.10196245150E+01 0.  0.
     999903    2    3    3    0    0  0.12868671889E+00 -0.21373804906E-01 -0.57751747986E-02  0.13212309122E+00  0.20150618746E-01 0.  0.
         14    1    1    2    0    0 -0.11546394547E-01  0.17952173404E-01  0.11021910476E-01  0.24022536658E-01  0.00000000000E+00 0.  1.
     999901    1    3    3    0    0 -0.11714032434E+00  0.34216315029E-02 -0.52467356779E-02  0.88778437212E+00  0.88000000000E+00 0.  1.
        -11    1    4    4    0    0  0.38022123127E-01 -0.15530848143E-01 -0.37594223222E-02  0.41246617659E-01  0.51100000000E-03 0.  1.
         11    1    4    4    0    0  0.90664595758E-01 -0.58429567634E-02 -0.20157524764E-02  0.90876473561E-01  0.51100000000E-03 0. -1.
</event>
<event>
 8    1  0.1078274E+005  0.1043930E+01  0.7957747E-01            NaN
         13   -1    0    0    0    0  0.00000000000E+00  0.00000000000E+00  0.74505805969E-08  0.10566000000E+00  0.10566000000E+00 0.  1.
     999900   -1    0    0    0    0 -0.00000000000E+00 -0.00000000000E+00 -0.74505805969E-08  0.93827000000E+00  0.93827000000E+00 0. -1.
     999902    2    1    2    0    0  0.19913551300E-02 -0.24206286351E-01 -0.30907281113E-02  0.10194460789E+01  0.10191520227E+01 0.  0.
     999903    2    3    3    0    0 -0.10231114243E+00  0.64762579586E-02 -0.77017132053E-01  0.12967895049E+00  0.19377300846E-01 0.  0.
         14    1    1    2    0    0 -0.19913551300E-02  0.24206286351E-01  0.30907281113E-02  0.24483921141E-01  0.00000000000E+00 0.  1.
     999901    1    3    3    0    0  0.10430249756E+00 -0.30682544310E-01  0.73926403942E-01  0.88976712837E+00  0.88000000000E+00 0.  1.
        -11    1    4    4    0    0 -0.35885986685E-01  0.36891687742E-02 -0.38841998852E-01  0.53012979565E-01  0.51100000000E-03 0. -1.
         11    1    4    4    0    0 -0.66425155747E-01  0.27870891844E-02 -0.38175133201E-01  0.76665970926E-01  0.51100000000E-03 0.  1.
</event>
<event>
 8    1  0.1078274E+005  0.1043930E+01  0.7957747E-01            NaN
         13   -1    0    0    0    0  0.00000000000E+00  0.00000000000E+00  0.74505805969E-08  0.10566000000E+00  0.10566000000E+00 0. -1.
     999900   -1    0    0    0    0 -0.00000000000E+00 -0.00000000000E+00 -0.74505805969E-08  0.93827000000E+00  0.93827000000E+00 0.  1.
     999902    2    1    2    0    0 -0.19376913177E-01  0.13180020736E-01  0.63267195582E-03  0.10204869203E+01  0.10202176124E+01 0.  0.
     999903    2    3    3    0    0  0.98939601114E-01  0.74416251494E-01 -0.33262679767E-01  0.12981438320E+00  0.20458373996E-01 0.  0.
         14    1    1    2    0    0  0.19376913177E-01 -0.13180020736E-01 -0.63267195582E-03  0.23443079676E-01  0.00000000000E+00 0. -1.
     999901    1    3    3    0    0 -0.11831651429E+00 -0.61236230757E-01  0.33895351723E-01  0.89067253712E+00  0.88000000000E+00 0. -1.
        -11    1    4    4    0    0  0.49494848907E-01  0.25875131899E-01 -0.10131632762E-01  0.56764193137E-01  0.51100000000E-03 0.  1.
         11    1    4    4    0    0  0.49444752207E-01  0.48541119594E-01 -0.23131047005E-01  0.73050190067E-01  0.51100000000E-03 0. -1.
</event>
<event>
 8    1  0.1078274E+005  0.1043930E+01  0.7957747E-01            NaN
         13   -1    0    0    0    0  0.00000000000E+00  0.00000000000E+00  0.74505805969E-08  0.10566000000E+00  0.10566000000E+00 0. -1.
     999900   -1    0    0    0    0 -0.00000000000E+00 -0.00000000000E+00 -0.74505805969E-08  0.93827000000E+00  0.93827000000E+00 0. -1.
     999902    2    1    2    0    0 -0.14097199661E-01  0.20555076811E-01 -0.82057921086E-02  0.10176892446E+01  0.10173508841E+01 0.  0.
     999903    2    3    3    0    0 -0.12191364129E+00  0.23749631350E-01  0.33211024388E-01  0.13013646139E+00  0.20138160773E-01 0.  0.
         14    1    1    2    0    0  0.14097199661E-01 -0.20555076811E-01  0.82057921086E-02  0.26240755423E-01  0.00000000000E+00 0. -1.
     999901    1    3    3    0    0  0.10781644163E+00 -0.31945545385E-02 -0.41416816497E-01  0.88755278319E+00  0.88000000000E+00 0. -1.
        -11    1    4    4    0    0 -0.11675626770E+00  0.20791097972E-01  0.35424155980E-01  0.12377167588E+00  0.51100000000E-03 0. -1.
         11    1    4    4    0    0 -0.51573735846E-02  0.29585333776E-02 -0.22131315918E-02  0.63647855015E-02  0.51100000000E-03 0.  1.
</event>
<event>
 8    1  0.1078274E+005  0.1043930E+01  0.7957747E-01            NaN
         13   -1    0    0    0    0  0.00000000000E+00  0.00000000000E+00  0.74505805969E-08  0.10566000000E+00  0.10566000000E+00 0. -1.
     999900   -1    0    0    0    0 -0.00000000000E+00 -0.00000000000E+00 -0.74505805969E-08  0.93827000000E+00  0.93827000000E+00 0.  1.
     999902    2    1    2    0    0  0.22859713120E-01  0.23548356671E-02  0.34247586880E-02  0.10206955276E+01  0.10204310459E+01 0.  0.
     999903    2    3    3    0    0 -0.54987978114E-01  0.81023433134E-01 -0.82438625932E-01  0.12961666911E+00  0.20393121667E-01 0.  0.
         14    1    1    2    0    0 -0.22859713120E-01 -0.23548356671E-02 -0.34247586880E-02  0.23234472386E-01  0.00000000000E+00 0.  1.
     999901    1    3    3    0    0  0.77847691234E-01 -0.78668597467E-01  0.85863384620E-01  0.89107885851E+00  0.88000000000E+00 0. -1.
        -11    1    4    4    0    0 -0.23062502779E-01  0.19718296025E-01 -0.19056122992E-01  0.35834162150E-01  0.51100000000E-03 0.  1.
         11    1    4    4    0    0 -0.31925475335E-01  0.61305137109E-01 -0.63382502941E-01  0.93782506958E-01  0.51100000000E-03 0. -1.
</event>
<event>
 8    1  0.1078274E+005  0.1043930E+01  0.7957747E-01            NaN
         13   -1    0    0    0    0  0.00000000000E+00  0.00000000000E+00  0.74505805969E-08  0.10566000000E+00  0.10566000000E+00 0. -1.
     999900   -1    0    0    0    0 -0.00000000000E+00 -0.00000000000E+00 -0.74505805969E-08  0.93827000000E+00  0.93827000000E+00 0. -1.
     999902    2    1    2    0    0  0.17480184865E-01 -0.15316557624E-02 -0.17166265262E-01  0.10193824238E+01  0.10190868180E+01 0.  0.
     999903    2    3    3    0    0  0.35368431831E-01  0.71059140422E-01  0.99025234886E-01  0.12860193585E+00  0.20787817428E-01 0.  0.
         14    1    1    2    0    0 -0.17480184865E-01  0.15316557624E-02  0.17166265262E-01  0.24547576160E-01  0.00000000000E+00 0. -1.
     999901    1    3    3    0    0 -0.17888246966E-01 -0.72590796184E-01 -0.11619150015E+00  0.89078048799E+00  0.88000000000E+00 0. -1.
        -11    1    4    4    0    0  0.57563211736E-04  0.14161150216E-01  0.25338055212E-01  0.29031356356E-01  0.51100000000E-03 0. -1.
         11    1    4    4    0    0  0.35310868619E-01  0.56897990206E-01  0.73687179674E-01  0.99570579497E-01  0.51100000000E-03 0.  1.
</event>
<event>
 8    1  0.1078274E+005  0.1043930E+01  0.7957747E-01            NaN
         13   -1    0    0    0    0  0.00000000000E+00  0.00000000000E+00  0.74505805969E-08  0.10566000000E+00  0.10566000000E+00 0. -1.
     999900   -1    0    0    0    0 -0.00000000000E+00 -0.00000000000E+00 -0.74505805969E-08  0.93827000000E+00  0.93827000000E+00 0. -1.
     999902    2    1    2    0    0 -0.10670507559E-01 -0.20418873123E-01 -0.86556846775E-02  0.10193188036E+01  0.10190216447E+01 0.  0.
     999903    2    3    3    0    0 -0.12273457800E+00 -0.21348779626E-01 -0.38039187419E-01  0.13172508413E+00  0.19620677356E-01 0.  0.
         14    1    1    2    0    0  0.10670507559E-01  0.20418873123E-01  0.86556846775E-02  0.24611196404E-01  0.00000000000E+00 0.  1.
     999901    1    3    3    0    0  0.11206407044E+00  0.92990650302E-03  0.29383502742E-01  0.88759371947E+00  0.88000000000E+00 0. -1.
        -11    1    4    4    0    0 -0.49409890266E-01 -0.72686188904E-02 -0.25276232120E-01  0.55976058345E-01  0.51100000000E-03 0. -1.
         11    1    4    4    0    0 -0.73324687735E-01 -0.14080160736E-01 -0.12762955299E-01  0.75749025781E-01  0.51100000000E-03 0.  1.
</event>
<event>
 8    1  0.1078274E+005  0.1043930E+01  0.7957747E-01            NaN
         13   -1    0    0    0    0  0.00000000000E+00  0.00000000000E+00  0.74505805969E-08  0.10566000000E+00  0.10566000000E+00 0.  1.
     999900   -1    0    0    0    0 -0.00000000000E+00 -0.00000000000E+00 -0.74505805969E-08  0.93827000000E+00  0.93827000000E+00 0. -1.
     999902    2    1    2    0    0  0.45920335046E-03  0.94515679367E-02 -0.29944260669E-01  0.10125261507E+01  0.10120390329E+01 0.  0.
     999903    2    3    3    0    0  0.45250747702E-01 -0.11190156514E+00  0.38005916097E-02  0.12242976243E+00  0.20124904558E-01 0.  0.
         14    1    1    2    0    0 -0.45920335046E-03 -0.94515679367E-02  0.29944260669E-01  0.31403849305E-01  0.00000000000E+00 0.  1.
     999901    1    3    3    0    0 -0.44791544352E-01  0.12135313307E+00 -0.33744852278E-01  0.89009638827E+00  0.88000000000E+00 0. -1.
        -11    1    4    4    0    0  0.14734992626E-01 -0.59691445408E-01 -0.30859016820E-02  0.61562753129E-01  0.51100000000E-03 0.  1.
         11    1    4    4    0    0  0.30515755076E-01 -0.52210119729E-01  0.68864932916E-02  0.60867009298E-01  0.51100000000E-03 0. -1.
</event>
<event>
 8    1  0.1078274E+005  0.1043930E+01  0.7957747E-01            NaN
         13   -1    0    0    0    0  0.00000000000E+00  0.00000000000E+00  0.74505805969E-08  0.10566000000E+00  0.10566000000E+00 0.  1.
     999900   -1    0    0    0    0 -0.00000000000E+00 -0.00000000000E+00 -0.74505805969E-08  0.93827000000E+00  0.93827000000E+00 0. -1.
     999902    2    1    2    0    0  0.23394687525E-03 -0.25673931899E-01  0.12587528511E-01  0.10153353959E+01  0.10149326651E+01 0.  0.
     999903    2    3    3    0    0  0.27553399173E-01 -0.93784997377E-01  0.82143653399E-01  0.12954562161E+00  0.21901432473E-01 0.  0.
         14    1    1    2    0    0 -0.23394687525E-03  0.25673931899E-01 -0.12587528511E-01  0.28594604112E-01  0.00000000000E+00 0. -1.
     999901    1    3    3    0    0 -0.27319452298E-01  0.68111065478E-01 -0.69556124889E-01  0.88578977428E+00  0.88000000000E+00 0. -1.
        -11    1    4    4    0    0  0.10584620772E-01 -0.66922856767E-01  0.62545235618E-01  0.92211011133E-01  0.51100000000E-03 0. -1.
         11    1    4    4    0    0  0.16968778401E-01 -0.26862140610E-01  0.19598417782E-01  0.37334610472E-01  0.51100000000E-03 0.  1.
</event>
<event>
 8    1  0.1078274E+005  0.1043930E+01  0.7957747E-01            NaN
         13   -1    0    0    0    0  0.00000000000E+00  0.00000000000E+00  0.74505805969E-08  0.10566000000E+00  0.10566000000E+00 0. -1.
     999900   -1    0    0    0    0 -0.00000000000E+00 -0.00000000000E+00 -0.74505805969E-08  0.93827000000E+00  0.93827000000E+00 0. -1.
     999902    2    1    2    0    0  0.18025240159E-01  0.17103519450E-01 -0.26094862307E-02  0.10189450229E+01  0.10186386556E+01 0.  0.
     999903    2    3    3    0    0 -0.11550430225E+00  0.51878152343E-01 -0.25578513455E-02  0.12819285962E+00  0.19856488275E-01 0.  0.
         14    1    1    2    0    0 -0.18025240159E-01 -0.17103519450E-01  0.26094862307E-02  0.24984977062E-01  0.00000000000E+00 0.  1.
     999901    1    3    3    0    0  0.13352954241E+00 -0.34774632893E-01 -0.51634885273E-04  0.89075216332E+00  0.88000000000E+00 0.  1.
        -11    1    4    4    0    0 -0.64122569706E-01  0.18013091375E-01 -0.18005371371E-03  0.66606823577E-01  0.51100000000E-03 0.  1.
         11    1    4    4    0    0 -0.51381732539E-01  0.33865060968E-01 -0.23777976317E-02  0.61586036045E-01  0.51100000000E-03 0. -1.
</event>
<event>
 8    1  0.1078274E+005  0.1043930E+01  0.7957747E-01            NaN
         13   -1    0    0    0    0  0.00000000000E+00  0.00000000000E+00  0.74505805969E-08  0.10566000000E+00  0.10566000000E+00 0. -1.
     999900   -1    0    0    0    0 -0.00000000000E+00 -0.00000000000E+00 -0.74505805969E-08  0.93827000000E+00  0.93827000000E+00 0.  1.
     999902    2    1    2    0    0  0.10998680159E-02  0.18880120345E-01  0.13621468911E-01  0.10206230682E+01  0.10203569152E+01 0.  0.
     999903    2    3    3    0    0  0.76022633887E-01  0.32815760376E-01  0.10178280671E+00  0.13294066758E+00  0.21381449073E-01 0.  0.
         14    1    1    2    0    0 -0.10998680159E-02 -0.18880120345E-01 -0.13621468911E-01  0.23306931784E-01  0.00000000000E+00 0.  1.
     999901    1    3    3    0    0 -0.74922765872E-01 -0.13935640031E-01 -0.88161337796E-01  0.88768240063E+00  0.88000000000E+00 0.  1.
        -11    1    4    4    0    0  0.62406154026E-01  0.18515373491E-01  0.84700875673E-01  0.10682624479E+00  0.51100000000E-03 0.  1.
         11    1    4    4    0    0  0.13616479861E-01  0.14300386885E-01  0.17081931033E-01  0.26114422791E-01  0.51100000000E-03 0. -1.
</event>
<event>
 8    1  0.1078274E+005  0.1043930E+01  0.7957747E-01            NaN
         13   -1    0    0    0    0  0.00000000000E+00  0.00000000000E+00  0.74505805969E-08  0.10566000000E+00  0.10566000000E+00 0.  1.
     999900   -1    0    0    0    0 -0.00000000000E+00 -0.00000000000E+00 -0.74505805969E-08  0.93827000000E+00  0.93827000000E+00 0.  1.
     999902    2    1    2    0    0  0.19486711776E-01 -0.57511871580E-02 -0.12699771749E-01  0.10199697769E+01  0.10196883119E+01 0.  0.
     999903    2    3    3    0    0 -0.20251018076E-01  0.70155170169E-01  0.10350610178E+00  0.12820485982E+00  0.19776787958E-01 0.  0.
         14    1    1    2    0    0 -0.19486711776E-01  0.57511871580E-02  0.12699771749E-01  0.23960223121E-01  0.00000000000E+00 0. -1.
     999901    1    3    3    0    0  0.39737729852E-01 -0.75906357327E-01 -0.11620587352E+00  0.89176491706E+00  0.88000000000E+00 0.  1.
        -11    1    4    4    0    0 -0.17481697225E-01  0.25609269304E-01  0.41774635425E-01  0.52027163078E-01  0.51100000000E-03 0.  1.
         11    1    4    4    0    0 -0.27693208512E-02  0.44545900865E-01  0.61731466351E-01  0.76177696741E-01  0.51100000000E-03 0. -1.
</event>
<event>
 8    1  0.1078274E+005  0.1043930E+01  0.7957747E-01            NaN
         13   -1    0    0    0    0  0.00000000000E+00  0.00000000000E+00  0.74505805969E-08  0.10566000000E+00  0.10566000000E+00 0.  1.
     999900   -1    0    0    0    0 -0.00000000000E+00 -0.00000000000E+00 -0.74505805969E-08  0.93827000000E+00  0.93827000000E+00 0.  1.
     999902    2    1    2    0    0 -0.30126750063E-01 -0.16839494311E-01  0.53882007959E-02  0.10089983189E+01  0.10083934674E+01 0.  0.
     999903    2    3    3    0    0  0.14913127459E-01  0.89548168880E-01 -0.73599869769E-01  0.11793937541E+00  0.15858105874E-01 0.  0.
         14    1    1    2    0    0  0.30126750063E-01  0.16839494311E-01 -0.53882007959E-02  0.34931681119E-01  0.00000000000E+00 0. -1.
     999901    1    3    3    0    0 -0.45039877522E-01 -0.10638766319E+00  0.78988070564E-01  0.89105894347E+00  0.88000000000E+00 0. -1.
        -11    1    4    4    0    0  0.64959570994E-03  0.27429379537E-01 -0.14588441433E-01  0.31078554998E-01  0.51100000000E-03 0.  1.
         11    1    4    4    0    0  0.14263531749E-01  0.62118789344E-01 -0.59011428336E-01  0.86860820412E-01  0.51100000000E-03 0. -1.
</event>
<event>
 8    1  0.1078274E+005  0.1043930E+01  0.7957747E-01            NaN
         13   -1    0    0    0    0  0.00000000000E+00  0.00000000000E+00  0.74505805969E-08  0.10566000000E+00  0.10566000000E+00 0. -1.
     999900   -1    0    0    0    0 -0.00000000000E+00 -0.00000000000E+00 -0.74505805969E-08  0.93827000000E+00  0.93827000000E+00 0. -1.
     999902    2    1    2    0    0 -0.20273169588E-01  0.11006514928E-01 -0.15851403583E-02  0.10208073391E+01  0.10205454258E+01 0.  0.
     999903    2    3    3    0    0  0.56862351117E-01 -0.11290079832E+00 -0.13049635487E-01  0.12871185910E+00  0.20409126674E-01 0.  0.
         14    1    1    2    0    0  0.20273169588E-01 -0.11006514928E-01  0.15851403583E-02  0.23122660875E-01  0.00000000000E+00 0.  1.
     999901    1    3    3    0    0 -0.77135520705E-01  0.12390731325E+00  0.11464495128E-01  0.89209548002E+00  0.88000000000E+00 0.  1.
        -11    1    4    4    0    0  0.46657804701E-01 -0.98182240966E-01 -0.43466494952E-02  0.10879272799E+00  0.51100000000E-03 0. -1.
         11    1    4    4    0    0  0.10204546416E-01 -0.14718557352E-01 -0.87029859914E-02  0.19919131112E-01  0.51100000000E-03 0.  1.
</event>
<event>
 8    1  0.1078274E+005  0.1043930E+01  0.7957747E-01            NaN
         13   -1    0    0    0    0  0.00000000000E+00  0.00000000000E+00  0.74505805969E-08  0.10566000000E+00  0.10566000000E+00 0. -1.
     999900   -1    0    0    0    0 -0.00000000000E+00 -0.00000000000E+00 -0.74505805969E-08  0.93827000000E+00  0.93827000000E+00 0.  1.
     999902    2    1    2    0    0 -0.87754226268E-02  0.16076173611E-01 -0.16507291692E-01  0.10192735185E+01  0.10189752516E+01 0.  0.
     999903    2    3    3    0    0 -0.71360641549E-01  0.83303023382E-01 -0.72126517615E-01  0.13274666768E+00  0.19690311573E-01 0.  0.
         14    1    1    2    0    0  0.87754226268E-02 -0.16076173611E-01  0.16507291692E-01  0.24656481486E-01  0.00000000000E+00 0. -1.
     999901    1    3    3    0    0  0.62585218922E-01 -0.67226849771E-01  0.55619225923E-01  0.88652685083E+00  0.88000000000E+00 0. -1.
        -11    1    4    4    0    0 -0.39210796298E-01  0.59977837434E-01 -0.48474543029E-01  0.86515143024E-01  0.51100000000E-03 0. -1.
         11    1    4    4    0    0 -0.32149845251E-01  0.23325185949E-01 -0.23651974586E-01  0.46231524656E-01  0.51100000000E-03 0.  1.
</event>
<event>
 8    1  0.1078274E+005  0.1043930E+01  0.7957747E-01            NaN
         13   -1    0    0    0    0  0.00000000000E+00  0.00000000000E+00  0.74505805969E-08  0.10566000000E+00  0.10566000000E+00 0. -1.
     999900   -1    0    0    0    0 -0.00000000000E+00 -0.00000000000E+00 -0.74505805969E-08  0.93827000000E+00  0.93827000000E+00 0. -1.
     999902    2    1    2    0    0  0.18666026194E-01 -0.36522727033E-02  0.13779802406E-01  0.10204429273E+01  0.10201725958E+01 0.  0.
     999903    2    3    3    0    0 -0.44262167082E-02  0.12606068481E+00  0.26785150178E-01  0.13053965047E+00  0.20304394252E-01 0.  0.
         14    1    1    2    0    0 -0.18666026194E-01  0.36522727033E-02 -0.13779802406E-01  0.23487072703E-01  0.00000000000E+00 0.  1.
     999901    1    3    3    0    0  0.23092242902E-01 -0.12971295752E+00 -0.13005347772E-01  0.88990327682E+00  0.88000000000E+00 0. -1.
        -11    1    4    4    0    0  0.39355068213E-02  0.60673137659E-01  0.21154032094E-01  0.64377574063E-01  0.51100000000E-03 0. -1.
         11    1    4    4    0    0 -0.83617235296E-02  0.65387547154E-01  0.56311180838E-02  0.66162076411E-01  0.51100000000E-03 0.  1.
</event>
<event>
 8    1  0.1078274E+005  0.1043930E+01  0.7957747E-01            NaN
         13   -1    0    0    0    0  0.00000000000E+00  0.00000000000E+00  0.74505805969E-08  0.10566000000E+00  0.10566000000E+00 0. -1.
     999900   -1    0    0    0    0 -0.00000000000E+00 -0.00000000000E+00 -0.74505805969E-08  0.93827000000E+00  0.93827000000E+00 0.  1.
     999902    2    1    2    0    0  0.19116928582E-01  0.12770211863E-02  0.12943666530E-01  0.10208080138E+01  0.10205461160E+01 0.  0.
     999903    2    3    3    0    0 -0.29502699354E-01 -0.47525435362E-01 -0.11441753994E+00  0.12897483161E+00  0.20348402083E-01 0.  0.
         14    1    1    2    0    0 -0.19116928582E-01 -0.12770211863E-02 -0.12943666530E-01  0.23121986177E-01  0.00000000000E+00 0.  1.
     999901    1    3    3    0    0  0.48619627936E-01  0.48802456549E-01  0.12736120647E+00  0.89183318221E+00  0.88000000000E+00 0. -1.
        -11    1    4    4    0    0 -0.15498438176E-02 -0.14131871903E-01 -0.43345595403E-01  0.45620319828E-01  0.51100000000E-03 0. -1.
         11    1    4    4    0    0 -0.27952855537E-01 -0.33393563460E-01 -0.71071944536E-01  0.83354511781E-01  0.51100000000E-03 0.  1.
</event>
<event>
 8    1  0.1078274E+005  0.1043930E+01  0.7957747E-01            NaN
         13   -1    0    0    0    0  0.00000000000E+00  0.00000000000E+00  0.74505805969E-08  0.10566000000E+00  0.10566000000E+00 0.  1.
     999900   -1    0    0    0    0 -0.00000000000E+00 -0.00000000000E+00 -0.74505805969E-08  0.93827000000E+00  0.93827000000E+00 0.  1.
     999902    2    1    2    0    0  0.20342197479E-01  0.99588974570E-02  0.54111076910E-02  0.10206434218E+01  0.10203777388E+01 0.  0.
     999903    2    3    3    0    0 -0.91112956585E-02  0.71338751587E-01  0.10878692336E+00  0.13198063200E+00  0.20299244891E-01 0.  0.
         14    1    1    2    0    0 -0.20342197479E-01 -0.99588974570E-02 -0.54111076910E-02  0.23286578179E-01  0.00000000000E+00 0.  1.
     999901    1    3    3    0    0  0.29453493137E-01 -0.61379854130E-01 -0.10337581566E+00  0.88866278982E+00  0.88000000000E+00 0.  1.
        -11    1    4    4    0    0  0.57367183383E-02  0.33785991850E-01  0.52793602367E-01  0.62943059621E-01  0.51100000000E-03 0.  1.
         11    1    4    4    0    0 -0.14848013997E-01  0.37552759737E-01  0.55993320989E-01  0.69037572378E-01  0.51100000000E-03 0. -1.
</event>
<event>
 8    1  0.1078274E+005  0.1043930E+01  0.7957747E-01            NaN
         13   -1    0    0    0    0  0.00000000000E+00  0.00000000000E+00  0.74505805969E-08  0.10566000000E+00  0.10566000000E+00 0. -1.
     999900   -1    0    0    0    0 -0.00000000000E+00 -0.00000000000E+00 -0.74505805969E-08  0.93827000000E+00  0.93827000000E+00 0.  1.
     999902    2    1    2    0    0 -0.11877015588E-01 -0.18669259200E-01 -0.77597581398E-02  0.10204817893E+01  0.10202123621E+01 0.  0.
     999903    2    3    3    0    0  0.12627086186E+00 -0.52735623048E-02  0.17203728428E-01  0.12925372848E+00  0.20938410673E-01 0.  0.
         14    1    1    2    0    0  0.11877015588E-01  0.18669259200E-01  0.77597581398E-02  0.23448210694E-01  0.00000000000E+00 0. -1.
     999901    1    3    3    0    0 -0.13814787744E+00 -0.13395696896E-01 -0.24963486568E-01  0.89122806082E+00  0.88000000000E+00 0.  1.
        -11    1    4    4    0    0  0.95669542218E-01  0.26802069787E-03  0.48726126208E-02  0.95795284947E-01  0.51100000000E-03 0.  1.
         11    1    4    4    0    0  0.30601319638E-01 -0.55415830027E-02  0.12331115807E-01  0.33458443535E-01  0.51100000000E-03 0. -1.
</event>
<event>
 7    1  0.1078274E+005  0.1043930E+01  0.7957747E-01            NaN
         13   -1    0    0    0    0  0.00000000000E+00  0.00000000000E+00  0.74505805969E-08  0.10566000000E+00  0.10566000000E+00 0. -1.
     999900   -1    0    0    0    0 -0.00000000000E+00 -0.00000000000E+00 -0.74505805969E-08  0.93827000000E+00  0.93827000000E+00 0.  1.
     999903    2    1    2    0    0  0.10552883039E+00 -0.13101165156E-01 -0.11687752463E-02  0.10815699835E+00  0.19712830435E-01 0.  0.
         14    1    1    2    0    0  0.43198756469E-01  0.57693848969E-03 -0.36773256364E-03  0.43204173939E-01  0.00000000000E+00 0.  1.
     999901    1    1    2    0    0 -0.14872758686E+00  0.12524226666E-01  0.15365078100E-02  0.89256882771E+00  0.88000000000E+00 0.  1.
        -11    1    3    3    0    0  0.65208927952E-01 -0.16852129285E-01  0.31713612038E-02  0.67427866635E-01  0.51100000000E-03 0. -1.
         11    1    3    3    0    0  0.40319902441E-01  0.37509641296E-02 -0.43401364502E-02  0.40729131714E-01  0.51100000000E-03 0.  1.
</event>
<event>
 8    1  0.1078274E+005  0.1043930E+01  0.7957747E-01            NaN
         13   -1    0    0    0    0  0.00000000000E+00  0.00000000000E+00  0.74505805969E-08  0.10566000000E+00  0.10566000000E+00 0. -1.
     999900   -1    0    0    0    0 -0.00000000000E+00 -0.00000000000E+00 -0.74505805969E-08  0.93827000000E+00  0.93827000000E+00 0. -1.
     999902    2    1    2    0    0  0.13618400963E-01  0.19391947457E-01  0.51518495126E-02  0.10196802572E+01  0.10193918662E+01 0.  0.
     999903    2    3    3    0    0  0.59314193538E-01  0.90628065290E-01 -0.73195525890E-01  0.13215504566E+00  0.19384305757E-01 0.  0.
         14    1    1    2    0    0 -0.13618400963E-01 -0.19391947457E-01 -0.51518495126E-02  0.24249742769E-01  0.00000000000E+00 0. -1.
     999901    1    3    3    0    0 -0.45695792575E-01 -0.71236117833E-01  0.78347375403E-01  0.88752521157E+00  0.88000000000E+00 0.  1.
        -11    1    4    4    0    0  0.12002930432E-01  0.18709146812E-01 -0.25147359390E-01  0.33567146418E-01  0.51100000000E-03 0.  1.
         11    1    4    4    0    0  0.47311263106E-01  0.71918918478E-01 -0.48048166500E-01  0.98587899241E-01  0.51100000000E-03 0. -1.
</event>
<event>
 8    1  0.1078274E+005  0.1043930E+01  0.7957747E-01            NaN
         13   -1    0    0    0    0  0.00000000000E+00  0.00000000000E+00  0.74505805969E-08  0.10566000000E+00  0.10566000000E+00 0. -1.
     999900   -1    0    0    0    0 -0.00000000000E+00 -0.00000000000E+00 -0.74505805969E-08  0.93827000000E+00  0.93827000000E+00 0.  1.
     999902    2    1    2    0    0 -0.21712613629E-01 -0.10100688478E-01 -0.22558391628E-02  0.10198769273E+01  0.10195932505E+01 0.  0.
     999903    2    3    3    0    0  0.72858950513E-01 -0.90492106583E-01 -0.54830774674E-01  0.12961253692E+00  0.17197321060E-01 0.  0.
         14    1    1    2    0    0  0.21712613629E-01  0.10100688478E-01  0.22558391628E-02  0.24053072749E-01  0.00000000000E+00 0.  1.
     999901    1    3    3    0    0 -0.94571564142E-01  0.80391418105E-01  0.52574935511E-01  0.89026439033E+00  0.88000000000E+00 0.  1.
        -11    1    4    4    0    0  0.55321224924E-01 -0.55861633096E-01 -0.36405564317E-01  0.86640557555E-01  0.51100000000E-03 0. -1.
         11    1    4    4    0    0  0.17537725589E-01 -0.34630473487E-01 -0.18425210356E-01  0.42971979364E-01  0.51100000000E-03 0.  1.
</event>
<event>
 8    1  0.1078274E+005  0.1043930E+01  0.7957747E-01            NaN
         13   -1    0    0    0    0  0.00000000000E+00  0.00000000000E+00  0.74505805969E-08  0.10566000000E+00  0.10566000000E+00 0.  1.
     999900   -1    0    0    0    0 -0.00000000000E+00 -0.00000000000E+00 -0.74505805969E-08  0.93827000000E+00  0.93827000000E+00 0.  1.
     999902    2    1    2    0    0 -0.13086704546E-01 -0.74296268355E-02 -0.14368749031E-01  0.10231232189E+01  0.10229116281E+01 0.  0.
     999903    2    3    3    0    0  0.92395438958E-01 -0.89282112047E-01  0.23349024470E-01  0.13225345156E+00  0.20918552385E-01 0.  0.
         14    1    1    2    0    0  0.13086704546E-01  0.74296268355E-02  0.14368749031E-01  0.20806781095E-01  0.00000000000E+00 0.  1.
     999901    1    3    3    0    0 -0.10548214350E+00  0.81852485211E-01 -0.37717773501E-01  0.89086976735E+00  0.88000000000E+00 0.  1.
        -11    1    4    4    0    0  0.64973733137E-01 -0.64192015754E-01  0.26063309231E-01  0.94982935801E-01  0.51100000000E-03 0.  1.
         11    1    4    4    0    0  0.27421705821E-01 -0.25090096293E-01 -0.27142847613E-02  0.37270515758E-01  0.51100000000E-03 0. -1.
</event>
<event>
 7    1  0.1078274E+005  0.1043930E+01  0.7957747E-01            NaN
         13   -1    0    0    0    0  0.00000000000E+00  0.00000000000E+00  0.74505805969E-08  0.10566000000E+00  0.10566000000E+00 0. -1.
     999900   -1    0    0    0    0 -0.00000000000E+00 -0.00000000000E+00 -0.74505805969E-08  0.93827000000E+00  0.93827000000E+00 0.  1.
     999902    2    1    2    0    0 -0.21950330590E-01  0.59952711868E-02 -0.78770317505E-03  0.10211620232E+01  0.10209081726E+01 0.  0.
         14    1    1    2    0    0  0.21950330590E-01 -0.59952711868E-02  0.78770317505E-03  0.22767976764E-01  0.00000000000E+00 0.  1.
     999901    1    3    3    0    0  0.98795811322E-01  0.39994758485E-01 -0.23549057726E-01  0.88674390393E+00  0.88000000000E+00 0.  1.
        -11    1    3    3    0    0 -0.66324184690E-01 -0.27454398605E-01 -0.68590606901E-02  0.72110674051E-01  0.51100000000E-03 0. -1.
         11    1    3    3    0    0 -0.54421957222E-01 -0.65450886932E-02  0.29620415241E-01  0.62307445253E-01  0.51100000000E-03 0.  1.
</event>
<event>
 8    1  0.1078274E+005  0.1043930E+01  0.7957747E-01            NaN
         13   -1    0    0    0    0  0.00000000000E+00  0.00000000000E+00  0.74505805969E-08  0.10566000000E+00  0.10566000000E+00 0. -1.
     999900   -1    0    0    0    0 -0.00000000000E+00 -0.00000000000E+00 -0.74505805969E-08  0.93827000000E+00  0.93827000000E+00 0.  1.
     999902    2    1    2    0    0  0.16746419179E-01  0.16327025401E-01  0.69382934766E-03  0.10205313737E+01  0.10202630979E+01 0.  0.
     999903    2    3    3    0    0  0.17259393882E-01 -0.10920874153E+00 -0.63883012779E-01  0.12927963571E+00  0.20192795321E-01 0.  0.
         14    1    1    2    0    0 -0.16746419179E-01 -0.16327025401E-01 -0.69382934766E-03  0.23398626305E-01  0.00000000000E+00 0.  1.
     999901    1    3    3    0    0 -0.51297470230E-03  0.12553576694E+00  0.64576842126E-01  0.89125173799E+00  0.88000000000E+00 0.  1.
        -11    1    4    4    0    0  0.89175843277E-02 -0.12808005671E-01 -0.81373958288E-02  0.17608141622E-01  0.51100000000E-03 0. -1.
         11    1    4    4    0    0  0.83418095540E-02 -0.96400735863E-01 -0.55745616950E-01  0.11167149409E+00  0.51100000000E-03 0.  1.
</event>
<event>
 8    1  0.1078274E+005  0.1043930E+01  0.7957747E-01            NaN
         13   -1    0    0    0    0  0.00000000000E+00  0.00000000000E+00  0.74505805969E-08  0.10566000000E+00  0.10566000000E+00 0.  1.
     999900   -1    0    0    0    0 -0.00000000000E+00 -0.00000000000E+00 -0.74505805969E-08  0.93827000000E+00  0.93827000000E+00 0. -1.
     999902    2    1    2    0    0  0.16419902072E-01  0.22869480026E-02 -0.16197428181E-01  0.10207524247E+01  0.10204892516E+01 0.  0.
     999903    2    3    3    0    0  0.46010542037E-01  0.99584754509E-01  0.65717409843E-01  0.13111625764E+00  0.28958621379E-01 0.  0.
         14    1    1    2    0    0 -0.16419902072E-01 -0.22869480026E-02  0.16197428181E-01  0.23177575259E-01  0.00000000000E+00 0.  1.
     999901    1    3    3    0    0 -0.29590639965E-01 -0.97297806506E-01 -0.81914838024E-01  0.88963616710E+00  0.88000000000E+00 0. -1.
        -11    1    4    4    0    0  0.26360594478E-01  0.65962137375E-01  0.57310504141E-01  0.91272337070E-01  0.51100000000E-03 0. -1.
         11    1    4    4    0    0  0.19649947558E-01  0.33622617133E-01  0.84069057020E-02  0.39843920570E-01  0.51100000000E-03 0.  1.
</event>
<event>
 8    1  0.1078274E+005  0.1043930E+01  0.7957747E-01            NaN
         13   -1    0    0    0    0  0.00000000000E+00  0.00000000000E+00  0.74505805969E-08  0.10566000000E+00  0.10566000000E+00 0.  1.
     999900   -1    0    0    0    0 -0.00000000000E+00 -0.00000000000E+00 -0.74505805969E-08  0.93827000000E+00  0.93827000000E+00 0.  1.
     999902    2    1    2    0    0 -0.57362275705E-03 -0.16074284379E-02 -0.23388437348E-01  0.10204793738E+01  0.10202098904E+01 0.  0.
     999903    2    3    3    0    0 -0.10348916907E+00  0.72717265402E-01 -0.29421590584E-01  0.13134936711E+00  0.19728594640E-01 0.  0.
         14    1    1    2    0    0  0.57362275705E-03  0.16074284379E-02  0.23388437348E-01  0.23450626235E-01  0.00000000000E+00 0.  1.
     999901    1    3    3    0    0  0.10291554631E+00 -0.74324693840E-01  0.60331532365E-02  0.88913000665E+00  0.88000000000E+00 0.  1.
        -11    1    4    4    0    0 -0.54605542427E-01  0.31635254677E-01 -0.62467135645E-02  0.63417956082E-01  0.51100000000E-03 0.  1.
         11    1    4    4    0    0 -0.48883626643E-01  0.41082010725E-01 -0.23174877020E-01  0.67931411033E-01  0.51100000000E-03 0. -1.
</event>
<event>
 8    1  0.1078274E+005  0.1043930E+01  0.7957747E-01            NaN
         13   -1    0    0    0    0  0.00000000000E+00  0.00000000000E+00  0.74505805969E-08  0.10566000000E+00  0.10566000000E+00 0. -1.
     999900   -1    0    0    0    0 -0.00000000000E+00 -0.00000000000E+00 -0.74505805969E-08  0.93827000000E+00  0.93827000000E+00 0. -1.
     999902    2    1    2    0    0  0.18270132920E-01 -0.76758985278E-02  0.12902965451E-01  0.10202825119E+01  0.10200084316E+01 0.  0.
     999903    2    3    3    0    0 -0.53313667754E-02  0.12458410851E+00 -0.28537843508E-01  0.12912198715E+00  0.17562900935E-01 0.  0.
         14    1    1    2    0    0 -0.18270132920E-01  0.76758985278E-02 -0.12902965451E-01  0.23647488082E-01  0.00000000000E+00 0.  1.
     999901    1    3    3    0    0  0.23601499696E-01 -0.13226000704E+00  0.41440808959E-01  0.89116052476E+00  0.88000000000E+00 0.  1.
        -11    1    4    4    0    0 -0.23407864606E-02  0.76471952574E-01 -0.87390413368E-02  0.77006952778E-01  0.51100000000E-03 0.  1.
         11    1    4    4    0    0 -0.29905803148E-02  0.48112155938E-01 -0.19798802171E-01  0.52115034377E-01  0.51100000000E-03 0. -1.
</event>
<event>
 8    1  0.1078274E+005  0.1043930E+01  0.7957747E-01            NaN
         13   -1    0    0    0    0  0.00000000000E+00  0.00000000000E+00  0.74505805969E-08  0.10566000000E+00  0.10566000000E+00 0.  1.
     999900   -1    0    0    0    0 -0.00000000000E+00 -0.00000000000E+00 -0.74505805969E-08  0.93827000000E+00  0.93827000000E+00 0. -1.
     999902    2    1    2    0    0  0.22818778881E-01 -0.46827717100E-02 -0.63044570924E-02  0.10197976317E+01  0.10195120590E+01 0.  0.
     999903    2    3    3    0    0  0.17323372812E-01  0.10940051154E+00  0.64119234987E-01  0.12962647321E+00  0.20571219969E-01 0.  0.
         14    1    1    2    0    0 -0.22818778881E-01  0.46827717100E-02  0.63044570924E-02  0.24132368299E-01  0.00000000000E+00 0.  1.
     999901    1    3    3    0    0  0.54954060689E-02 -0.11408328325E+00 -0.70423692080E-01  0.89017115849E+00  0.88000000000E+00 0.  1.
        -11    1    4    4    0    0  0.10519570549E-01  0.37251880691E-01  0.12605148643E-01  0.40712588629E-01  0.51100000000E-03 0.  1.
         11    1    4    4    0    0  0.68038022626E-02  0.72148630847E-01  0.51514086344E-01  0.88913884580E-01  0.51100000000E-03 0. -1.
</event>
<event>
 8    1  0.1078274E+005  0.1043930E+01  0.7957747E-01            NaN
         13   -1    0    0    0    0  0.00000000000E+00  0.00000000000E+00  0.74505805969E-08  0.10566000000E+00  0.10566000000E+00 0.  1.
     999900   -1    0    0    0    0 -0.00000000000E+00 -0.00000000000E+00 -0.74505805969E-08  0.93827000000E+00  0.93827000000E+00 0.  1.
     999902    2    1    2    0    0  0.70805461738E-02 -0.15903437904E-01  0.17024891900E-01  0.10195804535E+01  0.10192896550E+01 0.  0.
     999903    2    3    3    0    0  0.12597467916E+00 -0.20780387862E-02  0.31306816711E-01  0.13136261427E+00  0.20051972973E-01 0.  0.
         14    1    1    2    0    0 -0.70805461738E-02  0.15903437904E-01 -0.17024891900E-01  0.24349546515E-01  0.00000000000E+00 0. -1.
     999901    1    3    3    0    0 -0.11889413299E+00 -0.13825399118E-01 -0.14281924811E-01  0.88821783921E+00  0.88000000000E+00 0.  1.
        -11    1    4    4    0    0  0.66258298382E-01 -0.83501150591E-02  0.23558527108E-01  0.70817736807E-01  0.51100000000E-03 0. -1.
         11    1    4    4    0    0  0.59716380782E-01  0.62720762730E-02  0.77482896035E-02  0.60544877465E-01  0.51100000000E-03 0.  1.
</event>
<event>
 8    1  0.1078274E+005  0.1043930E+01  0.7957747E-01            NaN
         13   -1    0    0    0    0  0.00000000000E+00  0.00000000000E+00  0.74505805969E-08  0.10566000000E+00  0.10566000000E+00 0.  1.
     999900   -1    0    0    0    0 -0.00000000000E+00 -0.00000000000E+00 -0.74505805969E-08  0.93827000000E+00  0.93827000000E+00 0.  1.
     999902    2    1    2    0    0 -0.21715966567E-01  0.50941489417E-02 -0.84499470551E-02  0.10200776382E+01  0.10197987315E+01 0.  0.
     999903    2    3    3    0    0  0.73773158957E-01 -0.55738151017E-02 -0.10445525331E+00  0.12965695260E+00  0.20651368378E-01 0.  0.
         14    1    1    2    0    0  0.21715966567E-01 -0.50941489417E-02  0.84499470551E-02  0.23852361783E-01  0.00000000000E+00 0.  1.
     999901    1    3    3    0    0 -0.95489125524E-01  0.10667964043E-01  0.96005306254E-01  0.89042068562E+00  0.88000000000E+00 0. -1.
        -11    1    4    4    0    0  0.32141577702E-01 -0.11988982332E-01 -0.40556413319E-01  0.53121563388E-01  0.51100000000E-03 0.  1.
         11    1    4    4    0    0  0.41631581255E-01  0.64151672307E-02 -0.63898839990E-01  0.76535389210E-01  0.51100000000E-03 0. -1.
</event>
<event>
 8    1  0.1078274E+005  0.1043930E+01  0.7957747E-01            NaN
         13   -1    0    0    0    0  0.00000000000E+00  0.00000000000E+00  0.74505805969E-08  0.10566000000E+00  0.10566000000E+00 0. -1.
     999900   -1    0    0    0    0 -0.00000000000E+00 -0.00000000000E+00 -0.74505805969E-08  0.93827000000E+00  0.93827000000E+00 0.  1.
     999902    2    1    2    0    0  0.10569865706E-01 -0.48925561476E-03  0.78355281805E-02  0.10307634920E+01  0.10306793970E+01 0.  0.
     999903    2    3    3    0    0 -0.62650069762E-01 -0.12134596180E+00  0.19373410596E-01  0.13941584648E+00  0.20287324237E-01 0.  0.
         14    1    1    2    0    0 -0.10569865706E-01  0.48925561476E-03 -0.78355281805E-02  0.13166508040E-01  0.00000000000E+00 0. -1.
     999901    1    3    3    0    0  0.73219935467E-01  0.12085670618E+00 -0.11537882415E-01  0.89134764548E+00  0.88000000000E+00 0. -1.
        -11    1    4    4    0    0 -0.39308788854E-01 -0.95143021602E-01  0.15559706293E-01  0.10411407696E+00  0.51100000000E-03 0.  1.
         11    1    4    4    0    0 -0.23341280907E-01 -0.26202940196E-01  0.38137043030E-02  0.35301769514E-01  0.51100000000E-03 0. -1.
</event>
<event>
 8    1  0.1078274E+005  0.1043930E+01  0.7957747E-01            NaN
         13   -1    0    0    0    0  0.00000000000E+00  0.00000000000E+00  0.74505805969E-08  0.10566000000E+00  0.10566000000E+00 0. -1.
     999900   -1    0    0    0    0 -0.00000000000E+00 -0.00000000000E+00 -0.74505805969E-08  0.93827000000E+00  0.93827000000E+00 0. -1.
     999902    2    1    2    0    0  0.17041351481E-01  0.84218777206E-02  0.14082520222E-01  0.10202730124E+01  0.10199987092E+01 0.  0.
     999903    2    3    3    0    0 -0.99129304862E-01 -0.77096107782E-01  0.10966843964E-02  0.12843357668E+00  0.26898921634E-01 0.  0.
         14    1    1    2    0    0 -0.17041351481E-01 -0.84218777206E-02 -0.14082520222E-01  0.23656987560E-01  0.00000000000E+00 0. -1.
     999901    1    3    3    0    0  0.11617065634E+00  0.85517985503E-01  0.12985835826E-01  0.89183943576E+00  0.88000000000E+00 0.  1.
        -11    1    4    4    0    0 -0.20452354497E-01 -0.12057617744E-01  0.10411160104E-01  0.25929487574E-01  0.51100000000E-03 0. -1.
         11    1    4    4    0    0 -0.78676950366E-01 -0.65038490038E-01 -0.93144757077E-02  0.10250408911E+00  0.51100000000E-03 0.  1.
</event>
<event>
 8    1  0.1078274E+005  0.1043930E+01  0.7957747E-01            NaN
         13   -1    0    0    0    0  0.00000000000E+00  0.00000000000E+00  0.74505805969E-08  0.10566000000E+00  0.10566000000E+00 0. -1.
     999900   -1    0    0    0    0 -0.00000000000E+00 -0.00000000000E+00 -0.74505805969E-08  0.93827000000E+00  0.93827000000E+00 0.  1.
     999902    2    1    2    0    0 -0.10923973590E-01  0.20403379285E-01  0.50879799967E-02  0.10202336158E+01  0.10199583874E+01 0.  0.
     999903    2    3    3    0    0 -0.10735766429E+00 -0.23654986146E-01 -0.68129955801E-01  0.13085098586E+00  0.19876196055E-01 0.  0.
         14    1    1    2    0    0  0.10923973590E-01 -0.20403379285E-01 -0.50879799967E-02  0.23696384233E-01  0.00000000000E+00 0. -1.
     999901    1    3    3    0    0  0.96433690704E-01  0.44058365431E-01  0.73217935798E-01  0.88938262991E+00  0.88000000000E+00 0. -1.
        -11    1    4    4    0    0 -0.63845515962E-01 -0.82713231566E-02 -0.48920179011E-01  0.80858578584E-01  0.51100000000E-03 0. -1.
         11    1    4    4    0    0 -0.43512148331E-01 -0.15383662989E-01 -0.19209776791E-01  0.49992407271E-01  0.51100000000E-03 0.  1.
</event>
<event>
 8    1  0.1078274E+005  0.1043930E+01  0.7957747E-01            NaN
         13   -1    0    0    0    0  0.00000000000E+00  0.00000000000E+00  0.74505805969E-08  0.10566000000E+00  0.10566000000E+00 0.  1.
     999900   -1    0    0    0    0 -0.00000000000E+00 -0.00000000000E+00 -0.74505805969E-08  0.93827000000E+00  0.93827000000E+00 0. -1.
     999902    2    1    2    0    0 -0.63725605640E-03 -0.21136034076E-01  0.86493749656E-02  0.10210837811E+01  0.10208281629E+01 0.  0.
     999903    2    3    3    0    0 -0.20673198337E-01 -0.11712492167E+00  0.59157362336E-01  0.13419801486E+00  0.19075777027E-01 0.  0.
         14    1    1    2    0    0  0.63725605640E-03  0.21136034076E-01 -0.86493749656E-02  0.22846218922E-01  0.00000000000E+00 0. -1.
     999901    1    3    3    0    0  0.20035942281E-01  0.95988887594E-01 -0.50507987371E-01  0.88688576621E+00  0.88000000000E+00 0. -1.
        -11    1    4    4    0    0 -0.74508364250E-02 -0.88903522042E-01  0.41830923147E-01  0.98536482824E-01  0.51100000000E-03 0.  1.
         11    1    4    4    0    0 -0.13222361912E-01 -0.28221399628E-01  0.17326439189E-01  0.35661532040E-01  0.51100000000E-03 0. -1.
</event>
<event>
 8    1  0.1078274E+005  0.1043930E+01  0.7957747E-01            NaN
         13   -1    0    0    0    0  0.00000000000E+00  0.00000000000E+00  0.74505805969E-08  0.10566000000E+00  0.10566000000E+00 0. -1.
     999900   -1    0    0    0    0 -0.00000000000E+00 -0.00000000000E+00 -0.74505805969E-08  0.93827000000E+00  0.93827000000E+00 0. -1.
     999902    2    1    2    0    0  0.22400436717E-01 -0.38134595888E-02  0.42512819709E-02  0.10208130054E+01  0.10205512220E+01 0.  0.
     999903    2    3    3    0    0  0.11214727247E+00  0.68413705520E-01 -0.90780295142E-02  0.13320446084E+00  0.20089100039E-01 0.  0.
         14    1    1    2    0    0 -0.22400436717E-01  0.38134595888E-02 -0.42512819709E-02  0.23116994561E-01  0.00000000000E+00 0. -1.
     999901    1    3    3    0    0 -0.89746835756E-01 -0.72227165109E-01  0.13329311485E-01  0.88760854460E+00  0.88000000000E+00 0. -1.
        -11    1    4    4    0    0  0.68670297546E-01  0.43329815442E-01 -0.15284797719E-01  0.82625473273E-01  0.51100000000E-03 0. -1.
         11    1    4    4    0    0  0.43476974927E-01  0.25083890078E-01  0.62067682045E-02  0.50578987562E-01  0.51100000000E-03 0.  1.
</event>
<event>
 8    1  0.1078274E+005  0.1043930E+01  0.7957747E-01            NaN
         13   -1    0    0    0    0  0.00000000000E+00  0.00000000000E+00  0.74505805969E-08  0.10566000000E+00  0.10566000000E+00 0. -1.
     999900   -1    0    0    0    0 -0.00000000000E+00 -0.00000000000E+00 -0.74505805969E-08  0.93827000000E+00  0.93827000000E+00 0. -1.
     999902    2    1    2    0    0 -0.17622655805E-01  0.79160645022E-02  0.14242616310E-01  0.10199284543E+01  0.10196460061E+01 0.  0.
     999903    2    3    3    0    0 -0.10122357585E+00 -0.61087811093E-01  0.56024344712E-01  0.13229319056E+00  0.19617035843E-01 0.  0.
         14    1    1    2    0    0  0.17622655805E-01 -0.79160645022E-02 -0.14242616310E-01  0.24001545662E-01  0.00000000000E+00 0.  1.
     999901    1    3    3    0    0  0.83600920045E-01  0.69003875595E-01 -0.41781728402E-01  0.88763526378E+00  0.88000000000E+00 0. -1.
        -11    1    4    4    0    0 -0.85361643336E-01 -0.56063085584E-01  0.41629162607E-01  0.11028566552E+00  0.51100000000E-03 0.  1.
         11    1    4    4    0    0 -0.15861932514E-01 -0.50247255088E-02  0.14395182105E-01  0.22007525040E-01  0.51100000000E-03 0. -1.
</event>
<event>
 8    1  0.1078274E+005  0.1043930E+01  0.7957747E-01            NaN
         13   -1    0    0    0    0  0.00000000000E+00  0.00000000000E+00  0.74505805969E-08  0.10566000000E+00  0.10566000000E+00 0. -1.
     999900   -1    0    0    0    0 -0.00000000000E+00 -0.00000000000E+00 -0.74505805969E-08  0.93827000000E+00  0.93827000000E+00 0. -1.
     999902    2    1    2    0    0  0.14178354936E-01  0.17435228661E-01  0.70830548694E-02  0.10203676866E+01  0.10200956000E+01 0.  0.
     999903    2    3    3    0    0  0.21119911730E-01  0.12969923253E+00 -0.22571253009E-02  0.13315935100E+00  0.21409730346E-01 0.  0.
         14    1    1    2    0    0 -0.14178354936E-01 -0.17435228661E-01 -0.70830548694E-02  0.23562313415E-01  0.00000000000E+00 0.  1.
     999901    1    3    3    0    0 -0.69415567945E-02 -0.11226400387E+00  0.93401801702E-02  0.88720833559E+00  0.88000000000E+00 0.  1.
        -11    1    4    4    0    0  0.62961691858E-02  0.81893733457E-01 -0.91021924167E-02  0.82639798848E-01  0.51100000000E-03 0. -1.
         11    1    4    4    0    0  0.14823742545E-01  0.47805499070E-01  0.68450671158E-02  0.50519552147E-01  0.51100000000E-03 0.  1.
</event>
<event>
 8    1  0.1078274E+005  0.1043930E+01  0.7957747E-01            NaN
         13   -1    0    0    0    0  0.00000000000E+00  0.00000000000E+00  0.74505805969E-08  0.10566000000E+00  0.10566000000E+00 0.  1.
     999900   -1    0    0    0    0 -0.00000000000E+00 -0.00000000000E+00 -0.74505805969E-08  0.93827000000E+00  0.93827000000E+00 0.  1.
     999902    2    1    2    0    0  0.11290430634E-01 -0.30437954545E-01 -0.51812237211E-02  0.10110546600E+01  0.10105200332E+01 0.  0.
     999903    2    3    3    0    0  0.58967215997E-01 -0.10841661170E+00  0.17781675317E-01  0.12602299867E+00  0.18284254477E-01 0.  0.
         14    1    1    2    0    0 -0.11290430634E-01  0.30437954545E-01  0.51812237211E-02  0.32875339999E-01  0.00000000000E+00 0. -1.
     999901    1    3    3    0    0 -0.47676785363E-01  0.77978657150E-01 -0.22962899038E-01  0.88503166134E+00  0.88000000000E+00 0. -1.
        -11    1    4    4    0    0  0.38846779124E-01 -0.76451306920E-01  0.41225855511E-02  0.85855293434E-01  0.51100000000E-03 0.  1.
         11    1    4    4    0    0  0.20120436873E-01 -0.31965304776E-01  0.13659089766E-01  0.40167705232E-01  0.51100000000E-03 0. -1.
</event>
<event>
 8    1  0.1078274E+005  0.1043930E+01  0.7957747E-01            NaN
         13   -1    0    0    0    0  0.00000000000E+00  0.00000000000E+00  0.74505805969E-08  0.10566000000E+00  0.10566000000E+00 0. -1.
     999900   -1    0    0    0    0 -0.00000000000E+00 -0.00000000000E+00 -0.74505805969E-08  0.93827000000E+00  0.93827000000E+00 0. -1.
     999902    2    1    2    0    0 -0.21057305445E-01 -0.87731659586E-02 -0.64351897892E-02  0.10202278857E+01  0.10199525227E+01 0.  0.
     999903    2    3    3    0    0  0.11084659082E+00 -0.23207500041E-01 -0.58353557108E-01  0.12876700340E+00  0.18714934725E-01 0.  0.
         14    1    1    2    0    0  0.21057305445E-01  0.87731659586E-02  0.64351897892E-02  0.23702114276E-01  0.00000000000E+00 0.  1.
     999901    1    3    3    0    0 -0.13190389627E+00  0.14434334082E-01  0.51918367319E-01  0.89146088233E+00  0.88000000000E+00 0.  1.
        -11    1    4    4    0    0  0.88193595374E-01 -0.13889188842E-01 -0.38485444919E-01  0.97223507565E-01  0.51100000000E-03 0.  1.
         11    1    4    4    0    0  0.22652995450E-01 -0.93183111992E-02 -0.19868112189E-01  0.31543495834E-01  0.51100000000E-03 0. -1.
</event>
<event>
 8    1  0.1078274E+005  0.1043930E+01  0.7957747E-01            NaN
         13   -1    0    0    0    0  0.00000000000E+00  0.00000000000E+00  0.74505805969E-08  0.10566000000E+00  0.10566000000E+00 0. -1.
     999900   -1    0    0    0    0 -0.00000000000E+00 -0.00000000000E+00 -0.74505805969E-08  0.93827000000E+00  0.93827000000E+00 0.  1.
     999902    2    1    2    0    0 -0.23775842455E-01 -0.13547926449E-01 -0.50719973946E-02  0.10160990433E+01  0.10157178267E+01 0.  0.
     999903    2    3    3    0    0  0.11944212217E+00 -0.10101873957E-01  0.22719229508E-01  0.12408132317E+00  0.22617315548E-01 0.  0.
         14    1    1    2    0    0  0.23775842455E-01  0.13547926449E-01  0.50719973946E-02  0.27830956740E-01  0.00000000000E+00 0.  1.
     999901    1    3    3    0    0 -0.14321796463E+00 -0.34460524919E-02 -0.27791226903E-01  0.89201772009E+00  0.88000000000E+00 0.  1.
        -11    1    4    4    0    0  0.42508463346E-01  0.50804099762E-02  0.14919036957E-02  0.42840015397E-01  0.51100000000E-03 0.  1.
         11    1    4    4    0    0  0.76933658826E-01 -0.15182283933E-01  0.21227325812E-01  0.81241307769E-01  0.51100000000E-03 0. -1.
</event>
<event>
 8    1  0.1078274E+005  0.1043930E+01  0.7957747E-01            NaN
         13   -1    0    0    0    0  0.00000000000E+00  0.00000000000E+00  0.74505805969E-08  0.10566000000E+00  0.10566000000E+00 0. -1.
     999900   -1    0    0    0    0 -0.00000000000E+00 -0.00000000000E+00 -0.74505805969E-08  0.93827000000E+00  0.93827000000E+00 0.  1.
     999902    2    1    2    0    0 -0.14487057885E-01 -0.17074327460E-01 -0.21323833071E-01  0.10130089172E+01  0.10125368897E+01 0.  0.
     999903    2    3    3    0    0  0.33018046322E-01  0.11426313267E+00  0.19650967731E-01  0.12105309001E+00  0.11019763986E-01 0.  0.
         14    1    1    2    0    0  0.14487057885E-01  0.17074327460E-01  0.21323833071E-01  0.30921082795E-01  0.00000000000E+00 0.  1.
     999901    1    3    3    0    0 -0.47505104206E-01 -0.13133746013E+00 -0.40974800802E-01  0.89195582719E+00  0.88000000000E+00 0. -1.
        -11    1    4    4    0    0  0.29963800323E-01  0.99675092762E-01  0.13633973135E-01  0.10497190001E+00  0.51100000000E-03 0.  1.
         11    1    4    4    0    0  0.30542459986E-02  0.14588039910E-01  0.60169945961E-02  0.16081190006E-01  0.51100000000E-03 0. -1.
</event>
<event>
 8    1  0.1078274E+005  0.1043930E+01  0.7957747E-01            NaN
         13   -1    0    0    0    0  0.00000000000E+00  0.00000000000E+00  0.74505805969E-08  0.10566000000E+00  0.10566000000E+00 0.  1.
     999900   -1    0    0    0    0 -0.00000000000E+00 -0.00000000000E+00 -0.74505805969E-08  0.93827000000E+00  0.93827000000E+00 0.  1.
     999902    2    1    2    0    0 -0.15189750891E-01  0.28705514658E-02 -0.18396048102E-01  0.10199012010E+01  0.10196181033E+01 0.  0.
     999903    2    3    3    0    0 -0.73538175694E-02  0.77180951029E-01 -0.10535513123E+00  0.13246369923E+00  0.20879418109E-01 0.  0.
         14    1    1    2    0    0  0.15189750891E-01 -0.28705514658E-02  0.18396048102E-01  0.24028799046E-01  0.00000000000E+00 0.  1.
     999901    1    3    3    0    0 -0.78359333212E-02 -0.74310399563E-01  0.86959083133E-01  0.88743750173E+00  0.88000000000E+00 0. -1.
        -11    1    4    4    0    0 -0.10907438732E-01  0.18843232169E-01 -0.31032317725E-01  0.37911811915E-01  0.51100000000E-03 0.  1.
         11    1    4    4    0    0  0.35536211623E-02  0.58337718860E-01 -0.74322813509E-01  0.94551887311E-01  0.51100000000E-03 0. -1.
</event>
<event>
 8    1  0.1078274E+005  0.1043930E+01  0.7957747E-01            NaN
         13   -1    0    0    0    0  0.00000000000E+00  0.00000000000E+00  0.74505805969E-08  0.10566000000E+00  0.10566000000E+00 0. -1.
     999900   -1    0    0    0    0 -0.00000000000E+00 -0.00000000000E+00 -0.74505805969E-08  0.93827000000E+00  0.93827000000E+00 0.  1.
     999902    2    1    2    0    0  0.22760369053E-01 -0.67493060192E-02 -0.49736006084E-02  0.10196746040E+01  0.10193860769E+01 0.  0.
     999903    2    3    3    0    0  0.79643188388E-02 -0.75871832103E-01 -0.10469419945E+00  0.13122593102E+00  0.20961972542E-01 0.  0.
         14    1    1    2    0    0 -0.22760369053E-01  0.67493060192E-02  0.49736006084E-02  0.24255395980E-01  0.00000000000E+00 0. -1.
     999901    1    3    3    0    0  0.14796050214E-01  0.69122526084E-01  0.99720598844E-01  0.88844867300E+00  0.88000000000E+00 0. -1.
        -11    1    4    4    0    0 -0.36002500195E-03 -0.99069364489E-02 -0.28080476578E-01  0.29783406348E-01  0.51100000000E-03 0.  1.
         11    1    4    4    0    0  0.83243438407E-02 -0.65964895654E-01 -0.76613722874E-01  0.10144252468E+00  0.51100000000E-03 0. -1.
</event>
<event>
 8    1  0.1078274E+005  0.1043930E+01  0.7957747E-01            NaN
         13   -1    0    0    0    0  0.00000000000E+00  0.00000000000E+00  0.74505805969E-08  0.10566000000E+00  0.10566000000E+00 0.  1.
     999900   -1    0    0    0    0 -0.00000000000E+00 -0.00000000000E+00 -0.74505805969E-08  0.93827000000E+00  0.93827000000E+00 0.  1.
     999902    2    1    2    0    0 -0.29267381035E-02 -0.16595207491E-01 -0.16248415151E-01  0.10205210764E+01  0.10202525617E+01 0.  0.
     999903    2    3    3    0    0 -0.25550196021E-01 -0.12579386966E+00  0.26146955167E-01  0.13247066340E+00  0.19695259260E-01 0.  0.
         14    1    1    2    0    0  0.29267381035E-02  0.16595207491E-01  0.16248415151E-01  0.23408923565E-01  0.00000000000E+00 0.  1.
     999901    1    3    3    0    0  0.22623457918E-01  0.10919866217E+00 -0.42395370317E-01  0.88805041303E+00  0.88000000000E+00 0.  1.
        -11    1    4    4    0    0 -0.83970242385E-02 -0.36491488716E-01 -0.13350178913E-02  0.37472418637E-01  0.51100000000E-03 0. -1.
         11    1    4    4    0    0 -0.17153171783E-01 -0.89302380940E-01  0.27481973058E-01  0.94998244762E-01  0.51100000000E-03 0.  1.
</event>
<event>
 8    1  0.1078274E+005  0.1043930E+01  0.7957747E-01            NaN
         13   -1    0    0    0    0  0.00000000000E+00  0.00000000000E+00  0.74505805969E-08  0.10566000000E+00  0.10566000000E+00 0. -1.
     999900   -1    0    0    0    0 -0.00000000000E+00 -0.00000000000E+00 -0.74505805969E-08  0.93827000000E+00  0.93827000000E+00 0. -1.
     999902    2    1    2    0    0  0.13121788849E-01  0.12696886734E-01  0.20401944329E-01  0.10165505988E+01  0.10161818186E+01 0.  0.
     999903    2    3    3    0    0 -0.28546670633E-01  0.11407214641E+00 -0.44675413268E-01  0.12736655363E+00  0.19974469731E-01 0.  0.
         14    1    1    2    0    0 -0.13121788849E-01 -0.12696886734E-01 -0.20401944329E-01  0.27379401157E-01  0.00000000000E+00 0.  1.
     999901    1    3    3    0    0  0.41668459482E-01 -0.10137525968E+00  0.65077357596E-01  0.88918404521E+00  0.88000000000E+00 0. -1.
        -11    1    4    4    0    0 -0.93874043878E-02  0.75862948946E-01 -0.30940044448E-01  0.82467313861E-01  0.51100000000E-03 0.  1.
         11    1    4    4    0    0 -0.19159266245E-01  0.38209197468E-01 -0.13735368819E-01  0.44899239768E-01  0.51100000000E-03 0. -1.
</event>
<event>
 8    1  0.1078274E+005  0.1043930E+01  0.7957747E-01            NaN
         13   -1    0    0    0    0  0.00000000000E+00  0.00000000000E+00  0.74505805969E-08  0.10566000000E+00  0.10566000000E+00 0.  1.
     999900   -1    0    0    0    0 -0.00000000000E+00 -0.00000000000E+00 -0.74505805969E-08  0.93827000000E+00  0.93827000000E+00 0. -1.
     999902    2    1    2    0    0  0.12981613686E-01  0.19914154502E-01  0.48537629369E-02  0.10196677895E+01  0.10193790983E+01 0.  0.
     999903    2    3    3    0    0 -0.33761587161E-01 -0.10775171654E+00 -0.53693248527E-01  0.12730505272E+00  0.23944400724E-01 0.  0.
         14    1    1    2    0    0 -0.12981613686E-01 -0.19914154502E-01 -0.48537629369E-02  0.24262210495E-01  0.00000000000E+00 0. -1.
     999901    1    3    3    0    0  0.46743200847E-01  0.12766587104E+00  0.58547011464E-01  0.89236273679E+00  0.88000000000E+00 0.  1.
        -11    1    4    4    0    0 -0.23346992748E-01 -0.81867933338E-01 -0.51070706575E-01  0.99276980063E-01  0.51100000000E-03 0. -1.
         11    1    4    4    0    0 -0.10414594413E-01 -0.25883783199E-01 -0.26225419515E-02  0.28028072656E-01  0.51100000000E-03 0.  1.
</event>
<event>
 8    1  0.1078274E+005  0.1043930E+01  0.7957747E-01            NaN
         13   -1    0    0    0    0  0.00000000000E+00  0.00000000000E+00  0.74505805969E-08  0.10566000000E+00  0.10566000000E+00 0.  1.
     999900   -1    0    0    0    0 -0.00000000000E+00 -0.00000000000E+00 -0.74505805969E-08  0.93827000000E+00  0.93827000000E+00 0.  1.
     999902    2    1    2    0    0 -0.21977439801E-01  0.15171206086E-02 -0.19970065634E-02  0.10218099288E+01  0.10215704738E+01 0.  0.
     999903    2    3    3    0    0  0.11965128338E+00 -0.20968924466E-02 -0.44982483871E-01  0.12944256745E+00  0.20276287664E-01 0.  0.
         14    1    1    2    0    0  0.21977439801E-01 -0.15171206086E-02  0.19970065634E-02  0.22120071210E-01  0.00000000000E+00 0.  1.
     999901    1    3    3    0    0 -0.14162872318E+00  0.36140130553E-02  0.42985477308E-01  0.89236736134E+00  0.88000000000E+00 0. -1.
        -11    1    4    4    0    0  0.68916345411E-01  0.85992698820E-02 -0.27923748567E-01  0.74855907999E-01  0.51100000000E-03 0.  1.
         11    1    4    4    0    0  0.50734937968E-01 -0.10696162329E-01 -0.17058735305E-01  0.54586659454E-01  0.51100000000E-03 0. -1.
</event>
<event>
 8    1  0.1078274E+005  0.1043930E+01  0.7957747E-01            NaN
         13   -1    0    0    0    0  0.00000000000E+00  0.00000000000E+00  0.74505805969E-08  0.10566000000E+00  0.10566000000E+00 0.  1.
     999900   -1    0    0    0    0 -0.00000000000E+00 -0.00000000000E+00 -0.74505805969E-08  0.93827000000E+00  0.93827000000E+00 0. -1.
     999902    2    1    2    0    0 -0.67026167987E-02  0.24053972623E-01  0.78066869444E-02  0.10177677556E+01  0.10174314431E+01 0.  0.
     999903    2    3    3    0    0 -0.55035809754E-01  0.10369421538E+00  0.55986539889E-01  0.13153981425E+00  0.19667217037E-01 0.  0.
         14    1    1    2    0    0  0.67026167987E-02 -0.24053972623E-01 -0.78066869444E-02  0.26162244398E-01  0.00000000000E+00 0. -1.
     999901    1    3    3    0    0  0.48333192955E-01 -0.79640242753E-01 -0.48179852944E-01  0.88622794135E+00  0.88000000000E+00 0.  1.
        -11    1    4    4    0    0 -0.19323495688E-01  0.44554868381E-01  0.33043215826E-01  0.58742225146E-01  0.51100000000E-03 0. -1.
         11    1    4    4    0    0 -0.35712314066E-01  0.59139346995E-01  0.22943324063E-01  0.72797589102E-01  0.51100000000E-03 0.  1.
</event>
<event>
 8    1  0.1078274E+005  0.1043930E+01  0.7957747E-01            NaN
         13   -1    0    0    0    0  0.00000000000E+00  0.00000000000E+00  0.74505805969E-08  0.10566000000E+00  0.10566000000E+00 0.  1.
     999900   -1    0    0    0    0 -0.00000000000E+00 -0.00000000000E+00 -0.74505805969E-08  0.93827000000E+00  0.93827000000E+00 0. -1.
     999902    2    1    2    0    0  0.31107002661E-02 -0.22435826130E-01 -0.79016740560E-02  0.10199408524E+01  0.10196586994E+01 0.  0.
     999903    2    3    3    0    0 -0.27856159285E-01 -0.77100127807E-02 -0.12667924937E+00  0.13129924388E+00  0.18879865376E-01 0.  0.
         14    1    1    2    0    0 -0.31107002661E-02  0.22435826130E-01  0.79016740560E-02  0.23989147612E-01  0.00000000000E+00 0.  1.
     999901    1    3    3    0    0  0.30966859551E-01 -0.14725813349E-01  0.11877757531E+00  0.88864160850E+00  0.88000000000E+00 0.  1.
        -11    1    4    4    0    0 -0.16821320409E-01 -0.13925810361E-01 -0.79162871941E-01  0.82121290964E-01  0.51100000000E-03 0.  1.
         11    1    4    4    0    0 -0.11034838877E-01  0.62157975808E-02 -0.47516377426E-01  0.49177952919E-01  0.51100000000E-03 0. -1.
</event>
<event>
 8    1  0.1078274E+005  0.1043930E+01  0.7957747E-01            NaN
         13   -1    0    0    0    0  0.00000000000E+00  0.00000000000E+00  0.74505805969E-08  0.10566000000E+00  0.10566000000E+00 0. -1.
     999900   -1    0    0    0    0 -0.00000000000E+00 -0.00000000000E+00 -0.74505805969E-08  0.93827000000E+00  0.93827000000E+00 0. -1.
     999902    2    1    2    0    0 -0.26759664058E-01  0.60438599135E-02  0.11931409764E-01  0.10140140109E+01  0.10135726160E+01 0.  0.
     999903    2    3    3    0    0  0.73531063754E-04 -0.10595700869E+00  0.63149136024E-01  0.12503286917E+00  0.20457563256E-01 0.  0.
         14    1    1    2    0    0  0.26759664058E-01 -0.60438599135E-02 -0.11931409764E-01  0.29915989071E-01  0.00000000000E+00 0.  1.
     999901    1    3    3    0    0 -0.26833195121E-01  0.11200086860E+00 -0.51217726260E-01  0.88898114176E+00  0.88000000000E+00 0. -1.
        -11    1    4    4    0    0 -0.87933830959E-02 -0.25737007524E-01  0.16171086041E-01  0.31646204943E-01  0.51100000000E-03 0.  1.
         11    1    4    4    0    0  0.88669141597E-02 -0.80220001163E-01  0.46978049983E-01  0.93386664222E-01  0.51100000000E-03 0. -1.
</event>
<event>
 7    1  0.1078274E+005  0.1043930E+01  0.7957747E-01            NaN
         13   -1    0    0    0    0  0.00000000000E+00  0.00000000000E+00  0.74505805969E-08  0.10566000000E+00  0.10566000000E+00 0.  1.
     999900   -1    0    0    0    0 -0.00000000000E+00 -0.00000000000E+00 -0.74505805969E-08  0.93827000000E+00  0.93827000000E+00 0. -1.
     999903    2    1    2    0    0 -0.44816850575E-01  0.10100403054E+00 -0.56743865087E-02  0.11234820313E+00  0.19482191947E-01 0.  0.
         14    1    1    2    0    0  0.34401505894E-01  0.21024530384E-01 -0.14570877963E-01  0.42869627596E-01  0.00000000000E+00 0. -1.
     999901    1    1    2    0    0  0.10415344681E-01 -0.12202856092E+00  0.20245264471E-01  0.88871216928E+00  0.88000000000E+00 0.  1.
        -11    1    3    3    0    0 -0.18057808961E-01  0.37562179350E-01 -0.11523215617E-01  0.43244044690E-01  0.51100000000E-03 0.  1.
         11    1    3    3    0    0 -0.26759041614E-01  0.63441851189E-01  0.58488291080E-02  0.69104158437E-01  0.51100000000E-03 0. -1.
</event>
<event>
 8    1  0.1078274E+005  0.1043930E+01  0.7957747E-01            NaN
         13   -1    0    0    0    0  0.00000000000E+00  0.00000000000E+00  0.74505805969E-08  0.10566000000E+00  0.10566000000E+00 0.  1.
     999900   -1    0    0    0    0 -0.00000000000E+00 -0.00000000000E+00 -0.74505805969E-08  0.93827000000E+00  0.93827000000E+00 0.  1.
     999902    2    1    2    0    0  0.18705019265E-01  0.76511795349E-02 -0.12691644749E-01  0.10200658817E+01  0.10197866968E+01 0.  0.
     999903    2    3    3    0    0 -0.12739696309E-01 -0.69683021679E-01 -0.10842270671E+00  0.13094621317E+00  0.19323665282E-01 0.  0.
         14    1    1    2    0    0 -0.18705019265E-01 -0.76511795349E-02  0.12691644749E-01  0.23864118262E-01  0.00000000000E+00 0.  1.
     999901    1    3    3    0    0  0.31444715574E-01  0.77334201214E-01  0.95731061962E-01  0.88911966857E+00  0.88000000000E+00 0. -1.
        -11    1    4    4    0    0 -0.63327908503E-02 -0.17431366611E-01 -0.15628734766E-01  0.24258508884E-01  0.51100000000E-03 0.  1.
         11    1    4    4    0    0 -0.64069054585E-02 -0.52251655068E-01 -0.92793971945E-01  0.10668770428E+00  0.51100000000E-03 0. -1.
</event>
<event>
 8    1  0.1078274E+005  0.1043930E+01  0.7957747E-01            NaN
         13   -1    0    0    0    0  0.00000000000E+00  0.00000000000E+00  0.74505805969E-08  0.10566000000E+00  0.10566000000E+00 0.  1.
     999900   -1    0    0    0    0 -0.00000000000E+00 -0.00000000000E+00 -0.74505805969E-08  0.93827000000E+00  0.93827000000E+00 0. -1.
     999902    2    1    2    0    0  0.47116261409E-02  0.17358553632E-01 -0.14354230341E-01  0.10209177699E+01  0.10206583807E+01 0.  0.
     999903    2    3    3    0    0 -0.38096068967E-01 -0.15722870573E-01 -0.12497565419E+00  0.13234364312E+00  0.14050146023E-01 0.  0.
         14    1    1    2    0    0 -0.47116261409E-02 -0.17358553632E-01  0.14354230341E-01  0.23012230091E-01  0.00000000000E+00 0. -1.
     999901    1    3    3    0    0  0.42807695108E-01  0.33081424205E-01  0.11062142385E+00  0.88857412679E+00  0.88000000000E+00 0.  1.
        -11    1    4    4    0    0 -0.60189001733E-02 -0.64753948262E-02 -0.41588018413E-01  0.42520375045E-01  0.51100000000E-03 0. -1.
         11    1    4    4    0    0 -0.32077168794E-01 -0.92474757468E-02 -0.83387635778E-01  0.89823268072E-01  0.51100000000E-03 0.  1.
</event>
<event>
 8    1  0.1078274E+005  0.1043930E+01  0.7957747E-01            NaN
         13   -1    0    0    0    0  0.00000000000E+00  0.00000000000E+00  0.74505805969E-08  0.10566000000E+00  0.10566000000E+00 0. -1.
     999900   -1    0    0    0    0 -0.00000000000E+00 -0.00000000000E+00 -0.74505805969E-08  0.93827000000E+00  0.93827000000E+00 0. -1.
     999902    2    1    2    0    0 -0.11812964202E-01  0.13252163606E-01 -0.15420449873E-01  0.10204149785E+01  0.10201439957E+01 0.  0.
     999903    2    3    3    0    0 -0.52181423475E-01  0.16493462485E-01 -0.11968983616E+00  0.13333424739E+00  0.21387598921E-01 0.  0.
         14    1    1    2    0    0  0.11812964202E-01 -0.13252163606E-01  0.15420449873E-01  0.23515021534E-01  0.00000000000E+00 0. -1.
     999901    1    3    3    0    0  0.40368459272E-01 -0.32412988792E-02  0.10426938629E+00  0.88708073107E+00  0.88000000000E+00 0.  1.
        -11    1    4    4    0    0 -0.46624871194E-01  0.66260104862E-02 -0.10162033814E+00  0.11200328956E+00  0.51100000000E-03 0.  1.
         11    1    4    4    0    0 -0.55565522806E-02  0.98674519990E-02 -0.18069498021E-01  0.21330957830E-01  0.51100000000E-03 0. -1.
</event>
<event>
 8    1  0.1354594E+005  0.1043930E+01  0.7957747E-01            NaN
         13   -1    0    0    0    0  0.00000000000E+00  0.00000000000E+00  0.74505805969E-08  0.10566000000E+00  0.10566000000E+00 0. -1.
     999900   -1    0    0    0    0 -0.00000000000E+00 -0.00000000000E+00 -0.74505805969E-08  0.93827000000E+00  0.93827000000E+00 0. -1.
     999902    2    1    2    0    0 -0.71244846205E-02  0.18784866880E-01  0.12342228755E-01  0.10203511935E+01  0.10200787215E+01 0.  0.
     999903    2    3    3    0    0 -0.14197006401E-01  0.48568356031E-01 -0.11813423296E+00  0.13020447310E+00  0.20906162246E-01 0.  0.
         14    1    1    2    0    0  0.71244846205E-02 -0.18784866880E-01 -0.12342228755E-01  0.23578806489E-01  0.00000000000E+00 0. -1.
     999901    1    3    3    0    0  0.70725217804E-02 -0.29783489151E-01  0.13047646172E+00  0.89014672041E+00  0.88000000000E+00 0.  1.
        -11    1    4    4    0    0 -0.17387928943E-01  0.30399060738E-01 -0.63238022877E-01  0.72289360387E-01  0.51100000000E-03 0. -1.
         11    1    4    4    0    0  0.31909225422E-02  0.18169295293E-01 -0.54896210086E-01  0.57915112716E-01  0.51100000000E-03 0.  1.
</event>
<event>
 8    1  0.1078274E+005  0.1043930E+01  0.7957747E-01            NaN
         13   -1    0    0    0    0  0.00000000000E+00  0.00000000000E+00  0.74505805969E-08  0.10566000000E+00  0.10566000000E+00 0.  1.
     999900   -1    0    0    0    0 -0.00000000000E+00 -0.00000000000E+00 -0.74505805969E-08  0.93827000000E+00  0.93827000000E+00 0.  1.
     999902    2    1    2    0    0 -0.16094000474E-01  0.16279529203E-01 -0.89225285287E-02  0.10193606810E+01  0.10190645448E+01 0.  0.
     999903    2    3    3    0    0  0.23404711345E-03  0.12082691346E+00  0.47085839737E-01  0.13125387545E+00  0.20280673635E-01 0.  0.
         14    1    1    2    0    0  0.16094000474E-01 -0.16279529203E-01  0.89225285287E-02  0.24569319032E-01  0.00000000000E+00 0.  1.
     999901    1    3    3    0    0 -0.16328047588E-01 -0.10454738425E+00 -0.56008368266E-01  0.88810680552E+00  0.88000000000E+00 0. -1.
        -11    1    4    4    0    0 -0.71739578228E-02  0.10189061982E+00  0.38123553585E-01  0.10902674230E+00  0.51100000000E-03 0.  1.
         11    1    4    4    0    0  0.74080049362E-02  0.18936293635E-01  0.89622861524E-02  0.22227133145E-01  0.51100000000E-03 0. -1.
</event>
<event>
 8    1  0.1078274E+005  0.1043930E+01  0.7957747E-01            NaN
         13   -1    0    0    0    0  0.00000000000E+00  0.00000000000E+00  0.74505805969E-08  0.10566000000E+00  0.10566000000E+00 0. -1.
     999900   -1    0    0    0    0 -0.00000000000E+00 -0.00000000000E+00 -0.74505805969E-08  0.93827000000E+00  0.93827000000E+00 0.  1.
     999902    2    1    2    0    0  0.16538850369E-01  0.17262682019E-01  0.14453193096E-02  0.10199795781E+01  0.10196983461E+01 0.  0.
     999903    2    3    3    0    0 -0.74577120692E-01  0.10400141003E+00  0.19202639456E-01  0.13085582430E+00  0.19402710434E-01 0.  0.
         14    1    1    2    0    0 -0.16538850369E-01 -0.17262682019E-01 -0.14453193096E-02  0.23950421916E-01  0.00000000000E+00 0.  1.
     999901    1    3    3    0    0  0.91115971062E-01 -0.86738728014E-01 -0.17757320146E-01  0.88912375378E+00  0.88000000000E+00 0. -1.
        -11    1    4    4    0    0 -0.18242527801E-01  0.37952129572E-01  0.11771164204E-01  0.43726140779E-01  0.51100000000E-03 0. -1.
         11    1    4    4    0    0 -0.56334592891E-01  0.66049280461E-01  0.74314752518E-02  0.87129683524E-01  0.51100000000E-03 0.  1.
</event>
<event>
 8    1  0.1078274E+005  0.1043930E+01  0.7957747E-01            NaN
         13   -1    0    0    0    0  0.00000000000E+00  0.00000000000E+00  0.74505805969E-08  0.10566000000E+00  0.10566000000E+00 0.  1.
     999900   -1    0    0    0    0 -0.00000000000E+00 -0.00000000000E+00 -0.74505805969E-08  0.93827000000E+00  0.93827000000E+00 0. -1.
     999902    2    1    2    0    0 -0.24096441158E-01 -0.38927500330E-02  0.10072334561E-03  0.10195209418E+01  0.10192287028E+01 0.  0.
     999903    2    3    3    0    0  0.14903351337E-01 -0.57815235275E-01 -0.11351304614E+00  0.12972506244E+00  0.19459415992E-01 0.  0.
         14    1    1    2    0    0  0.24096441158E-01  0.38927500330E-02 -0.10072334561E-03  0.24409058247E-01  0.00000000000E+00 0.  1.
     999901    1    3    3    0    0 -0.38999792494E-01  0.53922485242E-01  0.11361376948E+00  0.88979587931E+00  0.88000000000E+00 0.  1.
        -11    1    4    4    0    0  0.69853257120E-02 -0.33605892310E-01 -0.83960507824E-01  0.90707104288E-01  0.51100000000E-03 0. -1.
         11    1    4    4    0    0  0.79180256245E-02 -0.24209342965E-01 -0.29552538312E-01  0.39017958151E-01  0.51100000000E-03 0.  1.
</event>
<event>
 8    1  0.1078274E+005  0.1043930E+01  0.7957747E-01            NaN
         13   -1    0    0    0    0  0.00000000000E+00  0.00000000000E+00  0.74505805969E-08  0.10566000000E+00  0.10566000000E+00 0. -1.
     999900   -1    0    0    0    0 -0.00000000000E+00 -0.00000000000E+00 -0.74505805969E-08  0.93827000000E+00  0.93827000000E+00 0. -1.
     999902    2    1    2    0    0  0.16146507069E-01  0.74670217666E-02  0.15457090936E-01  0.10203633336E+01  0.10200911453E+01 0.  0.
     999903    2    3    3    0    0  0.12875384151E+00 -0.21034766144E-01  0.14667119083E-01  0.13272974494E+00  0.19546040968E-01 0.  0.
         14    1    1    2    0    0 -0.16146507069E-01 -0.74670217666E-02 -0.15457090936E-01  0.23566666391E-01  0.00000000000E+00 0.  1.
     999901    1    3    3    0    0 -0.11260733444E+00  0.28501787910E-01  0.78997185290E-03  0.88763358867E+00  0.88000000000E+00 0.  1.
        -11    1    4    4    0    0  0.97337104348E-01 -0.24286525407E-01  0.10630583447E-01  0.10088417926E+00  0.51100000000E-03 0. -1.
         11    1    4    4    0    0  0.31416737165E-01  0.32517592630E-02  0.40365356365E-02  0.31845565678E-01  0.51100000000E-03 0.  1.
</event>
<event>
 8    1  0.1078274E+005  0.1043930E+01  0.7957747E-01            NaN
         13   -1    0    0    0    0  0.00000000000E+00  0.00000000000E+00  0.74505805969E-08  0.10566000000E+00  0.10566000000E+00 0.  1.
     999900   -1    0    0    0    0 -0.00000000000E+00 -0.00000000000E+00 -0.74505805969E-08  0.93827000000E+00  0.93827000000E+00 0.  1.
     999902    2    1    2    0    0  0.11191093517E-01 -0.11770547553E-01  0.19308362425E-01  0.10186990820E+01  0.10183865771E+01 0.  0.
     999903    2    3    3    0    0  0.43182377609E-01 -0.12228664479E+00  0.67489355814E-02  0.13112092250E+00  0.18122001973E-01 0.  0.
         14    1    1    2    0    0 -0.11191093517E-01  0.11770547553E-01 -0.19308362425E-01  0.25230918004E-01  0.00000000000E+00 0. -1.
     999901    1    3    3    0    0 -0.31991284092E-01  0.11051609724E+00  0.12559426843E-01  0.88757815949E+00  0.88000000000E+00 0.  1.
        -11    1    4    4    0    0  0.20653635934E-01 -0.76355374543E-01  0.10632053675E-01  0.79812389923E-01  0.51100000000E-03 0.  1.
         11    1    4    4    0    0  0.22528741675E-01 -0.45931270251E-01 -0.38831180935E-02  0.51308532580E-01  0.51100000000E-03 0. -1.
</event>
<event>
 8    1  0.1078274E+005  0.1043930E+01  0.7957747E-01            NaN
         13   -1    0    0    0    0  0.00000000000E+00  0.00000000000E+00  0.74505805969E-08  0.10566000000E+00  0.10566000000E+00 0.  1.
     999900   -1    0    0    0    0 -0.00000000000E+00 -0.00000000000E+00 -0.74505805969E-08  0.93827000000E+00  0.93827000000E+00 0.  1.
     999902    2    1    2    0    0 -0.57091887375E-02 -0.56168014342E-02  0.22360807830E-01  0.10201781786E+01  0.10199016458E+01 0.  0.
     999903    2    3    3    0    0  0.64006654656E-01 -0.94450878200E-01  0.63584193576E-01  0.13200524521E+00  0.19094890901E-01 0.  0.
         14    1    1    2    0    0  0.57091887375E-02  0.56168014342E-02 -0.22360807830E-01  0.23751821429E-01  0.00000000000E+00 0. -1.
     999901    1    3    3    0    0 -0.69715843393E-01  0.88834076766E-01 -0.41223385746E-01  0.88817293336E+00  0.88000000000E+00 0. -1.
        -11    1    4    4    0    0  0.32706457876E-01 -0.63602443836E-01  0.43231459577E-01  0.83571546993E-01  0.51100000000E-03 0. -1.
         11    1    4    4    0    0  0.31300196780E-01 -0.30848434364E-01  0.20352733999E-01  0.48433698221E-01  0.51100000000E-03 0.  1.
</event>
<event>
 8    1  0.1078274E+005  0.1043930E+01  0.7957747E-01            NaN
         13   -1    0    0    0    0  0.00000000000E+00  0.00000000000E+00  0.74505805969E-08  0.10566000000E+00  0.10566000000E+00 0. -1.
     999900   -1    0    0    0    0 -0.00000000000E+00 -0.00000000000E+00 -0.74505805969E-08  0.93827000000E+00  0.93827000000E+00 0.  1.
     999902    2    1    2    0    0  0.20878596629E-01 -0.94201018119E-02  0.77123189732E-02  0.10197611362E+01  0.10194746887E+01 0.  0.
     999903    2    3    3    0    0 -0.53401342670E-02 -0.10105901616E+00 -0.79524356827E-01  0.13032572531E+00  0.20475096245E-01 0.  0.
         14    1    1    2    0    0 -0.20878596629E-01  0.94201018119E-02 -0.77123189732E-02  0.24168863839E-01  0.00000000000E+00 0.  1.
     999901    1    3    3    0    0  0.26218730896E-01  0.91638914353E-01  0.87236675800E-01  0.88943541085E+00  0.88000000000E+00 0. -1.
        -11    1    4    4    0    0 -0.27431914229E-02 -0.10009127510E-01 -0.16715794275E-01  0.19682139923E-01  0.51100000000E-03 0.  1.
         11    1    4    4    0    0 -0.25969428441E-02 -0.91049888655E-01 -0.62808562552E-01  0.11064358539E+00  0.51100000000E-03 0. -1.
</event>
<event>
 8    1  0.1078274E+005  0.1043930E+01  0.7957747E-01            NaN
         13   -1    0    0    0    0  0.00000000000E+00  0.00000000000E+00  0.74505805969E-08  0.10566000000E+00  0.10566000000E+00 0.  1.
     999900   -1    0    0    0    0 -0.00000000000E+00 -0.00000000000E+00 -0.74505805969E-08  0.93827000000E+00  0.93827000000E+00 0. -1.
     999902    2    1    2    0    0 -0.16246709570E-01  0.11617306603E-01  0.10006585499E-01  0.10215905923E+01  0.10213463120E+01 0.  0.
     999903    2    3    3    0    0 -0.10213070238E+00 -0.32821832431E-01  0.77002388746E-01  0.13376215447E+00  0.21330565973E-01 0.  0.
         14    1    1    2    0    0  0.16246709570E-01 -0.11617306603E-01 -0.10006585499E-01  0.22339407734E-01  0.00000000000E+00 0. -1.
     999901    1    3    3    0    0  0.85883992808E-01  0.44439139034E-01 -0.66995803248E-01  0.88782843779E+00  0.88000000000E+00 0.  1.
        -11    1    4    4    0    0 -0.77799642560E-01 -0.32100575288E-01  0.52364004125E-01  0.99123566145E-01  0.51100000000E-03 0. -1.
         11    1    4    4    0    0 -0.24331059818E-01 -0.72125714302E-03  0.24638384621E-01  0.34638588329E-01  0.51100000000E-03 0.  1.
</event>
<event>
 7    1  0.1227744E+005  0.1043930E+01  0.7957747E-01            NaN
         13   -1    0    0    0    0  0.00000000000E+00  0.00000000000E+00  0.74505805969E-08  0.10566000000E+00  0.10566000000E+00 0.  1.
     999900   -1    0    0    0    0 -0.00000000000E+00 -0.00000000000E+00 -0.74505805969E-08  0.93827000000E+00  0.93827000000E+00 0. -1.
     999903    2    1    2    0    0  0.22726866607E-01  0.67153658208E-02 -0.96789907500E-01  0.10137702621E+00  0.18638901409E-01 0.  0.
         14    1    1    2    0    0 -0.28558514469E-01  0.19120163032E-01 -0.38735689600E-01  0.51784389847E-01  0.00000000000E+00 0. -1.
     999901    1    1    2    0    0  0.58316478617E-02 -0.25835528853E-01  0.13552559710E+00  0.89076858394E+00  0.88000000000E+00 0.  1.
        -11    1    3    3    0    0  0.64738623767E-02  0.95809845108E-02 -0.22829928266E-01  0.25596345518E-01  0.51100000000E-03 0. -1.
         11    1    3    3    0    0  0.16253004231E-01 -0.28656186900E-02 -0.73959979235E-01  0.75780680694E-01  0.51100000000E-03 0.  1.
</event>
<event>
 8    1  0.1078274E+005  0.1043930E+01  0.7957747E-01            NaN
         13   -1    0    0    0    0  0.00000000000E+00  0.00000000000E+00  0.74505805969E-08  0.10566000000E+00  0.10566000000E+00 0. -1.
     999900   -1    0    0    0    0 -0.00000000000E+00 -0.00000000000E+00 -0.74505805969E-08  0.93827000000E+00  0.93827000000E+00 0.  1.
     999902    2    1    2    0    0  0.54783133444E-02  0.17307538238E-01  0.11982813041E-01  0.10221779747E+01  0.10219465061E+01 0.  0.
     999903    2    3    3    0    0  0.10131581364E+00  0.78062005032E-01 -0.33374982980E-01  0.13373368191E+00  0.20303631864E-01 0.  0.
         14    1    1    2    0    0 -0.54783133444E-02 -0.17307538238E-01 -0.11982813041E-01  0.21752025316E-01  0.00000000000E+00 0.  1.
     999901    1    3    3    0    0 -0.95837500291E-01 -0.60754466794E-01  0.45357796022E-01  0.88844429277E+00  0.88000000000E+00 0. -1.
        -11    1    4    4    0    0  0.57142690111E-01  0.54897227928E-01 -0.25440116753E-01  0.83225316633E-01  0.51100000000E-03 0.  1.
         11    1    4    4    0    0  0.44173123525E-01  0.23164777104E-01 -0.79348662270E-02  0.50508365280E-01  0.51100000000E-03 0. -1.
</event>
<event>
 8    1  0.1078274E+005  0.1043930E+01  0.7957747E-01            NaN
         13   -1    0    0    0    0  0.00000000000E+00  0.00000000000E+00  0.74505805969E-08  0.10566000000E+00  0.10566000000E+00 0. -1.
     999900   -1    0    0    0    0 -0.00000000000E+00 -0.00000000000E+00 -0.74505805969E-08  0.93827000000E+00  0.93827000000E+00 0. -1.
     999902    2    1    2    0    0 -0.19816880853E-01 -0.58418654271E-02  0.49113953732E-02  0.10226942292E+01  0.10224737299E+01 0.  0.
     999903    2    3    3    0    0 -0.21241849648E-01  0.11526432641E+00  0.59955560215E-01  0.13269501550E+00  0.16619771914E-01 0.  0.
         14    1    1    2    0    0  0.19816880853E-01  0.58418654271E-02 -0.49113953732E-02  0.21235770834E-01  0.00000000000E+00 0.  1.
     999901    1    3    3    0    0  0.14249687949E-02 -0.12110619184E+00 -0.55044164842E-01  0.88999921366E+00  0.88000000000E+00 0. -1.
        -11    1    4    4    0    0 -0.98440420246E-02  0.19427843898E-01  0.91861185436E-02  0.23643015392E-01  0.51100000000E-03 0. -1.
         11    1    4    4    0    0 -0.11397807623E-01  0.95836482515E-01  0.50769441672E-01  0.10905200011E+00  0.51100000000E-03 0.  1.
</event>
<event>
 7    1  0.1078274E+005  0.1043930E+01  0.7957747E-01            NaN
         13   -1    0    0    0    0  0.00000000000E+00  0.00000000000E+00  0.74505805969E-08  0.10566000000E+00  0.10566000000E+00 0.  1.
     999900   -1    0    0    0    0 -0.00000000000E+00 -0.00000000000E+00 -0.74505805969E-08  0.93827000000E+00  0.93827000000E+00 0. -1.
     999903    2    1    2    0    0 -0.51771748886E-01  0.96404068623E-01  0.12778922381E-02  0.11130818905E+00  0.20342603337E-01 0.  0.
         14    1    1    2    0    0  0.31197662632E-01 -0.28237449539E-01 -0.25884526861E-01  0.49403000324E-01  0.00000000000E+00 0.  1.
     999901    1    1    2    0    0  0.20574086254E-01 -0.68166619084E-01  0.24606634623E-01  0.88321881063E+00  0.88000000000E+00 0.  1.
        -11    1    3    3    0    0 -0.21447805731E-01  0.47293187836E-01  0.10135910477E-01  0.52911735830E-01  0.51100000000E-03 0.  1.
         11    1    3    3    0    0 -0.30323943155E-01  0.49110880787E-01 -0.88580182393E-02  0.58396453216E-01  0.51100000000E-03 0. -1.
</event>
<event>
 8    1  0.1078274E+005  0.1043930E+01  0.7957747E-01            NaN
         13   -1    0    0    0    0  0.00000000000E+00  0.00000000000E+00  0.74505805969E-08  0.10566000000E+00  0.10566000000E+00 0. -1.
     999900   -1    0    0    0    0 -0.00000000000E+00 -0.00000000000E+00 -0.74505805969E-08  0.93827000000E+00  0.93827000000E+00 0.  1.
     999902    2    1    2    0    0  0.23442433769E-01  0.22664502596E-02 -0.28299315638E-02  0.10202088489E+01  0.10199330382E+01 0.  0.
     999903    2    3    3    0    0  0.70170791722E-02  0.12829171492E+00  0.15469148156E-01  0.13089056169E+00  0.19622463622E-01 0.  0.
         14    1    1    2    0    0 -0.23442433769E-01 -0.22664502596E-02  0.28299315638E-02  0.23721151119E-01  0.00000000000E+00 0. -1.
     999901    1    3    3    0    0  0.16425354596E-01 -0.12602526466E+00 -0.18299079720E-01  0.88931828719E+00  0.88000000000E+00 0. -1.
        -11    1    4    4    0    0 -0.21531757058E-02  0.10102494326E+00  0.14660544463E-01  0.10210713986E+00  0.51100000000E-03 0.  1.
         11    1    4    4    0    0  0.91702548781E-02  0.27266771662E-01  0.80860369333E-03  0.28783421831E-01  0.51100000000E-03 0. -1.
</event>
<event>
 8    1  0.1078274E+005  0.1043930E+01  0.7957747E-01            NaN
         13   -1    0    0    0    0  0.00000000000E+00  0.00000000000E+00  0.74505805969E-08  0.10566000000E+00  0.10566000000E+00 0.  1.
     999900   -1    0    0    0    0 -0.00000000000E+00 -0.00000000000E+00 -0.74505805969E-08  0.93827000000E+00  0.93827000000E+00 0. -1.
     999902    2    1    2    0    0  0.14681581797E-02 -0.21822538276E-01 -0.80477038604E-02  0.10206245456E+01  0.10203584267E+01 0.  0.
     999903    2    3    3    0    0 -0.17958081841E-01 -0.12160465071E+00 -0.48417881529E-01  0.13385309820E+00  0.21498299174E-01 0.  0.
         14    1    1    2    0    0 -0.14681581797E-02  0.21822538276E-01  0.80477038604E-02  0.23305454355E-01  0.00000000000E+00 0.  1.
     999901    1    3    3    0    0  0.19426240020E-01  0.99782112435E-01  0.40370177668E-01  0.88677144745E+00  0.88000000000E+00 0.  1.
        -11    1    4    4    0    0 -0.62269224200E-02 -0.93763890071E-01 -0.42160984118E-01  0.10299636570E+00  0.51100000000E-03 0. -1.
         11    1    4    4    0    0 -0.11731159421E-01 -0.27840760640E-01 -0.62568974107E-02  0.30856732500E-01  0.51100000000E-03 0.  1.
</event>
<event>
 8    1  0.1078274E+005  0.1043930E+01  0.7957747E-01            NaN
         13   -1    0    0    0    0  0.00000000000E+00  0.00000000000E+00  0.74505805969E-08  0.10566000000E+00  0.10566000000E+00 0.  1.
     999900   -1    0    0    0    0 -0.00000000000E+00 -0.00000000000E+00 -0.74505805969E-08  0.93827000000E+00  0.93827000000E+00 0. -1.
     999902    2    1    2    0    0 -0.19398448594E-02 -0.18755946215E-01  0.36941521395E-02  0.10247155451E+01  0.10245353840E+01 0.  0.
     999903    2    3    3    0    0  0.17860518759E-01  0.12866241390E+00 -0.12318455884E-01  0.13208985037E+00  0.20566218282E-01 0.  0.
         14    1    1    2    0    0  0.19398448594E-02  0.18755946215E-01 -0.36941521395E-02  0.19214454885E-01  0.00000000000E+00 0.  1.
     999901    1    3    3    0    0 -0.19800363618E-01 -0.14741836012E+00  0.16012608024E-01  0.89262569474E+00  0.88000000000E+00 0. -1.
        -11    1    4    4    0    0 -0.43766200723E-02  0.31184518632E-01 -0.16251116910E-02  0.31536187381E-01  0.51100000000E-03 0. -1.
         11    1    4    4    0    0  0.22237138831E-01  0.97477895271E-01 -0.10693344193E-01  0.10055366299E+00  0.51100000000E-03 0.  1.
</event>
<event>
 8    1  0.1078274E+005  0.1043930E+01  0.7957747E-01            NaN
         13   -1    0    0    0    0  0.00000000000E+00  0.00000000000E+00  0.74505805969E-08  0.10566000000E+00  0.10566000000E+00 0.  1.
     999900   -1    0    0    0    0 -0.00000000000E+00 -0.00000000000E+00 -0.74505805969E-08  0.93827000000E+00  0.93827000000E+00 0. -1.
     999902    2    1    2    0    0  0.15346454654E-01  0.42897945612E-02  0.17299894693E-01  0.10204097457E+01  0.10201386409E+01 0.  0.
     999903    2    3    3    0    0  0.90904392060E-02  0.11763552977E+00 -0.51858353865E-01  0.13042701731E+00  0.20029079618E-01 0.  0.
         14    1    1    2    0    0 -0.15346454654E-01 -0.42897945612E-02 -0.17299894693E-01  0.23520254340E-01  0.00000000000E+00 0. -1.
     999901    1    3    3    0    0  0.62560154478E-02 -0.11334573521E+00  0.69158248558E-01  0.88998272835E+00  0.88000000000E+00 0.  1.
        -11    1    4    4    0    0 -0.27468371124E-03  0.96638552241E-01 -0.43165345615E-01  0.10584230446E+00  0.51100000000E-03 0. -1.
         11    1    4    4    0    0  0.93651229172E-02  0.20996977526E-01 -0.86930082498E-02  0.24584712850E-01  0.51100000000E-03 0.  1.
</event>
<event>
 8    1  0.1078274E+005  0.1043930E+01  0.7957747E-01            NaN
         13   -1    0    0    0    0  0.00000000000E+00  0.00000000000E+00  0.74505805969E-08  0.10566000000E+00  0.10566000000E+00 0.  1.
     999900   -1    0    0    0    0 -0.00000000000E+00 -0.00000000000E+00 -0.74505805969E-08  0.93827000000E+00  0.93827000000E+00 0.  1.
     999902    2    1    2    0    0 -0.22585084678E-01  0.48301746730E-02  0.16824398409E-01  0.10153559380E+01  0.10149537939E+01 0.  0.
     999903    2    3    3    0    0 -0.11613806093E-01  0.10929542780E-01 -0.12180646712E+00  0.12441481305E+00  0.19695046998E-01 0.  0.
         14    1    1    2    0    0  0.22585084678E-01 -0.48301746730E-02 -0.16824398409E-01  0.28574061999E-01  0.00000000000E+00 0. -1.
     999901    1    3    3    0    0 -0.10971278585E-01 -0.60993681066E-02  0.13863086553E+00  0.89094112495E+00  0.88000000000E+00 0. -1.
        -11    1    4    4    0    0 -0.11848013125E-02 -0.56006481510E-02 -0.30826231130E-01  0.31357433896E-01  0.51100000000E-03 0. -1.
         11    1    4    4    0    0 -0.10429004781E-01  0.16530190931E-01 -0.90980235995E-01  0.93057379157E-01  0.51100000000E-03 0.  1.
</event>
<event>
 8    1  0.1078274E+005  0.1043930E+01  0.7957747E-01            NaN
         13   -1    0    0    0    0  0.00000000000E+00  0.00000000000E+00  0.74505805969E-08  0.10566000000E+00  0.10566000000E+00 0.  1.
     999900   -1    0    0    0    0 -0.00000000000E+00 -0.00000000000E+00 -0.74505805969E-08  0.93827000000E+00  0.93827000000E+00 0.  1.
     999902    2    1    2    0    0  0.12691725177E-01 -0.20289720844E-01  0.25097992214E-02  0.10198665058E+01  0.10195825802E+01 0.  0.
     999903    2    3    3    0    0  0.43767969948E-01  0.11759935676E+00 -0.18150755955E-01  0.12834758328E+00  0.19960167536E-01 0.  0.
         14    1    1    2    0    0 -0.12691725177E-01  0.20289720844E-01 -0.25097992214E-02  0.24063494178E-01  0.00000000000E+00 0. -1.
     999901    1    3    3    0    0 -0.31076244770E-01 -0.13788907760E+00  0.20660555177E-01  0.89151892254E+00  0.88000000000E+00 0. -1.
        -11    1    4    4    0    0  0.24135317047E-01  0.88019688380E-01 -0.16887698932E-01  0.92819365262E-01  0.51100000000E-03 0. -1.
         11    1    4    4    0    0  0.19632652901E-01  0.29579668381E-01 -0.12630570231E-02  0.35528218017E-01  0.51100000000E-03 0.  1.
</event>
<event>
 8    1  0.1078274E+005  0.1043930E+01  0.7957747E-01            NaN
         13   -1    0    0    0    0  0.00000000000E+00  0.00000000000E+00  0.74505805969E-08  0.10566000000E+00  0.10566000000E+00 0. -1.
     999900   -1    0    0    0    0 -0.00000000000E+00 -0.00000000000E+00 -0.74505805969E-08  0.93827000000E+00  0.93827000000E+00 0.  1.
     999902    2    1    2    0    0  0.10932905656E-01 -0.15853167320E-01 -0.15110553266E-01  0.10194518432E+01  0.10191579271E+01 0.  0.
     999903    2    3    3    0    0 -0.10659477565E+00 -0.61246524895E-01 -0.37968375621E-01  0.13018484571E+00  0.19822045755E-01 0.  0.
         14    1    1    2    0    0 -0.10932905656E-01  0.15853167320E-01  0.15110553266E-01  0.24478156797E-01  0.00000000000E+00 0. -1.
     999901    1    3    3    0    0  0.11752768131E+00  0.45393357575E-01  0.22857822355E-01  0.88926699749E+00  0.88000000000E+00 0. -1.
        -11    1    4    4    0    0 -0.27072952631E-01 -0.18549995880E-01 -0.19093131892E-01  0.37971777911E-01  0.51100000000E-03 0. -1.
         11    1    4    4    0    0 -0.79521823020E-01 -0.42696529015E-01 -0.18875243729E-01  0.92213067800E-01  0.51100000000E-03 0.  1.
</event>
<event>
 8    1  0.1078274E+005  0.1043930E+01  0.7957747E-01            NaN
         13   -1    0    0    0    0  0.00000000000E+00  0.00000000000E+00  0.74505805969E-08  0.10566000000E+00  0.10566000000E+00 0.  1.
     999900   -1    0    0    0    0 -0.00000000000E+00 -0.00000000000E+00 -0.74505805969E-08  0.93827000000E+00  0.93827000000E+00 0. -1.
     999902    2    1    2    0    0  0.44595180657E-02 -0.21748434032E-01  0.31351388369E-02  0.10215087873E+01  0.10212626948E+01 0.  0.
     999903    2    3    3    0    0 -0.74950176607E-01  0.10302439014E+00  0.66942274559E-02  0.12915973878E+00  0.20146252830E-01 0.  0.
         14    1    1    2    0    0 -0.44595180657E-02  0.21748434032E-01 -0.31351388369E-02  0.22421212718E-01  0.00000000000E+00 0. -1.
     999901    1    3    3    0    0  0.79409694673E-01 -0.12477282417E+00 -0.35590886189E-02  0.89234904851E+00  0.88000000000E+00 0. -1.
        -11    1    4    4    0    0 -0.46908803079E-01  0.72049708349E-01 -0.38587210419E-02  0.86062460624E-01  0.51100000000E-03 0. -1.
         11    1    4    4    0    0 -0.28041373528E-01  0.30974681786E-01  0.10552948498E-01  0.43097278152E-01  0.51100000000E-03 0.  1.
</event>
<event>
 8    1  0.1078274E+005  0.1043930E+01  0.7957747E-01            NaN
         13   -1    0    0    0    0  0.00000000000E+00  0.00000000000E+00  0.74505805969E-08  0.10566000000E+00  0.10566000000E+00 0. -1.
     999900   -1    0    0    0    0 -0.00000000000E+00 -0.00000000000E+00 -0.74505805969E-08  0.93827000000E+00  0.93827000000E+00 0.  1.
     999902    2    1    2    0    0 -0.69992200326E-02  0.20820223654E-01 -0.79698219002E-02  0.10205635956E+01  0.10202960667E+01 0.  0.
     999903    2    3    3    0    0  0.73576096302E-01 -0.94149376744E-01  0.41146627843E-01  0.12808232617E+00  0.20844428676E-01 0.  0.
         14    1    1    2    0    0  0.69992200326E-02 -0.20820223654E-01  0.79698219002E-02  0.23366404413E-01  0.00000000000E+00 0.  1.
     999901    1    3    3    0    0 -0.80575316335E-01  0.11496960040E+00 -0.49116449743E-01  0.89248126941E+00  0.88000000000E+00 0. -1.
        -11    1    4    4    0    0  0.53899452432E-01 -0.61332664402E-01  0.36824185644E-01  0.89571917834E-01  0.51100000000E-03 0.  1.
         11    1    4    4    0    0  0.19676643870E-01 -0.32816712342E-01  0.43224421992E-02  0.38510408340E-01  0.51100000000E-03 0. -1.
</event>
<event>
 8    1  0.1078274E+005  0.1043930E+01  0.7957747E-01            NaN
         13   -1    0    0    0    0  0.00000000000E+00  0.00000000000E+00  0.74505805969E-08  0.10566000000E+00  0.10566000000E+00 0. -1.
     999900   -1    0    0    0    0 -0.00000000000E+00 -0.00000000000E+00 -0.74505805969E-08  0.93827000000E+00  0.93827000000E+00 0.  1.
     999902    2    1    2    0    0 -0.14402455299E-01  0.23438015662E-02 -0.13647186621E-01  0.10239507651E+01  0.10237558300E+01 0.  0.
     999903    2    3    3    0    0 -0.52729911620E-01  0.38475698213E-01 -0.11789477599E+00  0.13623342960E+00  0.19988651814E-01 0.  0.
         14    1    1    2    0    0  0.14402455299E-01 -0.23438015662E-02  0.13647186621E-01  0.19979234898E-01  0.00000000000E+00 0. -1.
     999901    1    3    3    0    0  0.38327456320E-01 -0.36131896647E-01  0.10424758937E+00  0.88771733550E+00  0.88000000000E+00 0. -1.
        -11    1    4    4    0    0 -0.15053983504E-01  0.11708690397E-01 -0.54764754332E-01  0.57992717544E-01  0.51100000000E-03 0.  1.
         11    1    4    4    0    0 -0.37675928116E-01  0.26767007816E-01 -0.63130021662E-01  0.78240712055E-01  0.51100000000E-03 0. -1.
</event>
<event>
 8    1  0.1078274E+005  0.1043930E+01  0.7957747E-01            NaN
         13   -1    0    0    0    0  0.00000000000E+00  0.00000000000E+00  0.74505805969E-08  0.10566000000E+00  0.10566000000E+00 0. -1.
     999900   -1    0    0    0    0 -0.00000000000E+00 -0.00000000000E+00 -0.74505805969E-08  0.93827000000E+00  0.93827000000E+00 0. -1.
     999902    2    1    2    0    0 -0.91173722453E-02 -0.22024898233E-01 -0.35319969869E-03  0.10200899629E+01  0.10198113478E+01 0.  0.
     999903    2    3    3    0    0 -0.29384314565E-01 -0.10533257780E-01  0.12536628681E+00  0.13084972762E+00  0.20749888866E-01 0.  0.
         14    1    1    2    0    0  0.91173722453E-02  0.22024898233E-01  0.35319969869E-03  0.23840037098E-01  0.00000000000E+00 0. -1.
     999901    1    3    3    0    0  0.20266942320E-01 -0.11491640453E-01 -0.12571948651E+00  0.88924023528E+00  0.88000000000E+00 0. -1.
        -11    1    4    4    0    0 -0.14949945045E-01 -0.35520372470E-02  0.26069720868E-01  0.30265645419E-01  0.51100000000E-03 0. -1.
         11    1    4    4    0    0 -0.14434369520E-01 -0.69812205331E-02  0.99296565944E-01  0.10058408220E+00  0.51100000000E-03 0.  1.
</event>
<event>
 8    1  0.1078274E+005  0.1043930E+01  0.7957747E-01            NaN
         13   -1    0    0    0    0  0.00000000000E+00  0.00000000000E+00  0.74505805969E-08  0.10566000000E+00  0.10566000000E+00 0. -1.
     999900   -1    0    0    0    0 -0.00000000000E+00 -0.00000000000E+00 -0.74505805969E-08  0.93827000000E+00  0.93827000000E+00 0. -1.
     999902    2    1    2    0    0 -0.18617357679E-01  0.13900162506E-02 -0.14670813771E-01  0.10201861391E+01  0.10199097938E+01 0.  0.
     999903    2    3    3    0    0 -0.70144859818E-01  0.75922943199E-01  0.77504126461E-01  0.13074448265E+00  0.20065778401E-01 0.  0.
         14    1    1    2    0    0  0.18617357679E-01 -0.13900162506E-02  0.14670813771E-01  0.23743860866E-01  0.00000000000E+00 0. -1.
     999901    1    3    3    0    0  0.51527502139E-01 -0.74532926948E-01 -0.92174940233E-01  0.88944165648E+00  0.88000000000E+00 0. -1.
        -11    1    4    4    0    0 -0.38893067384E-01  0.27689978348E-01  0.37634448412E-01  0.60794888105E-01  0.51100000000E-03 0. -1.
         11    1    4    4    0    0 -0.31251792433E-01  0.48232964851E-01  0.39869678049E-01  0.69949594548E-01  0.51100000000E-03 0.  1.
</event>
<event>
 8    1  0.1078274E+005  0.1043930E+01  0.7957747E-01            NaN
         13   -1    0    0    0    0  0.00000000000E+00  0.00000000000E+00  0.74505805969E-08  0.10566000000E+00  0.10566000000E+00 0. -1.
     999900   -1    0    0    0    0 -0.00000000000E+00 -0.00000000000E+00 -0.74505805969E-08  0.93827000000E+00  0.93827000000E+00 0.  1.
     999902    2    1    2    0    0 -0.19530435131E-01  0.79941012416E-02 -0.15100456610E-01  0.10179806774E+01  0.10176498869E+01 0.  0.
     999903    2    3    3    0    0 -0.63274700947E-01 -0.10330133292E+00  0.37872457427E-01  0.12831424328E+00  0.18851228998E-01 0.  0.
         14    1    1    2    0    0  0.19530435131E-01 -0.79941012416E-02  0.15100456610E-01  0.25949322552E-01  0.00000000000E+00 0. -1.
     999901    1    3    3    0    0  0.43744265816E-01  0.11129543416E+00 -0.52972914037E-01  0.88966643416E+00  0.88000000000E+00 0. -1.
        -11    1    4    4    0    0 -0.53072409664E-01 -0.89606325021E-01  0.38961209407E-01  0.11119447428E+00  0.51100000000E-03 0. -1.
         11    1    4    4    0    0 -0.10202291283E-01 -0.13695007900E-01 -0.10887519804E-02  0.17119769002E-01  0.51100000000E-03 0.  1.
</event>
<event>
 8    1  0.1078274E+005  0.1043930E+01  0.7957747E-01            NaN
         13   -1    0    0    0    0  0.00000000000E+00  0.00000000000E+00  0.74505805969E-08  0.10566000000E+00  0.10566000000E+00 0. -1.
     999900   -1    0    0    0    0 -0.00000000000E+00 -0.00000000000E+00 -0.74505805969E-08  0.93827000000E+00  0.93827000000E+00 0. -1.
     999902    2    1    2    0    0 -0.99519798172E-02 -0.53022353957E-02  0.21796418774E-01  0.10193894321E+01  0.10190939970E+01 0.  0.
     999903    2    3    3    0    0  0.97614345397E-01 -0.80935263393E-01 -0.12267866944E-01  0.12896748446E+00  0.20075711698E-01 0.  0.
         14    1    1    2    0    0  0.99519798172E-02  0.53022353957E-02 -0.21796418774E-01  0.24540567920E-01  0.00000000000E+00 0.  1.
     999901    1    3    3    0    0 -0.10756632521E+00  0.75633027998E-01  0.34064285718E-01  0.89042194762E+00  0.88000000000E+00 0. -1.
        -11    1    4    4    0    0  0.44565433145E-01 -0.44163654061E-01  0.23350155320E-02  0.62787097321E-01  0.51100000000E-03 0. -1.
         11    1    4    4    0    0  0.53048912253E-01 -0.36771609332E-01 -0.14602882476E-01  0.66180387137E-01  0.51100000000E-03 0.  1.
</event>
<event>
 8    1  0.1078274E+005  0.1043930E+01  0.7957747E-01            NaN
         13   -1    0    0    0    0  0.00000000000E+00  0.00000000000E+00  0.74505805969E-08  0.10566000000E+00  0.10566000000E+00 0.  1.
     999900   -1    0    0    0    0 -0.00000000000E+00 -0.00000000000E+00 -0.74505805969E-08  0.93827000000E+00  0.93827000000E+00 0.  1.
     999902    2    1    2    0    0  0.18190543936E-01 -0.95117756225E-02 -0.71525144129E-02  0.10221922856E+01  0.10219611248E+01 0.  0.
     999903    2    3    3    0    0 -0.85399158980E-01  0.64246700038E-01 -0.71758365719E-01  0.13070753796E+00  0.22683531655E-01 0.  0.
         14    1    1    2    0    0 -0.18190543936E-01  0.95117756225E-02  0.71525144129E-02  0.21737714384E-01  0.00000000000E+00 0.  1.
     999901    1    3    3    0    0  0.10358970292E+00 -0.73758475661E-01  0.64605851306E-01  0.89148474766E+00  0.88000000000E+00 0. -1.
        -11    1    4    4    0    0 -0.63885223050E-01  0.59300177461E-01 -0.57325663047E-01  0.10432797101E+00  0.51100000000E-03 0.  1.
         11    1    4    4    0    0 -0.21513935931E-01  0.49465225778E-02 -0.14432702672E-01  0.26379566946E-01  0.51100000000E-03 0. -1.
</event>
<event>
 8    1  0.1078274E+005  0.1043930E+01  0.7957747E-01            NaN
         13   -1    0    0    0    0  0.00000000000E+00  0.00000000000E+00  0.74505805969E-08  0.10566000000E+00  0.10566000000E+00 0.  1.
     999900   -1    0    0    0    0 -0.00000000000E+00 -0.00000000000E+00 -0.74505805969E-08  0.93827000000E+00  0.93827000000E+00 0. -1.
     999902    2    1    2    0    0 -0.23117750627E-01  0.39514004376E-02  0.22813693948E-02  0.10203662862E+01  0.10200941670E+01 0.  0.
     999903    2    3    3    0    0  0.23351480310E-01 -0.78785575805E-01  0.99063793756E-01  0.12998904354E+00  0.18194988878E-01 0.  0.
         14    1    1    2    0    0  0.23117750627E-01 -0.39514004376E-02 -0.22813693948E-02  0.23563713752E-01  0.00000000000E+00 0.  1.
     999901    1    3    3    0    0 -0.46469230937E-01  0.82736976243E-01 -0.96782424361E-01  0.89037724270E+00  0.88000000000E+00 0. -1.
        -11    1    4    4    0    0  0.72423157952E-02 -0.51370405748E-01  0.68018604832E-01  0.85546253273E-01  0.51100000000E-03 0. -1.
         11    1    4    4    0    0  0.16109164515E-01 -0.27415170057E-01  0.31045188924E-01  0.44442790270E-01  0.51100000000E-03 0.  1.
</event>
<event>
 8    1  0.1078274E+005  0.1043930E+01  0.7957747E-01            NaN
         13   -1    0    0    0    0  0.00000000000E+00  0.00000000000E+00  0.74505805969E-08  0.10566000000E+00  0.10566000000E+00 0. -1.
     999900   -1    0    0    0    0 -0.00000000000E+00 -0.00000000000E+00 -0.74505805969E-08  0.93827000000E+00  0.93827000000E+00 0.  1.
     999902    2    1    2    0    0  0.19879557003E-01 -0.14994177574E-02 -0.16072802097E-01  0.10183217980E+01  0.10179997566E+01 0.  0.
     999903    2    3    3    0    0 -0.17953229431E-01  0.12154500885E+00 -0.33500440539E-01  0.12878541698E+00  0.19180627941E-01 0.  0.
         14    1    1    2    0    0 -0.19879557003E-01  0.14994177574E-02  0.16072802097E-01  0.25608201958E-01  0.00000000000E+00 0.  1.
     999901    1    3    3    0    0  0.37832786434E-01 -0.12304442661E+00  0.17427638442E-01  0.88953638106E+00  0.88000000000E+00 0.  1.
        -11    1    4    4    0    0 -0.10245205987E-01  0.23292136418E-01 -0.30531122546E-02  0.25633386044E-01  0.51100000000E-03 0.  1.
         11    1    4    4    0    0 -0.77080234442E-02  0.98252872430E-01 -0.30447328284E-01  0.10315203094E+00  0.51100000000E-03 0. -1.
</event>
<event>
 8    1  0.1078274E+005  0.1043930E+01  0.7957747E-01            NaN
         13   -1    0    0    0    0  0.00000000000E+00  0.00000000000E+00  0.74505805969E-08  0.10566000000E+00  0.10566000000E+00 0.  1.
     999900   -1    0    0    0    0 -0.00000000000E+00 -0.00000000000E+00 -0.74505805969E-08  0.93827000000E+00  0.93827000000E+00 0. -1.
     999902    2    1    2    0    0  0.10316934181E-01 -0.21712364175E-01  0.27380492385E-02  0.10197357279E+01  0.10194486706E+01 0.  0.
     999903    2    3    3    0    0 -0.55385736971E-01  0.98161531272E-01  0.56233628197E-01  0.12757634260E+00  0.20254287685E-01 0.  0.
         14    1    1    2    0    0 -0.10316934181E-01  0.21712364175E-01 -0.27380492385E-02  0.24194272103E-01  0.00000000000E+00 0. -1.
     999901    1    3    3    0    0  0.65702671151E-01 -0.11987389545E+00 -0.53495578959E-01  0.89215938530E+00  0.88000000000E+00 0. -1.
        -11    1    4    4    0    0 -0.49277902388E-01  0.70897582044E-01  0.38972044916E-01  0.94730460831E-01  0.51100000000E-03 0. -1.
         11    1    4    4    0    0 -0.61078345831E-02  0.27263949228E-01  0.17261583282E-01  0.32845881769E-01  0.51100000000E-03 0.  1.
</event>
<event>
 8    1  0.1078274E+005  0.1043930E+01  0.7957747E-01            NaN
         13   -1    0    0    0    0  0.00000000000E+00  0.00000000000E+00  0.74505805969E-08  0.10566000000E+00  0.10566000000E+00 0.  1.
     999900   -1    0    0    0    0 -0.00000000000E+00 -0.00000000000E+00 -0.74505805969E-08  0.93827000000E+00  0.93827000000E+00 0.  1.
     999902    2    1    2    0    0 -0.30321399661E-02  0.17756217227E-01  0.13620712007E-01  0.10213468001E+01  0.10210970988E+01 0.  0.
     999903    2    3    3    0    0  0.11349422458E+00  0.64512035862E-01  0.25813858818E-02  0.13236627896E+00  0.21712357537E-01 0.  0.
         14    1    1    2    0    0  0.30321399661E-02 -0.17756217227E-01 -0.13620712007E-01  0.22583199919E-01  0.00000000000E+00 0. -1.
     999901    1    3    3    0    0 -0.11652636454E+00 -0.46755818634E-01  0.11039326126E-01  0.88898052112E+00  0.88000000000E+00 0.  1.
        -11    1    4    4    0    0  0.33138939574E-01  0.25665080729E-01  0.90281138504E-02  0.42879524783E-01  0.51100000000E-03 0. -1.
         11    1    4    4    0    0  0.80355285002E-01  0.38846955132E-01 -0.64467279686E-02  0.89486754178E-01  0.51100000000E-03 0.  1.
</event>
<event>
 8    1  0.1078274E+005  0.1043930E+01  0.7957747E-01            NaN
         13   -1    0    0    0    0  0.00000000000E+00  0.00000000000E+00  0.74505805969E-08  0.10566000000E+00  0.10566000000E+00 0. -1.
     999900   -1    0    0    0    0 -0.00000000000E+00 -0.00000000000E+00 -0.74505805969E-08  0.93827000000E+00  0.93827000000E+00 0.  1.
     999902    2    1    2    0    0 -0.41769745868E-02 -0.20838114725E-01 -0.92852110990E-02  0.10207375597E+01  0.10204740450E+01 0.  0.
     999903    2    3    3    0    0  0.39866866022E-01  0.11613798178E+00  0.27898495899E-01  0.12827751075E+00  0.24482562611E-01 0.  0.
         14    1    1    2    0    0  0.41769745868E-02  0.20838114725E-01  0.92852110990E-02  0.23192440302E-01  0.00000000000E+00 0. -1.
     999901    1    3    3    0    0 -0.44043840609E-01 -0.13697609650E+00 -0.37183706998E-01  0.89246004895E+00  0.88000000000E+00 0.  1.
        -11    1    4    4    0    0  0.25565380971E-02  0.41843728783E-01  0.64596199850E-02  0.42419586713E-01  0.51100000000E-03 0.  1.
         11    1    4    4    0    0  0.37310327925E-01  0.74294252995E-01  0.21438875914E-01  0.85857924034E-01  0.51100000000E-03 0. -1.
</event>
<event>
 8    1  0.1078274E+005  0.1043930E+01  0.7957747E-01            NaN
         13   -1    0    0    0    0  0.00000000000E+00  0.00000000000E+00  0.74505805969E-08  0.10566000000E+00  0.10566000000E+00 0.  1.
     999900   -1    0    0    0    0 -0.00000000000E+00 -0.00000000000E+00 -0.74505805969E-08  0.93827000000E+00  0.93827000000E+00 0.  1.
     999902    2    1    2    0    0  0.14932826833E-01 -0.88897614224E-02  0.15962216086E-01  0.10203331884E+01  0.10200602952E+01 0.  0.
     999903    2    3    3    0    0 -0.12227382990E+00 -0.17153678411E-01 -0.29053759690E-01  0.12852581175E+00  0.20727401438E-01 0.  0.
         14    1    1    2    0    0 -0.14932826833E-01  0.88897614224E-02 -0.15962216086E-01  0.23596811601E-01  0.00000000000E+00 0.  1.
     999901    1    3    3    0    0  0.13720665674E+00  0.82639169884E-02  0.45015975777E-01  0.89180737665E+00  0.88000000000E+00 0. -1.
        -11    1    4    4    0    0 -0.43808563621E-01 -0.16052511806E-01 -0.12831561163E-01  0.48391977276E-01  0.51100000000E-03 0. -1.
         11    1    4    4    0    0 -0.78465266283E-01 -0.11011666046E-02 -0.16222198527E-01  0.80133834470E-01  0.51100000000E-03 0.  1.
</event>
<event>
 8    1  0.1078274E+005  0.1043930E+01  0.7957747E-01            NaN
         13   -1    0    0    0    0  0.00000000000E+00  0.00000000000E+00  0.74505805969E-08  0.10566000000E+00  0.10566000000E+00 0. -1.
     999900   -1    0    0    0    0 -0.00000000000E+00 -0.00000000000E+00 -0.74505805969E-08  0.93827000000E+00  0.93827000000E+00 0.  1.
     999902    2    1    2    0    0  0.20444596744E-01  0.60340169184E-03  0.12276972895E-01  0.10200748183E+01  0.10197958449E+01 0.  0.
     999903    2    3    3    0    0 -0.57460508325E-01  0.11192858347E+00  0.23529447352E-01  0.12957545298E+00  0.20160488755E-01 0.  0.
         14    1    1    2    0    0 -0.20444596744E-01 -0.60340169184E-03 -0.12276972895E-01  0.23855181682E-01  0.00000000000E+00 0.  1.
     999901    1    3    3    0    0  0.77905105068E-01 -0.11132518178E+00 -0.11252474456E-01  0.89049936534E+00  0.88000000000E+00 0.  1.
        -11    1    4    4    0    0 -0.36921694035E-01  0.85044948554E-01  0.23868753345E-01  0.95738358416E-01  0.51100000000E-03 0. -1.
         11    1    4    4    0    0 -0.20538814289E-01  0.26883634916E-01 -0.33930599352E-03  0.33837094560E-01  0.51100000000E-03 0.  1.
</event>
<event>
 8    1  0.1078274E+005  0.1043930E+01  0.7957747E-01            NaN
         13   -1    0    0    0    0  0.00000000000E+00  0.00000000000E+00  0.74505805969E-08  0.10566000000E+00  0.10566000000E+00 0. -1.
     999900   -1    0    0    0    0 -0.00000000000E+00 -0.00000000000E+00 -0.74505805969E-08  0.93827000000E+00  0.93827000000E+00 0.  1.
     999902    2    1    2    0    0  0.56537833253E-02  0.15038766273E-01 -0.17709727024E-01  0.10200184089E+01  0.10197380989E+01 0.  0.
     999903    2    3    3    0    0  0.96949896094E-01  0.26810141071E-01  0.79120847399E-01  0.12993430861E+00  0.22466642930E-01 0.  0.
         14    1    1    2    0    0 -0.56537833253E-02 -0.15038766273E-01  0.17709727024E-01  0.23911591084E-01  0.00000000000E+00 0. -1.
     999901    1    3    3    0    0 -0.91296112769E-01 -0.11771374798E-01 -0.96830574422E-01  0.89008410030E+00  0.88000000000E+00 0.  1.
        -11    1    4    4    0    0  0.55938385121E-01  0.22869927905E-01  0.36250269672E-01  0.70473255244E-01  0.51100000000E-03 0.  1.
         11    1    4    4    0    0  0.41011510973E-01  0.39402131658E-02  0.42870577726E-01  0.59461053368E-01  0.51100000000E-03 0. -1.
</event>
<event>
 8    1  0.1078274E+005  0.1043930E+01  0.7957747E-01            NaN
         13   -1    0    0    0    0  0.00000000000E+00  0.00000000000E+00  0.74505805969E-08  0.10566000000E+00  0.10566000000E+00 0.  1.
     999900   -1    0    0    0    0 -0.00000000000E+00 -0.00000000000E+00 -0.74505805969E-08  0.93827000000E+00  0.93827000000E+00 0.  1.
     999902    2    1    2    0    0  0.15717541178E-01 -0.14330450705E-01 -0.10341303604E-01  0.10202795142E+01  0.10200053635E+01 0.  0.
     999903    2    3    3    0    0 -0.13866379953E-01  0.37089238523E-01  0.12074833661E+00  0.12859364654E+00  0.19704746348E-01 0.  0.
         14    1    1    2    0    0 -0.15717541178E-01  0.14330450705E-01  0.10341303604E-01  0.23650485795E-01  0.00000000000E+00 0. -1.
     999901    1    3    3    0    0  0.29583921131E-01 -0.51419689228E-01 -0.13108964021E+00  0.89168586767E+00  0.88000000000E+00 0.  1.
        -11    1    4    4    0    0 -0.53768471060E-02  0.83917795713E-02  0.60527062849E-01  0.61344265480E-01  0.51100000000E-03 0.  1.
         11    1    4    4    0    0 -0.84895328469E-02  0.28697458952E-01  0.60221273760E-01  0.67249381057E-01  0.51100000000E-03 0. -1.
</event>
<event>
 8    1  0.1078274E+005  0.1043930E+01  0.7957747E-01            NaN
         13   -1    0    0    0    0  0.00000000000E+00  0.00000000000E+00  0.74505805969E-08  0.10566000000E+00  0.10566000000E+00 0.  1.
     999900   -1    0    0    0    0 -0.00000000000E+00 -0.00000000000E+00 -0.74505805969E-08  0.93827000000E+00  0.93827000000E+00 0.  1.
     999902    2    1    2    0    0 -0.71434442978E-02  0.18525219087E-02  0.22855063841E-01  0.10199130356E+01  0.10196302201E+01 0.  0.
     999903    2    3    3    0    0  0.49922532699E-01 -0.47267664843E-01  0.11121838419E+00  0.13228845573E+00  0.20105102041E-01 0.  0.
         14    1    1    2    0    0  0.71434442978E-02 -0.18525219087E-02 -0.22855063841E-01  0.24016964359E-01  0.00000000000E+00 0. -1.
     999901    1    3    3    0    0 -0.57065976997E-01  0.49120186752E-01 -0.88363320345E-01  0.88762457991E+00  0.88000000000E+00 0.  1.
        -11    1    4    4    0    0  0.37525105178E-01 -0.22279328185E-01  0.70978564260E-01  0.83322984154E-01  0.51100000000E-03 0. -1.
         11    1    4    4    0    0  0.12397427521E-01 -0.24988336658E-01  0.40239819926E-01  0.48965471577E-01  0.51100000000E-03 0.  1.
</event>
<event>
 8    1  0.1078274E+005  0.1043930E+01  0.7957747E-01            NaN
         13   -1    0    0    0    0  0.00000000000E+00  0.00000000000E+00  0.74505805969E-08  0.10566000000E+00  0.10566000000E+00 0. -1.
     999900   -1    0    0    0    0 -0.00000000000E+00 -0.00000000000E+00 -0.74505805969E-08  0.93827000000E+00  0.93827000000E+00 0.  1.
     999902    2    1    2    0    0  0.21464553499E-01 -0.65471222450E-02  0.64088221025E-02  0.10205919438E+01  0.10203250712E+01 0.  0.
     999903    2    3    3    0    0  0.38944610671E-01  0.40885667695E-01 -0.11613359999E+00  0.13066381907E+00  0.19942418233E-01 0.  0.
         14    1    1    2    0    0 -0.21464553499E-01  0.65471222450E-02 -0.64088221025E-02  0.23338056203E-01  0.00000000000E+00 0.  1.
     999901    1    3    3    0    0 -0.17480057172E-01 -0.47432789940E-01  0.12254242209E+00  0.88992812472E+00  0.88000000000E+00 0. -1.
        -11    1    4    4    0    0  0.14242579480E-02  0.57156948772E-02 -0.35671809937E-02  0.69053298164E-02  0.51100000000E-03 0. -1.
         11    1    4    4    0    0  0.37520352723E-01  0.35169972818E-01 -0.11256641900E+00  0.12375848926E+00  0.51100000000E-03 0.  1.
</event>
<event>
 8    1  0.1078274E+005  0.1043930E+01  0.7957747E-01            NaN
         13   -1    0    0    0    0  0.00000000000E+00  0.00000000000E+00  0.74505805969E-08  0.10566000000E+00  0.10566000000E+00 0. -1.
     999900   -1    0    0    0    0 -0.00000000000E+00 -0.00000000000E+00 -0.74505805969E-08  0.93827000000E+00  0.93827000000E+00 0.  1.
     999902    2    1    2    0    0 -0.15583501326E-01  0.13258192466E-01 -0.11470101604E-01  0.10204739046E+01  0.10202042940E+01 0.  0.
     999903    2    3    3    0    0 -0.54864304690E-01  0.42017366527E-01  0.10945601994E+00  0.13087107272E+00  0.19263082668E-01 0.  0.
         14    1    1    2    0    0  0.15583501326E-01 -0.13258192466E-01  0.11470101604E-01  0.23456095410E-01  0.00000000000E+00 0. -1.
     999901    1    3    3    0    0  0.39280803364E-01 -0.28759174060E-01 -0.12092612154E+00  0.88960283187E+00  0.88000000000E+00 0.  1.
        -11    1    4    4    0    0 -0.43675774759E-01  0.40960830808E-01  0.97770735351E-01  0.11465051580E+00  0.51100000000E-03 0. -1.
         11    1    4    4    0    0 -0.11188529930E-01  0.10565357187E-02  0.11685284590E-01  0.16220556916E-01  0.51100000000E-03 0.  1.
</event>
<event>
 8    1  0.1078274E+005  0.1043930E+01  0.7957747E-01            NaN
         13   -1    0    0    0    0  0.00000000000E+00  0.00000000000E+00  0.74505805969E-08  0.10566000000E+00  0.10566000000E+00 0.  1.
     999900   -1    0    0    0    0 -0.00000000000E+00 -0.00000000000E+00 -0.74505805969E-08  0.93827000000E+00  0.93827000000E+00 0.  1.
     999902    2    1    2    0    0  0.26407762077E-02  0.15394289225E-01  0.18373842184E-01  0.10198145295E+01  0.10195293614E+01 0.  0.
     999903    2    3    3    0    0  0.21461584908E-01  0.99756768400E-01  0.82862311717E-01  0.13323119253E+00  0.21734200953E-01 0.  0.
         14    1    1    2    0    0 -0.26407762077E-02 -0.15394289225E-01 -0.18373842184E-01  0.24115470477E-01  0.00000000000E+00 0. -1.
     999901    1    3    3    0    0 -0.18820808701E-01 -0.84362479175E-01 -0.64488469534E-01  0.88658333699E+00  0.88000000000E+00 0. -1.
        -11    1    4    4    0    0  0.24464528718E-01  0.69524458123E-01  0.54504865208E-01  0.91668996368E-01  0.51100000000E-03 0.  1.
         11    1    4    4    0    0 -0.30029438096E-02  0.30232310277E-01  0.28357446509E-01  0.41562196161E-01  0.51100000000E-03 0. -1.
</event>
<event>
 8    1  0.1078274E+005  0.1043930E+01  0.7957747E-01            NaN
         13   -1    0    0    0    0  0.00000000000E+00  0.00000000000E+00  0.74505805969E-08  0.10566000000E+00  0.10566000000E+00 0. -1.
     999900   -1    0    0    0    0 -0.00000000000E+00 -0.00000000000E+00 -0.74505805969E-08  0.93827000000E+00  0.93827000000E+00 0.  1.
     999902    2    1    2    0    0 -0.21215094103E-01  0.15233001805E-02  0.12798339207E-01  0.10191066612E+01  0.10188042937E+01 0.  0.
     999903    2    3    3    0    0 -0.16119438684E-01  0.92575090048E-01 -0.85930763577E-01  0.12890228589E+00  0.20042943331E-01 0.  0.
         14    1    1    2    0    0  0.21215094103E-01 -0.15233001805E-02 -0.12798339207E-01  0.24823338770E-01  0.00000000000E+00 0. -1.
     999901    1    3    3    0    0 -0.50956554185E-02 -0.91051789868E-01  0.98729102783E-01  0.89020437534E+00  0.88000000000E+00 0. -1.
        -11    1    4    4    0    0 -0.50130638224E-02  0.35817037767E-01 -0.46465518457E-01  0.58883754379E-01  0.51100000000E-03 0.  1.
         11    1    4    4    0    0 -0.11106374862E-01  0.56758052281E-01 -0.39465245120E-01  0.70018531509E-01  0.51100000000E-03 0. -1.
</event>
<event>
 8    1  0.1078274E+005  0.1043930E+01  0.7957747E-01            NaN
         13   -1    0    0    0    0  0.00000000000E+00  0.00000000000E+00  0.74505805969E-08  0.10566000000E+00  0.10566000000E+00 0. -1.
     999900   -1    0    0    0    0 -0.00000000000E+00 -0.00000000000E+00 -0.74505805969E-08  0.93827000000E+00  0.93827000000E+00 0.  1.
     999902    2    1    2    0    0  0.12343379136E-01 -0.18334879099E-01  0.28523850468E-02  0.10216440650E+01  0.10214009656E+01 0.  0.
     999903    2    3    3    0    0  0.10870827419E+00 -0.73614541732E-01 -0.20660217560E-01  0.13434767898E+00  0.19643437197E-01 0.  0.
         14    1    1    2    0    0 -0.12343379136E-01  0.18334879099E-01 -0.28523850468E-02  0.22285935038E-01  0.00000000000E+00 0.  1.
     999901    1    3    3    0    0 -0.96364895055E-01  0.55279662633E-01  0.23512602607E-01  0.88729638598E+00  0.88000000000E+00 0.  1.
        -11    1    4    4    0    0  0.27499578074E-01 -0.15323233865E-01 -0.13086862514E-01  0.34096266391E-01  0.51100000000E-03 0.  1.
         11    1    4    4    0    0  0.81208696117E-01 -0.58291307868E-01 -0.75733550453E-02  0.10025141259E+00  0.51100000000E-03 0. -1.
</event>
<event>
 8    1  0.1078274E+005  0.1043930E+01  0.7957747E-01            NaN
         13   -1    0    0    0    0  0.00000000000E+00  0.00000000000E+00  0.74505805969E-08  0.10566000000E+00  0.10566000000E+00 0.  1.
     999900   -1    0    0    0    0 -0.00000000000E+00 -0.00000000000E+00 -0.74505805969E-08  0.93827000000E+00  0.93827000000E+00 0.  1.
     999902    2    1    2    0    0 -0.23491062279E-01 -0.91491509459E-03  0.38367468441E-02  0.10201100986E+01  0.10198319595E+01 0.  0.
     999903    2    3    3    0    0 -0.12210902611E+00  0.36932177480E-01  0.32854997055E-01  0.13331814777E+00  0.20486036732E-01 0.  0.
         14    1    1    2    0    0  0.23491062279E-01  0.91491509459E-03 -0.38367468441E-02  0.23819901405E-01  0.00000000000E+00 0. -1.
     999901    1    3    3    0    0  0.98617963834E-01 -0.37847092575E-01 -0.29018250211E-01  0.88679195083E+00  0.88000000000E+00 0.  1.
        -11    1    4    4    0    0 -0.61352416257E-01  0.29063066809E-01  0.15413911962E-01  0.69617746559E-01  0.51100000000E-03 0.  1.
         11    1    4    4    0    0 -0.60756609856E-01  0.78691106709E-02  0.17441085092E-01  0.63700401208E-01  0.51100000000E-03 0. -1.
</event>
<event>
 8    1  0.1078274E+005  0.1043930E+01  0.7957747E-01            NaN
         13   -1    0    0    0    0  0.00000000000E+00  0.00000000000E+00  0.74505805969E-08  0.10566000000E+00  0.10566000000E+00 0. -1.
     999900   -1    0    0    0    0 -0.00000000000E+00 -0.00000000000E+00 -0.74505805969E-08  0.93827000000E+00  0.93827000000E+00 0. -1.
     999902    2    1    2    0    0 -0.10077947283E-01  0.32431901800E-02 -0.21220095124E-01  0.10202155373E+01  0.10199398839E+01 0.  0.
     999903    2    3    3    0    0  0.10194749286E+00  0.73409673816E-01 -0.28356375134E-01  0.13031444102E+00  0.19887131955E-01 0.  0.
         14    1    1    2    0    0  0.10077947283E-01 -0.32431901800E-02  0.21220095124E-01  0.23714462698E-01  0.00000000000E+00 0. -1.
     999901    1    3    3    0    0 -0.11202544015E+00 -0.70166483636E-01  0.71362800101E-02  0.88990109628E+00  0.88000000000E+00 0. -1.
        -11    1    4    4    0    0  0.70014701079E-01  0.38614731388E-01 -0.17377482540E-01  0.81825386451E-01  0.51100000000E-03 0.  1.
         11    1    4    4    0    0  0.31932791785E-01  0.34794942428E-01 -0.10978892594E-01  0.48489054573E-01  0.51100000000E-03 0. -1.
</event>
<event>
 8    1  0.1078274E+005  0.1043930E+01  0.7957747E-01            NaN
         13   -1    0    0    0    0  0.00000000000E+00  0.00000000000E+00  0.74505805969E-08  0.10566000000E+00  0.10566000000E+00 0.  1.
     999900   -1    0    0    0    0 -0.00000000000E+00 -0.00000000000E+00 -0.74505805969E-08  0.93827000000E+00  0.93827000000E+00 0. -1.
     999902    2    1    2    0    0  0.50123422191E-02 -0.13308359441E-01  0.17222546786E-01  0.10215950023E+01  0.10213508195E+01 0.  0.
     999903    2    3    3    0    0 -0.19692351581E-01  0.61730071330E-01  0.11405809587E+00  0.13276531580E+00  0.20469231288E-01 0.  0.
         14    1    1    2    0    0 -0.50123422191E-02  0.13308359441E-01 -0.17222546786E-01  0.22334997724E-01  0.00000000000E+00 0. -1.
     999901    1    3    3    0    0  0.24704693800E-01 -0.75038430770E-01 -0.96835549086E-01  0.88882968647E+00  0.88000000000E+00 0. -1.
        -11    1    4    4    0    0 -0.20232389637E-01  0.47955970005E-01  0.74591725592E-01  0.90957744571E-01  0.51100000000E-03 0. -1.
         11    1    4    4    0    0  0.54003805636E-03  0.13774101325E-01  0.39466370279E-01  0.41807571233E-01  0.51100000000E-03 0.  1.
</event>
<event>
 8    1  0.1078274E+005  0.1043930E+01  0.7957747E-01            NaN
         13   -1    0    0    0    0  0.00000000000E+00  0.00000000000E+00  0.74505805969E-08  0.10566000000E+00  0.10566000000E+00 0. -1.
     999900   -1    0    0    0    0 -0.00000000000E+00 -0.00000000000E+00 -0.74505805969E-08  0.93827000000E+00  0.93827000000E+00 0. -1.
     999902    2    1    2    0    0 -0.14789107259E-01 -0.18276014639E-01  0.33413078093E-02  0.10201835320E+01  0.10199071253E+01 0.  0.
     999903    2    3    3    0    0  0.99185684055E-01 -0.37947492596E-01 -0.71388509802E-01  0.12947495691E+00  0.19739124073E-01 0.  0.
         14    1    1    2    0    0  0.14789107259E-01  0.18276014639E-01 -0.33413078093E-02  0.23746468000E-01  0.00000000000E+00 0.  1.
     999901    1    3    3    0    0 -0.11397479131E+00  0.19671477957E-01  0.74729817611E-01  0.89070857509E+00  0.88000000000E+00 0.  1.
        -11    1    4    4    0    0  0.63344632351E-01 -0.33133647841E-01 -0.52323138785E-01  0.88590930914E-01  0.51100000000E-03 0. -1.
         11    1    4    4    0    0  0.35841051704E-01 -0.48138447550E-02 -0.19065371018E-01  0.40884025995E-01  0.51100000000E-03 0.  1.
</event>
<event>
 8    1  0.1078274E+005  0.1043930E+01  0.7957747E-01            NaN
         13   -1    0    0    0    0  0.00000000000E+00  0.00000000000E+00  0.74505805969E-08  0.10566000000E+00  0.10566000000E+00 0.  1.
     999900   -1    0    0    0    0 -0.00000000000E+00 -0.00000000000E+00 -0.74505805969E-08  0.93827000000E+00  0.93827000000E+00 0. -1.
     999902    2    1    2    0    0  0.10973627749E-02 -0.40304448658E-02  0.20964415490E-01  0.10225534847E+01  0.10223300219E+01 0.  0.
     999903    2    3    3    0    0 -0.74280087649E-01  0.10192890161E+00  0.36780881147E-01  0.13285729848E+00  0.19778678842E-01 0.  0.
         14    1    1    2    0    0 -0.10973627749E-02  0.40304448658E-02 -0.20964415490E-01  0.21376515331E-01  0.00000000000E+00 0. -1.
     999901    1    3    3    0    0  0.75377450424E-01 -0.10595934647E+00 -0.15816465658E-01  0.88969618619E+00  0.88000000000E+00 0.  1.
        -11    1    4    4    0    0 -0.65917621518E-01  0.93902097675E-01  0.27450184085E-01  0.11796826057E+00  0.51100000000E-03 0. -1.
         11    1    4    4    0    0 -0.83624661317E-02  0.80268039315E-02  0.93306970628E-02  0.14889037908E-01  0.51100000000E-03 0.  1.
</event>
<event>
 8    1  0.1078274E+005  0.1043930E+01  0.7957747E-01            NaN
         13   -1    0    0    0    0  0.00000000000E+00  0.00000000000E+00  0.74505805969E-08  0.10566000000E+00  0.10566000000E+00 0. -1.
     999900   -1    0    0    0    0 -0.00000000000E+00 -0.00000000000E+00 -0.74505805969E-08  0.93827000000E+00  0.93827000000E+00 0. -1.
     999902    2    1    2    0    0 -0.34033900318E-02  0.17597463720E-01  0.11236665353E-01  0.10227754156E+01  0.10225566167E+01 0.  0.
     999903    2    3    3    0    0 -0.30724458059E-01 -0.53984186320E-02  0.12876217950E+00  0.13424432563E+00  0.21649592310E-01 0.  0.
         14    1    1    2    0    0  0.34033900318E-02 -0.17597463720E-01 -0.11236665353E-01  0.21154584405E-01  0.00000000000E+00 0. -1.
     999901    1    3    3    0    0  0.27321068028E-01  0.22995882352E-01 -0.11752551415E+00  0.88853108997E+00  0.88000000000E+00 0. -1.
        -11    1    4    4    0    0 -0.96433185722E-02  0.61044001120E-02  0.67156785738E-01  0.68121599258E-01  0.51100000000E-03 0.  1.
         11    1    4    4    0    0 -0.21081139487E-01 -0.11502818744E-01  0.61605393761E-01  0.66122726370E-01  0.51100000000E-03 0. -1.
</event>
<event>
 8    1  0.1078274E+005  0.1043930E+01  0.7957747E-01            NaN
         13   -1    0    0    0    0  0.00000000000E+00  0.00000000000E+00  0.74505805969E-08  0.10566000000E+00  0.10566000000E+00 0. -1.
     999900   -1    0    0    0    0 -0.00000000000E+00 -0.00000000000E+00 -0.74505805969E-08  0.93827000000E+00  0.93827000000E+00 0.  1.
     999902    2    1    2    0    0  0.79994139585E-02  0.15015266007E-01  0.17633947317E-01  0.10194268383E+01  0.10191323141E+01 0.  0.
     999903    2    3    3    0    0 -0.11535198244E+00  0.50875112269E-01  0.25553282868E-01  0.13006515063E+00  0.19225406146E-01 0.  0.
         14    1    1    2    0    0 -0.79994139585E-02 -0.15015266007E-01 -0.17633947317E-01  0.24503161733E-01  0.00000000000E+00 0.  1.
     999901    1    3    3    0    0  0.12335139640E+00 -0.35859846262E-01 -0.79193355512E-02  0.88936168764E+00  0.88000000000E+00 0. -1.
        -11    1    4    4    0    0 -0.75247947076E-01  0.42795808435E-01  0.15657829346E-01  0.87972515592E-01  0.51100000000E-03 0.  1.
         11    1    4    4    0    0 -0.40104035362E-01  0.80793038337E-02  0.98954535225E-02  0.42092635035E-01  0.51100000000E-03 0. -1.
</event>
<event>
 8    1  0.1078274E+005  0.1043930E+01  0.7957747E-01            NaN
         13   -1    0    0    0    0  0.00000000000E+00  0.00000000000E+00  0.74505805969E-08  0.10566000000E+00  0.10566000000E+00 0. -1.
     999900   -1    0    0    0    0 -0.00000000000E+00 -0.00000000000E+00 -0.74505805969E-08  0.93827000000E+00  0.93827000000E+00 0.  1.
     999902    2    1    2    0    0 -0.10570428196E-01  0.10870054239E-02 -0.20975706544E-01  0.10204162636E+01  0.10201453109E+01 0.  0.
     999903    2    3    3    0    0 -0.14147566079E-01  0.73828928268E-01  0.10277043972E+00  0.12877884182E+00  0.19270769209E-01 0.  0.
         14    1    1    2    0    0  0.10570428196E-01 -0.10870054239E-02  0.20975706544E-01  0.23513736369E-01  0.00000000000E+00 0. -1.
     999901    1    3    3    0    0  0.35771378835E-02 -0.72741922844E-01 -0.12374614626E+00  0.89163742181E+00  0.88000000000E+00 0.  1.
        -11    1    4    4    0    0 -0.95823792862E-02  0.21063619964E-01  0.43619745427E-01  0.49380577061E-01  0.51100000000E-03 0.  1.
         11    1    4    4    0    0 -0.45651867929E-02  0.52765308304E-01  0.59150694292E-01  0.79398264761E-01  0.51100000000E-03 0. -1.
</event>
<event>
 8    1  0.1078274E+005  0.1043930E+01  0.7957747E-01            NaN
         13   -1    0    0    0    0  0.00000000000E+00  0.00000000000E+00  0.74505805969E-08  0.10566000000E+00  0.10566000000E+00 0.  1.
     999900   -1    0    0    0    0 -0.00000000000E+00 -0.00000000000E+00 -0.74505805969E-08  0.93827000000E+00  0.93827000000E+00 0.  1.
     999902    2    1    2    0    0  0.10260365674E-01 -0.16267045737E-01  0.13428730905E-01  0.10204731738E+01  0.10202035463E+01 0.  0.
     999903    2    3    3    0    0  0.80075317443E-01 -0.86507041117E-01  0.59845486259E-01  0.13370245959E+00  0.19983514398E-01 0.  0.
         14    1    1    2    0    0 -0.10260365674E-01  0.16267045737E-01 -0.13428730905E-01  0.23456826181E-01  0.00000000000E+00 0.  1.
     999901    1    3    3    0    0 -0.69814951769E-01  0.70239995380E-01 -0.46416755354E-01  0.88677071423E+00  0.88000000000E+00 0.  1.
        -11    1    4    4    0    0  0.42914580750E-02 -0.11172307195E-01  0.10788690190E-01  0.16121228784E-01  0.51100000000E-03 0.  1.
         11    1    4    4    0    0  0.75783859368E-01 -0.75334733922E-01  0.49056796069E-01  0.11758123080E+00  0.51100000000E-03 0. -1.
</event>
<event>
 8    1  0.1078274E+005  0.1043930E+01  0.7957747E-01            NaN
         13   -1    0    0    0    0  0.00000000000E+00  0.00000000000E+00  0.74505805969E-08  0.10566000000E+00  0.10566000000E+00 0.  1.
     999900   -1    0    0    0    0 -0.00000000000E+00 -0.00000000000E+00 -0.74505805969E-08  0.93827000000E+00  0.93827000000E+00 0.  1.
     999902    2    1    2    0    0 -0.17653418060E-01  0.14007438474E-01  0.48523147186E-02  0.10208779619E+01  0.10206176643E+01 0.  0.
     999903    2    3    3    0    0  0.37551956945E-01 -0.11378112592E+00 -0.42490372483E-01  0.12867905996E+00  0.19914181683E-01 0.  0.
         14    1    1    2    0    0  0.17653418060E-01 -0.14007438474E-01 -0.48523147186E-02  0.23052038087E-01  0.00000000000E+00 0. -1.
     999901    1    3    3    0    0 -0.55205375006E-01  0.12778856439E+00  0.47342687202E-01  0.89219890196E+00  0.88000000000E+00 0.  1.
        -11    1    4    4    0    0  0.17865592166E-01 -0.57893647049E-01 -0.31935378486E-01  0.68490753187E-01  0.51100000000E-03 0.  1.
         11    1    4    4    0    0  0.19686364779E-01 -0.55887478870E-01 -0.10554993997E-01  0.60188306771E-01  0.51100000000E-03 0. -1.
</event>
<event>
 8    1  0.1078274E+005  0.1043930E+01  0.7957747E-01            NaN
         13   -1    0    0    0    0  0.00000000000E+00  0.00000000000E+00  0.74505805969E-08  0.10566000000E+00  0.10566000000E+00 0. -1.
     999900   -1    0    0    0    0 -0.00000000000E+00 -0.00000000000E+00 -0.74505805969E-08  0.93827000000E+00  0.93827000000E+00 0. -1.
     999902    2    1    2    0    0 -0.17647806628E-01  0.31573023009E-02 -0.15032533100E-01  0.10205336181E+01  0.10202653943E+01 0.  0.
     999903    2    3    3    0    0  0.53012488447E-02 -0.37584803801E-02  0.12702864226E+00  0.12881849273E+00  0.20388690458E-01 0.  0.
         14    1    1    2    0    0  0.17647806628E-01 -0.31573023009E-02  0.15032533100E-01  0.23396381943E-01  0.00000000000E+00 0. -1.
     999901    1    3    3    0    0 -0.22949055473E-01  0.69157826811E-02 -0.14206117537E+00  0.89171512533E+00  0.88000000000E+00 0. -1.
        -11    1    4    4    0    0 -0.57259290982E-02  0.37434481421E-02  0.65535805480E-01  0.65893873683E-01  0.51100000000E-03 0.  1.
         11    1    4    4    0    0  0.11027177943E-01 -0.75019285222E-02  0.61492836785E-01  0.62924619043E-01  0.51100000000E-03 0. -1.
</event>
<event>
 8    1  0.1078274E+005  0.1043930E+01  0.7957747E-01            NaN
         13   -1    0    0    0    0  0.00000000000E+00  0.00000000000E+00  0.74505805969E-08  0.10566000000E+00  0.10566000000E+00 0. -1.
     999900   -1    0    0    0    0 -0.00000000000E+00 -0.00000000000E+00 -0.74505805969E-08  0.93827000000E+00  0.93827000000E+00 0. -1.
     999902    2    1    2    0    0  0.23646120320E-01 -0.18294312140E-01  0.59861043449E-02  0.10134397670E+01  0.10129810003E+01 0.  0.
     999903    2    3    3    0    0 -0.79774824869E-01 -0.88779070348E-01  0.28857638897E-01  0.12429011698E+00  0.19223002939E-01 0.  0.
         14    1    1    2    0    0 -0.23646120320E-01  0.18294312140E-01 -0.59861043449E-02  0.30490232995E-01  0.00000000000E+00 0.  1.
     999901    1    3    3    0    0  0.10342094519E+00  0.70484758207E-01 -0.22871534552E-01  0.88914965002E+00  0.88000000000E+00 0. -1.
        -11    1    4    4    0    0 -0.95382576169E-02 -0.11565510705E-01  0.10493447532E-01  0.18306090744E-01  0.51100000000E-03 0. -1.
         11    1    4    4    0    0 -0.70236567252E-01 -0.77213559643E-01  0.18364191365E-01  0.10598402624E+00  0.51100000000E-03 0.  1.
</event>
<event>
 8    1  0.1078274E+005  0.1043930E+01  0.7957747E-01            NaN
         13   -1    0    0    0    0  0.00000000000E+00  0.00000000000E+00  0.74505805969E-08  0.10566000000E+00  0.10566000000E+00 0.  1.
     999900   -1    0    0    0    0 -0.00000000000E+00 -0.00000000000E+00 -0.74505805969E-08  0.93827000000E+00  0.93827000000E+00 0. -1.
     999902    2    1    2    0    0  0.13715452287E-01  0.17989897498E-01 -0.60458896076E-02  0.10205141331E+01  0.10202454572E+01 0.  0.
     999903    2    3    3    0    0 -0.44821024482E-01  0.47590602084E-02  0.11985635126E+00  0.12952987482E+00  0.19515907458E-01 0.  0.
         14    1    1    2    0    0 -0.13715452287E-01 -0.17989897498E-01  0.60458896076E-02  0.23415866940E-01  0.00000000000E+00 0. -1.
     999901    1    3    3    0    0  0.58536476769E-01  0.13230837289E-01 -0.12590224087E+00  0.89098425824E+00  0.88000000000E+00 0. -1.
        -11    1    4    4    0    0 -0.85184121909E-02 -0.67000938260E-02  0.31648207513E-01  0.33456311263E-01  0.51100000000E-03 0. -1.
         11    1    4    4    0    0 -0.36302612291E-01  0.11459154034E-01  0.88208143751E-01  0.96073563561E-01  0.51100000000E-03 0.  1.
</event>
<event>
 7    1  0.1078274E+005  0.1043930E+01  0.7957747E-01            NaN
         13   -1    0    0    0    0  0.00000000000E+00  0.00000000000E+00  0.74505805969E-08  0.10566000000E+00  0.10566000000E+00 0.  1.
     999900   -1    0    0    0    0 -0.00000000000E+00 -0.00000000000E+00 -0.74505805969E-08  0.93827000000E+00  0.93827000000E+00 0. -1.
     999903    2    1    2    0    0 -0.77917251900E-01 -0.18128833194E-01  0.46169303513E-01  0.94615319726E-01  0.20511006883E-01 0.  0.
         14    1    1    2    0    0 -0.81702863024E-02  0.57035407502E-01 -0.28026362755E-01  0.64072367652E-01  0.00000000000E+00 0. -1.
     999901    1    1    2    0    0  0.86087538202E-01 -0.38906574308E-01 -0.18142940758E-01  0.88524231262E+00  0.88000000000E+00 0. -1.
        -11    1    3    3    0    0 -0.55878653470E-01 -0.59173211413E-02  0.24200083629E-01  0.61182871555E-01  0.51100000000E-03 0. -1.
         11    1    3    3    0    0 -0.22038598430E-01 -0.12211512053E-01  0.21969219884E-01  0.33432448171E-01  0.51100000000E-03 0.  1.
</event>
<event>
 8    1  0.1078274E+005  0.1043930E+01  0.7957747E-01            NaN
         13   -1    0    0    0    0  0.00000000000E+00  0.00000000000E+00  0.74505805969E-08  0.10566000000E+00  0.10566000000E+00 0. -1.
     999900   -1    0    0    0    0 -0.00000000000E+00 -0.00000000000E+00 -0.74505805969E-08  0.93827000000E+00  0.93827000000E+00 0. -1.
     999902    2    1    2    0    0  0.73405234034E-02  0.97836936538E-02 -0.19486357748E-01  0.10209229992E+01  0.10206637293E+01 0.  0.
     999903    2    3    3    0    0  0.11670870863E+00 -0.56891105845E-01  0.76472583233E-03  0.13141918519E+00  0.20319863107E-01 0.  0.
         14    1    1    2    0    0 -0.73405234034E-02 -0.97836936538E-02  0.19486357748E-01  0.23007000753E-01  0.00000000000E+00 0. -1.
     999901    1    3    3    0    0 -0.10936818523E+00  0.66674799499E-01 -0.20251083581E-01  0.88950381405E+00  0.88000000000E+00 0.  1.
        -11    1    4    4    0    0  0.18428575346E-01 -0.32150773565E-02  0.49491388203E-02  0.19357277901E-01  0.51100000000E-03 0.  1.
         11    1    4    4    0    0  0.98280133286E-01 -0.53676028489E-01 -0.41844129880E-02  0.11206190729E+00  0.51100000000E-03 0. -1.
</event>
<event>
 8    1  0.1078274E+005  0.1043930E+01  0.7957747E-01            NaN
         13   -1    0    0    0    0  0.00000000000E+00  0.00000000000E+00  0.74505805969E-08  0.10566000000E+00  0.10566000000E+00 0. -1.
     999900   -1    0    0    0    0 -0.00000000000E+00 -0.00000000000E+00 -0.74505805969E-08  0.93827000000E+00  0.93827000000E+00 0. -1.
     999902    2    1    2    0    0 -0.75716708688E-02  0.17092888670E-01  0.17407444125E-01  0.10183856043E+01  0.10180651859E+01 0.  0.
     999903    2    3    3    0    0 -0.12213604883E+00  0.20290523790E-01  0.26887121304E-01  0.13090316170E+00  0.32921128035E-01 0.  0.
         14    1    1    2    0    0  0.75716708688E-02 -0.17092888670E-01 -0.17407444125E-01  0.25544395742E-01  0.00000000000E+00 0.  1.
     999901    1    3    3    0    0  0.11456437796E+00 -0.31976351194E-02 -0.94796771788E-02  0.88748244256E+00  0.88000000000E+00 0. -1.
        -11    1    4    4    0    0 -0.54877766464E-01 -0.36840665398E-02  0.11958248606E-02  0.55016658536E-01  0.51100000000E-03 0.  1.
         11    1    4    4    0    0 -0.67258282369E-01  0.23974590329E-01  0.25691296444E-01  0.75886503165E-01  0.51100000000E-03 0. -1.
</event>
<event>
 8    1  0.1078274E+005  0.1043930E+01  0.7957747E-01            NaN
         13   -1    0    0    0    0  0.00000000000E+00  0.00000000000E+00  0.74505805969E-08  0.10566000000E+00  0.10566000000E+00 0. -1.
     999900   -1    0    0    0    0 -0.00000000000E+00 -0.00000000000E+00 -0.74505805969E-08  0.93827000000E+00  0.93827000000E+00 0.  1.
     999902    2    1    2    0    0  0.22877871985E-01  0.88830088692E-02  0.43370079419E-02  0.10190078309E+01  0.10187030210E+01 0.  0.
     999903    2    3    3    0    0  0.43130600227E-01  0.10673317950E+00 -0.60526665343E-01  0.13098073393E+00  0.15500166549E-01 0.  0.
         14    1    1    2    0    0 -0.22877871985E-01 -0.88830088692E-02 -0.43370079419E-02  0.24922169067E-01  0.00000000000E+00 0.  1.
     999901    1    3    3    0    0 -0.20252728242E-01 -0.97850170626E-01  0.64863673285E-01  0.88802709700E+00  0.88000000000E+00 0.  1.
        -11    1    4    4    0    0  0.23289116113E-01  0.51383833078E-01 -0.21338538937E-01  0.60318119964E-01  0.51100000000E-03 0. -1.
         11    1    4    4    0    0  0.19841484114E-01  0.55349346418E-01 -0.39188126406E-01  0.70662613969E-01  0.51100000000E-03 0.  1.
</event>
<event>
 8    1  0.1078274E+005  0.1043930E+01  0.7957747E-01            NaN
         13   -1    0    0    0    0  0.00000000000E+00  0.00000000000E+00  0.74505805969E-08  0.10566000000E+00  0.10566000000E+00 0. -1.
     999900   -1    0    0    0    0 -0.00000000000E+00 -0.00000000000E+00 -0.74505805969E-08  0.93827000000E+00  0.93827000000E+00 0. -1.
     999902    2    1    2    0    0  0.23288680707E-01 -0.37137493651E-02  0.47021302785E-02  0.10198828669E+01  0.10195993318E+01 0.  0.
     999903    2    3    3    0    0  0.73307780624E-01  0.10484059390E+00 -0.21459607697E-01  0.13141767770E+00  0.21083415766E-01 0.  0.
         14    1    1    2    0    0 -0.23288680707E-01  0.37137493651E-02 -0.47021302785E-02  0.24047133147E-01  0.00000000000E+00 0. -1.
     999901    1    3    3    0    0 -0.50019099917E-01 -0.10855434327E+00  0.26161737975E-01  0.88846518915E+00  0.88000000000E+00 0.  1.
        -11    1    4    4    0    0  0.28168128196E-02  0.25948535810E-02  0.29365600896E-02  0.48530614798E-02  0.51100000000E-03 0. -1.
         11    1    4    4    0    0  0.70490967805E-01  0.10224574032E+00 -0.24396167786E-01  0.12656461622E+00  0.51100000000E-03 0.  1.
</event>
<event>
 8    1  0.1078274E+005  0.1043930E+01  0.7957747E-01            NaN
         13   -1    0    0    0    0  0.00000000000E+00  0.00000000000E+00  0.74505805969E-08  0.10566000000E+00  0.10566000000E+00 0.  1.
     999900   -1    0    0    0    0 -0.00000000000E+00 -0.00000000000E+00 -0.74505805969E-08  0.93827000000E+00  0.93827000000E+00 0. -1.
     999902    2    1    2    0    0  0.18141020852E-02  0.71098999260E-02 -0.24034460876E-01  0.10188003969E+01  0.10184904279E+01 0.  0.
     999903    2    3    3    0    0  0.98720451997E-02 -0.36525672081E-01 -0.12489168381E+00  0.13192883177E+00  0.19383033002E-01 0.  0.
         14    1    1    2    0    0 -0.18141020852E-02 -0.71098999260E-02  0.24034460876E-01  0.25129603120E-01  0.00000000000E+00 0.  1.
     999901    1    3    3    0    0 -0.80579431146E-02  0.43635572007E-01  0.10085722293E+00  0.88687156512E+00  0.88000000000E+00 0.  1.
        -11    1    4    4    0    0 -0.64991969807E-03 -0.24033965850E-01 -0.93447590131E-01  0.96492316442E-01  0.51100000000E-03 0. -1.
         11    1    4    4    0    0  0.10521964898E-01 -0.12491706231E-01 -0.31444093681E-01  0.35436515323E-01  0.51100000000E-03 0.  1.
</event>
<event>
 8    1  0.1078274E+005  0.1043930E+01  0.7957747E-01            NaN
         13   -1    0    0    0    0  0.00000000000E+00  0.00000000000E+00  0.74505805969E-08  0.10566000000E+00  0.10566000000E+00 0.  1.
     999900   -1    0    0    0    0 -0.00000000000E+00 -0.00000000000E+00 -0.74505805969E-08  0.93827000000E+00  0.93827000000E+00 0.  1.
     999902    2    1    2    0    0 -0.12684252492E-01  0.49498907010E-02  0.17950632422E-01  0.10213996453E+01  0.10211511242E+01 0.  0.
     999903    2    3    3    0    0 -0.98788692648E-01 -0.74489710735E-01  0.44964792313E-01  0.13322489349E+00  0.20472344693E-01 0.  0.
         14    1    1    2    0    0  0.12684252492E-01 -0.49498907010E-02 -0.17950632422E-01  0.22530354715E-01  0.00000000000E+00 0. -1.
     999901    1    3    3    0    0  0.86104440156E-01  0.79439601436E-01 -0.27014159890E-01  0.88817475179E+00  0.88000000000E+00 0. -1.
        -11    1    4    4    0    0 -0.87003956793E-01 -0.71877371360E-01  0.37049027614E-01  0.11878104470E+00  0.51100000000E-03 0. -1.
         11    1    4    4    0    0 -0.11784735855E-01 -0.26123393748E-02  0.79157646982E-02  0.14443848793E-01  0.51100000000E-03 0.  1.
</event>
<event>
 8    1  0.1078274E+005  0.1043930E+01  0.7957747E-01            NaN
         13   -1    0    0    0    0  0.00000000000E+00  0.00000000000E+00  0.74505805969E-08  0.10566000000E+00  0.10566000000E+00 0.  1.
     999900   -1    0    0    0    0 -0.00000000000E+00 -0.00000000000E+00 -0.74505805969E-08  0.93827000000E+00  0.93827000000E+00 0.  1.
     999902    2    1    2    0    0  0.14003333495E-01 -0.32715151090E-02  0.18069059897E-01  0.10208369905E+01  0.10205757562E+01 0.  0.
     999903    2    3    3    0    0  0.88902747087E-01 -0.63832380922E-02 -0.93419252480E-01  0.13064080499E+00  0.19885145891E-01 0.  0.
         14    1    1    2    0    0 -0.14003333495E-01  0.32715151090E-02 -0.18069059897E-01  0.23093009454E-01  0.00000000000E+00 0. -1.
     999901    1    3    3    0    0 -0.74899413592E-01  0.31117229832E-02  0.11148831238E+00  0.89019618555E+00  0.88000000000E+00 0. -1.
        -11    1    4    4    0    0  0.69631637997E-01  0.33680199129E-02 -0.70787449948E-01  0.99353071212E-01  0.51100000000E-03 0. -1.
         11    1    4    4    0    0  0.19271109090E-01 -0.97512580051E-02 -0.22631802532E-01  0.31287733780E-01  0.51100000000E-03 0.  1.
</event>
<event>
 8    1  0.1078274E+005  0.1043930E+01  0.7957747E-01            NaN
         13   -1    0    0    0    0  0.00000000000E+00  0.00000000000E+00  0.74505805969E-08  0.10566000000E+00  0.10566000000E+00 0. -1.
     999900   -1    0    0    0    0 -0.00000000000E+00 -0.00000000000E+00 -0.74505805969E-08  0.93827000000E+00  0.93827000000E+00 0. -1.
     999902    2    1    2    0    0 -0.19045480463E-03 -0.21673460032E-01 -0.10683387589E-01  0.10197657720E+01  0.10194794357E+01 0.  0.
     999903    2    3    3    0    0 -0.95682617654E-01  0.79004459533E-01  0.25444056489E-01  0.12816048444E+00  0.19515168814E-01 0.  0.
         14    1    1    2    0    0  0.19045480463E-03  0.21673460032E-01  0.10683387589E-01  0.24164227965E-01  0.00000000000E+00 0. -1.
     999901    1    3    3    0    0  0.95492162849E-01 -0.10067791956E+00 -0.36127444078E-01  0.89160528760E+00  0.88000000000E+00 0. -1.
        -11    1    4    4    0    0 -0.32819220225E-01  0.30155395537E-01 -0.24482787801E-04  0.44572534330E-01  0.51100000000E-03 0. -1.
         11    1    4    4    0    0 -0.62863397428E-01  0.48849063996E-01  0.25468539277E-01  0.83587950109E-01  0.51100000000E-03 0.  1.
</event>
<event>
 8    1  0.1078274E+005  0.1043930E+01  0.7957747E-01            NaN
         13   -1    0    0    0    0  0.00000000000E+00  0.00000000000E+00  0.74505805969E-08  0.10566000000E+00  0.10566000000E+00 0. -1.
     999900   -1    0    0    0    0 -0.00000000000E+00 -0.00000000000E+00 -0.74505805969E-08  0.93827000000E+00  0.93827000000E+00 0.  1.
     999902    2    1    2    0    0  0.16271802420E-01  0.30339078020E-03  0.18266510884E-01  0.10194651473E+01  0.10191715545E+01 0.  0.
     999903    2    3    3    0    0 -0.80985447908E-01  0.90882270303E-01 -0.34100923611E-01  0.12794630037E+00  0.19726960194E-01 0.  0.
         14    1    1    2    0    0 -0.16271802420E-01 -0.30339078020E-03 -0.18266510884E-01  0.24464852745E-01  0.00000000000E+00 0. -1.
     999901    1    3    3    0    0  0.97257250329E-01 -0.90578879523E-01  0.52367434495E-01  0.89151884689E+00  0.88000000000E+00 0. -1.
        -11    1    4    4    0    0 -0.28184769148E-01  0.38723752970E-01 -0.47479423578E-02  0.48132258763E-01  0.51100000000E-03 0.  1.
         11    1    4    4    0    0 -0.52800678761E-01  0.52158517333E-01 -0.29352981253E-01  0.79814041606E-01  0.51100000000E-03 0. -1.
</event>
<event>
 8    1  0.1078274E+005  0.1043930E+01  0.7957747E-01            NaN
         13   -1    0    0    0    0  0.00000000000E+00  0.00000000000E+00  0.74505805969E-08  0.10566000000E+00  0.10566000000E+00 0.  1.
     999900   -1    0    0    0    0 -0.00000000000E+00 -0.00000000000E+00 -0.74505805969E-08  0.93827000000E+00  0.93827000000E+00 0. -1.
     999902    2    1    2    0    0 -0.13412410256E-01 -0.19515130554E-01 -0.18277850101E-02  0.10201797607E+01  0.10199032651E+01 0.  0.
     999903    2    3    3    0    0 -0.10922892201E+00  0.25108437939E-01  0.65383161390E-01  0.13131004126E+00  0.20148897832E-01 0.  0.
         14    1    1    2    0    0  0.13412410256E-01  0.19515130554E-01  0.18277850101E-02  0.23750239314E-01  0.00000000000E+00 0.  1.
     999901    1    3    3    0    0  0.95816511755E-01 -0.44623568492E-01 -0.67210946401E-01  0.88886971942E+00  0.88000000000E+00 0.  1.
        -11    1    4    4    0    0 -0.17940896241E-01 -0.21578908382E-02  0.60128715685E-02  0.19051194091E-01  0.51100000000E-03 0. -1.
         11    1    4    4    0    0 -0.91288025771E-01  0.27266328777E-01  0.59370289822E-01  0.11225884717E+00  0.51100000000E-03 0.  1.
</event>
<event>
 8    1  0.1078274E+005  0.1043930E+01  0.7957747E-01            NaN
         13   -1    0    0    0    0  0.00000000000E+00  0.00000000000E+00  0.74505805969E-08  0.10566000000E+00  0.10566000000E+00 0. -1.
     999900   -1    0    0    0    0 -0.00000000000E+00 -0.00000000000E+00 -0.74505805969E-08  0.93827000000E+00  0.93827000000E+00 0. -1.
     999902    2    1    2    0    0  0.22324119362E-01 -0.15774284129E-02 -0.72776761552E-02  0.10203966374E+01  0.10201252268E+01 0.  0.
     999903    2    3    3    0    0 -0.15578477306E-01  0.10458879860E+00  0.72237682364E-01  0.12964944158E+00  0.20228425576E-01 0.  0.
         14    1    1    2    0    0 -0.22324119362E-01  0.15774284129E-02  0.72776761552E-02  0.23533362613E-01  0.00000000000E+00 0. -1.
     999901    1    3    3    0    0  0.37902596668E-01 -0.10616622701E+00 -0.79515358520E-01  0.89074719580E+00  0.88000000000E+00 0. -1.
        -11    1    4    4    0    0  0.31209783988E-02  0.45501672018E-01  0.32959566584E-01  0.56273766650E-01  0.51100000000E-03 0. -1.
         11    1    4    4    0    0 -0.18699455705E-01  0.59087126583E-01  0.39278115781E-01  0.73375674932E-01  0.51100000000E-03 0.  1.
</event>
<event>
 8    1  0.1078274E+005  0.1043930E+01  0.7957747E-01            NaN
         13   -1    0    0    0    0  0.00000000000E+00  0.00000000000E+00  0.74505805969E-08  0.10566000000E+00  0.10566000000E+00 0.  1.
     999900   -1    0    0    0    0 -0.00000000000E+00 -0.00000000000E+00 -0.74505805969E-08  0.93827000000E+00  0.93827000000E+00 0. -1.
     999902    2    1    2    0    0  0.11831835457E-01 -0.18748818076E-01 -0.98988968322E-02  0.10196504063E+01  0.10193612963E+01 0.  0.
     999903    2    3    3    0    0 -0.83491456176E-01  0.34585060378E-01 -0.90306723121E-01  0.12925922768E+00  0.19639094774E-01 0.  0.
         14    1    1    2    0    0 -0.11831835457E-01  0.18748818076E-01  0.98988968322E-02  0.24279593655E-01  0.00000000000E+00 0.  1.
     999901    1    3    3    0    0  0.95323291633E-01 -0.53333878453E-01  0.80407826289E-01  0.89039117867E+00  0.88000000000E+00 0. -1.
        -11    1    4    4    0    0 -0.54503570874E-01  0.23109116869E-01 -0.45482777310E-01  0.74656645206E-01  0.51100000000E-03 0.  1.
         11    1    4    4    0    0 -0.28987885302E-01  0.11475943508E-01 -0.44823945811E-01  0.54602582473E-01  0.51100000000E-03 0. -1.
</event>
<event>
 8    1  0.1078274E+005  0.1043930E+01  0.7957747E-01            NaN
         13   -1    0    0    0    0  0.00000000000E+00  0.00000000000E+00  0.74505805969E-08  0.10566000000E+00  0.10566000000E+00 0. -1.
     999900   -1    0    0    0    0 -0.00000000000E+00 -0.00000000000E+00 -0.74505805969E-08  0.93827000000E+00  0.93827000000E+00 0.  1.
     999902    2    1    2    0    0  0.86816963166E-02  0.14754951817E-01 -0.15907731470E-01  0.10205604391E+01  0.10202928372E+01 0.  0.
     999903    2    3    3    0    0  0.11300235680E+00  0.33294118150E-01 -0.58673183631E-01  0.13317360986E+00  0.20362635844E-01 0.  0.
         14    1    1    2    0    0 -0.86816963166E-02 -0.14754951817E-01  0.15907731470E-01  0.23369560855E-01  0.00000000000E+00 0. -1.
     999901    1    3    3    0    0 -0.10432066049E+00 -0.18539166333E-01  0.42765452161E-01  0.88738682929E+00  0.88000000000E+00 0.  1.
        -11    1    4    4    0    0  0.91799287461E-01  0.35038915230E-01 -0.48907126573E-01  0.10975883978E+00  0.51100000000E-03 0.  1.
         11    1    4    4    0    0  0.21203069344E-01 -0.17447970801E-02 -0.97660570584E-02  0.23414770080E-01  0.51100000000E-03 0. -1.
</event>
<event>
 8    1  0.1078274E+005  0.1043930E+01  0.7957747E-01            NaN
         13   -1    0    0    0    0  0.00000000000E+00  0.00000000000E+00  0.74505805969E-08  0.10566000000E+00  0.10566000000E+00 0.  1.
     999900   -1    0    0    0    0 -0.00000000000E+00 -0.00000000000E+00 -0.74505805969E-08  0.93827000000E+00  0.93827000000E+00 0. -1.
     999902    2    1    2    0    0 -0.22465925739E-02 -0.94914781094E-03  0.23899010346E-01  0.10199068704E+01  0.10196239079E+01 0.  0.
     999903    2    3    3    0    0  0.10132679998E+00  0.73537551809E-01 -0.25471323857E-01  0.12933786917E+00  0.20114774266E-01 0.  0.
         14    1    1    2    0    0  0.22465925739E-02  0.94914781094E-03 -0.23899010346E-01  0.24023129589E-01  0.00000000000E+00 0. -1.
     999901    1    3    3    0    0 -0.10357339255E+00 -0.74486699620E-01  0.49370334202E-01  0.89056900124E+00  0.88000000000E+00 0. -1.
        -11    1    4    4    0    0  0.61263271834E-01  0.42026743150E-01 -0.51825637801E-02  0.74475201939E-01  0.51100000000E-03 0.  1.
         11    1    4    4    0    0  0.40063528143E-01  0.31510808659E-01 -0.20288760077E-01  0.54862667235E-01  0.51100000000E-03 0. -1.
</event>
<event>
 8    1  0.1078274E+005  0.1043930E+01  0.7957747E-01            NaN
         13   -1    0    0    0    0  0.00000000000E+00  0.00000000000E+00  0.74505805969E-08  0.10566000000E+00  0.10566000000E+00 0.  1.
     999900   -1    0    0    0    0 -0.00000000000E+00 -0.00000000000E+00 -0.74505805969E-08  0.93827000000E+00  0.93827000000E+00 0.  1.
     999902    2    1    2    0    0  0.12729750055E-01 -0.19416117032E-01  0.55180584976E-03  0.10207063778E+01  0.10204421459E+01 0.  0.
     999903    2    3    3    0    0 -0.36398774871E-01  0.42808461287E-01  0.11516286792E+00  0.12973993309E+00  0.20310807982E-01 0.  0.
         14    1    1    2    0    0 -0.12729750055E-01  0.19416117032E-01 -0.55180584976E-03  0.23223622171E-01  0.00000000000E+00 0. -1.
     999901    1    3    3    0    0  0.49128524926E-01 -0.62224578319E-01 -0.11461106207E+00  0.89096644474E+00  0.88000000000E+00 0.  1.
        -11    1    4    4    0    0 -0.84871356406E-02  0.63468151278E-02  0.42324866362E-01  0.43634492860E-01  0.51100000000E-03 0.  1.
         11    1    4    4    0    0 -0.27911639230E-01  0.36461646159E-01  0.72838001554E-01  0.86105440226E-01  0.51100000000E-03 0. -1.
</event>
<event>
 8    1  0.1078274E+005  0.1043930E+01  0.7957747E-01            NaN
         13   -1    0    0    0    0  0.00000000000E+00  0.00000000000E+00  0.74505805969E-08  0.10566000000E+00  0.10566000000E+00 0.  1.
     999900   -1    0    0    0    0 -0.00000000000E+00 -0.00000000000E+00 -0.74505805969E-08  0.93827000000E+00  0.93827000000E+00 0. -1.
     999902    2    1    2    0    0  0.99496439206E-02  0.10370932026E-01  0.86210938899E-02  0.10271706771E+01  0.10270339454E+01 0.  0.
     999903    2    3    3    0    0 -0.58874287061E-01 -0.86783083186E-01  0.84176493177E-01  0.13594441258E+00  0.19942820886E-01 0.  0.
         14    1    1    2    0    0 -0.99496439206E-02 -0.10370932026E-01 -0.86210938899E-02  0.16759322931E-01  0.00000000000E+00 0. -1.
     999901    1    3    3    0    0  0.68823930982E-01  0.97154015212E-01 -0.75555399287E-01  0.89122626449E+00  0.88000000000E+00 0. -1.
        -11    1    4    4    0    0 -0.11661754207E-01 -0.15516902476E-01  0.26366591290E-01  0.32744908473E-01  0.51100000000E-03 0.  1.
         11    1    4    4    0    0 -0.47212532854E-01 -0.71266180710E-01  0.57809901887E-01  0.10319950411E+00  0.51100000000E-03 0. -1.
</event>
<event>
 8    1  0.1078274E+005  0.1043930E+01  0.7957747E-01            NaN
         13   -1    0    0    0    0  0.00000000000E+00  0.00000000000E+00  0.74505805969E-08  0.10566000000E+00  0.10566000000E+00 0.  1.
     999900   -1    0    0    0    0 -0.00000000000E+00 -0.00000000000E+00 -0.74505805969E-08  0.93827000000E+00  0.93827000000E+00 0.  1.
     999902    2    1    2    0    0  0.11820619796E-01 -0.19319037427E-01 -0.69959391234E-02  0.10202256666E+01  0.10199502514E+01 0.  0.
     999903    2    3    3    0    0  0.85548345145E-01  0.10870589028E-01  0.95790301220E-01  0.13066835968E+00  0.21488353825E-01 0.  0.
         14    1    1    2    0    0 -0.11820619796E-01  0.19319037427E-01  0.69959391234E-02  0.23704333437E-01  0.00000000000E+00 0. -1.
     999901    1    3    3    0    0 -0.73727725349E-01 -0.30189626455E-01 -0.10278624034E+00  0.88955730689E+00  0.88000000000E+00 0.  1.
        -11    1    4    4    0    0  0.25048994403E-01  0.30773097661E-02  0.43635467469E-01  0.50410684366E-01  0.51100000000E-03 0.  1.
         11    1    4    4    0    0  0.60499350741E-01  0.77932792621E-02  0.52154833751E-01  0.80257675312E-01  0.51100000000E-03 0. -1.
</event>
<event>
 8    1  0.1078274E+005  0.1043930E+01  0.7957747E-01            NaN
         13   -1    0    0    0    0  0.00000000000E+00  0.00000000000E+00  0.74505805969E-08  0.10566000000E+00  0.10566000000E+00 0.  1.
     999900   -1    0    0    0    0 -0.00000000000E+00 -0.00000000000E+00 -0.74505805969E-08  0.93827000000E+00  0.93827000000E+00 0. -1.
     999902    2    1    2    0    0  0.10982625681E-02  0.23424345384E-01  0.10112004379E-01  0.10183926006E+01  0.10180723600E+01 0.  0.
     999903    2    3    3    0    0 -0.10106640017E+00 -0.19640022604E-01  0.74931109805E-01  0.12907056973E+00  0.21080631452E-01 0.  0.
         14    1    1    2    0    0 -0.10982625681E-02 -0.23424345384E-01 -0.10112004379E-01  0.25537399434E-01  0.00000000000E+00 0. -1.
     999901    1    3    3    0    0  0.10216466274E+00  0.43064367988E-01 -0.64819105426E-01  0.88932203084E+00  0.88000000000E+00 0.  1.
        -11    1    4    4    0    0 -0.29690608542E-01 -0.15672774584E-01  0.25343628818E-01  0.42068144021E-01  0.51100000000E-03 0.  1.
         11    1    4    4    0    0 -0.71375791628E-01 -0.39672480201E-02  0.49587480987E-01  0.87002425708E-01  0.51100000000E-03 0. -1.
</event>
<event>
 8    1  0.1078274E+005  0.1043930E+01  0.7957747E-01            NaN
         13   -1    0    0    0    0  0.00000000000E+00  0.00000000000E+00  0.74505805969E-08  0.10566000000E+00  0.10566000000E+00 0.  1.
     999900   -1    0    0    0    0 -0.00000000000E+00 -0.00000000000E+00 -0.74505805969E-08  0.93827000000E+00  0.93827000000E+00 0.  1.
     999902    2    1    2    0    0  0.14302979690E-01  0.88019594205E-02 -0.14952520527E-01  0.10214438356E+01  0.10211962993E+01 0.  0.
     999903    2    3    3    0    0  0.10461720327E-01  0.12709909551E+00  0.29324222608E-01  0.13241661577E+00  0.20263820699E-01 0.  0.
         14    1    1    2    0    0 -0.14302979690E-01 -0.88019594205E-02  0.14952520527E-01  0.22486164363E-01  0.00000000000E+00 0. -1.
     999901    1    3    3    0    0  0.38412593631E-02 -0.11829713609E+00 -0.44276743135E-01  0.88902721987E+00  0.88000000000E+00 0. -1.
        -11    1    4    4    0    0  0.11337485440E-01  0.12256443138E+00  0.24101710919E-01  0.12542620143E+00  0.51100000000E-03 0.  1.
         11    1    4    4    0    0 -0.87576511378E-03  0.45346641316E-02  0.52225116885E-02  0.69904143409E-02  0.51100000000E-03 0. -1.
</event>
<event>
 8    1  0.1078274E+005  0.1043930E+01  0.7957747E-01            NaN
         13   -1    0    0    0    0  0.00000000000E+00  0.00000000000E+00  0.74505805969E-08  0.10566000000E+00  0.10566000000E+00 0. -1.
     999900   -1    0    0    0    0 -0.00000000000E+00 -0.00000000000E+00 -0.74505805969E-08  0.93827000000E+00  0.93827000000E+00 0.  1.
     999902    2    1    2    0    0 -0.23601795070E-01 -0.67968701359E-02  0.20946939442E-02  0.10192798496E+01  0.10189817377E+01 0.  0.
     999903    2    3    3    0    0 -0.54822030094E-01  0.82561765116E-01 -0.82026888264E-01  0.13021511099E+00  0.20141119359E-01 0.  0.
         14    1    1    2    0    0  0.23601795070E-01  0.67968701359E-02 -0.20946939442E-02  0.24650150444E-01  0.00000000000E+00 0.  1.
     999901    1    3    3    0    0  0.31220235024E-01 -0.89358635252E-01  0.84121582208E-01  0.88906473857E+00  0.88000000000E+00 0. -1.
        -11    1    4    4    0    0 -0.48689191186E-01  0.60513799808E-01 -0.57304597946E-01  0.96522719462E-01  0.51100000000E-03 0.  1.
         11    1    4    4    0    0 -0.61328389082E-02  0.22047965309E-01 -0.24722290318E-01  0.33692391528E-01  0.51100000000E-03 0. -1.
</event>
<event>
 8    1  0.1078274E+005  0.1043930E+01  0.7957747E-01            NaN
         13   -1    0    0    0    0  0.00000000000E+00  0.00000000000E+00  0.74505805969E-08  0.10566000000E+00  0.10566000000E+00 0. -1.
     999900   -1    0    0    0    0 -0.00000000000E+00 -0.00000000000E+00 -0.74505805969E-08  0.93827000000E+00  0.93827000000E+00 0.  1.
     999902    2    1    2    0    0  0.24167047158E-01  0.12727855990E-02  0.14989669947E-02  0.10196830816E+01  0.10193947586E+01 0.  0.
     999903    2    3    3    0    0 -0.38184068026E-01 -0.89476140573E-02  0.12194036935E+00  0.12923473970E+00  0.17148802257E-01 0.  0.
         14    1    1    2    0    0 -0.24167047158E-01 -0.12727855990E-02 -0.14989669947E-02  0.24246918435E-01  0.00000000000E+00 0.  1.
     999901    1    3    3    0    0  0.62351115184E-01  0.10220399656E-01 -0.12044140236E+00  0.89044834187E+00  0.88000000000E+00 0.  1.
        -11    1    4    4    0    0 -0.96510836945E-03 -0.50045111592E-02  0.10637851057E-01  0.11806843872E-01  0.51100000000E-03 0.  1.
         11    1    4    4    0    0 -0.37218959657E-01 -0.39431028981E-02  0.11130251829E+00  0.11742789583E+00  0.51100000000E-03 0. -1.
</event>
<event>
 8    1  0.1078274E+005  0.1043930E+01  0.7957747E-01            NaN
         13   -1    0    0    0    0  0.00000000000E+00  0.00000000000E+00  0.74505805969E-08  0.10566000000E+00  0.10566000000E+00 0. -1.
     999900   -1    0    0    0    0 -0.00000000000E+00 -0.00000000000E+00 -0.74505805969E-08  0.93827000000E+00  0.93827000000E+00 0. -1.
     999902    2    1    2    0    0  0.11251265420E-01 -0.11501141533E-02 -0.18826554668E-01  0.10219674661E+01  0.10217314465E+01 0.  0.
     999903    2    3    3    0    0  0.17160980991E-01  0.12321368195E+00 -0.42448993321E-01  0.13288968649E+00  0.19535635497E-01 0.  0.
         14    1    1    2    0    0 -0.11251265420E-01  0.11501141533E-02  0.18826554668E-01  0.21962533934E-01  0.00000000000E+00 0. -1.
     999901    1    3    3    0    0 -0.59097155708E-02 -0.12436379610E+00  0.23622438653E-01  0.88907777957E+00  0.88000000000E+00 0.  1.
        -11    1    4    4    0    0 -0.40126021221E-03  0.43147495702E-01 -0.21854443119E-01  0.48370912749E-01  0.51100000000E-03 0.  1.
         11    1    4    4    0    0  0.17562241203E-01  0.80066186248E-01 -0.20594550202E-01  0.84518773746E-01  0.51100000000E-03 0. -1.
</event>
<event>
 8    1  0.1078274E+005  0.1043930E+01  0.7957747E-01            NaN
         13   -1    0    0    0    0  0.00000000000E+00  0.00000000000E+00  0.74505805969E-08  0.10566000000E+00  0.10566000000E+00 0. -1.
     999900   -1    0    0    0    0 -0.00000000000E+00 -0.00000000000E+00 -0.74505805969E-08  0.93827000000E+00  0.93827000000E+00 0. -1.
     999902    2    1    2    0    0  0.65793474527E-02 -0.25678035948E-01  0.97280746490E-02  0.10156937683E+01  0.10153012096E+01 0.  0.
     999903    2    3    3    0    0  0.74482758176E-01 -0.38006059031E-01  0.95936114849E-01  0.12879203784E+00  0.19786588625E-01 0.  0.
         14    1    1    2    0    0 -0.65793474527E-02  0.25678035948E-01 -0.97280746490E-02  0.28236231678E-01  0.00000000000E+00 0.  1.
     999901    1    3    3    0    0 -0.67903410723E-01  0.12328023084E-01 -0.86208040200E-01  0.88690173048E+00  0.88000000000E+00 0. -1.
        -11    1    4    4    0    0  0.27231289175E-01 -0.97880195547E-02  0.46721384930E-01  0.54959051736E-01  0.51100000000E-03 0. -1.
         11    1    4    4    0    0  0.47251469001E-01 -0.28218039477E-01  0.49214729919E-01  0.73832986102E-01  0.51100000000E-03 0.  1.
</event>
<event>
 8    1  0.1078274E+005  0.1043930E+01  0.7957747E-01            NaN
         13   -1    0    0    0    0  0.00000000000E+00  0.00000000000E+00  0.74505805969E-08  0.10566000000E+00  0.10566000000E+00 0. -1.
     999900   -1    0    0    0    0 -0.00000000000E+00 -0.00000000000E+00 -0.74505805969E-08  0.93827000000E+00  0.93827000000E+00 0. -1.
     999902    2    1    2    0    0 -0.12402563623E-01  0.17017275025E-01  0.11068065297E-01  0.10201410676E+01  0.10198636598E+01 0.  0.
     999903    2    3    3    0    0  0.42770942681E-01 -0.67170267273E-01 -0.97638769271E-01  0.12775727466E+00  0.21151681283E-01 0.  0.
         14    1    1    2    0    0  0.12402563623E-01 -0.17017275025E-01 -0.11068065297E-01  0.23788932366E-01  0.00000000000E+00 0. -1.
     999901    1    3    3    0    0 -0.55173506304E-01  0.84187542298E-01  0.10870683457E+00  0.89238379297E+00  0.88000000000E+00 0.  1.
        -11    1    4    4    0    0  0.62504379217E-02 -0.28331376507E-01 -0.32085964861E-01  0.43260896096E-01  0.51100000000E-03 0.  1.
         11    1    4    4    0    0  0.36520504760E-01 -0.38838890766E-01 -0.65552804410E-01  0.84496378567E-01  0.51100000000E-03 0. -1.
</event>
<event>
 8    1  0.1078274E+005  0.1043930E+01  0.7957747E-01            NaN
         13   -1    0    0    0    0  0.00000000000E+00  0.00000000000E+00  0.74505805969E-08  0.10566000000E+00  0.10566000000E+00 0. -1.
     999900   -1    0    0    0    0 -0.00000000000E+00 -0.00000000000E+00 -0.74505805969E-08  0.93827000000E+00  0.93827000000E+00 0. -1.
     999902    2    1    2    0    0  0.44834678507E-02  0.96082496691E-02  0.21177144933E-01  0.10202468538E+01  0.10199719365E+01 0.  0.
     999903    2    3    3    0    0  0.43338738822E-01 -0.81318956649E-01 -0.86635425499E-01  0.12817004139E+00  0.20756771529E-01 0.  0.
         14    1    1    2    0    0 -0.44834678507E-02 -0.96082496691E-02 -0.21177144933E-01  0.23683146184E-01  0.00000000000E+00 0.  1.
     999901    1    3    3    0    0 -0.38855270972E-01  0.90927206318E-01  0.10781257043E+00  0.89207681243E+00  0.88000000000E+00 0.  1.
        -11    1    4    4    0    0  0.51694640513E-02 -0.11690698326E-01 -0.23372188075E-01  0.26644250456E-01  0.51100000000E-03 0.  1.
         11    1    4    4    0    0  0.38169274771E-01 -0.69628258324E-01 -0.63263237424E-01  0.10152579093E+00  0.51100000000E-03 0. -1.
</event>
<event>
 8    1  0.1078274E+005  0.1043930E+01  0.7957747E-01            NaN
         13   -1    0    0    0    0  0.00000000000E+00  0.00000000000E+00  0.74505805969E-08  0.10566000000E+00  0.10566000000E+00 0. -1.
     999900   -1    0    0    0    0 -0.00000000000E+00 -0.00000000000E+00 -0.74505805969E-08  0.93827000000E+00  0.93827000000E+00 0.  1.
     999902    2    1    2    0    0 -0.21279166810E-01 -0.28550872207E-02  0.10048172722E-01  0.10202251432E+01  0.10199497157E+01 0.  0.
     999903    2    3    3    0    0 -0.63629672141E-01  0.94576617560E-01  0.63875662700E-01  0.13220267661E+00  0.20099145567E-01 0.  0.
         14    1    1    2    0    0  0.21279166810E-01  0.28550872207E-02 -0.10048172722E-01  0.23704856849E-01  0.00000000000E+00 0.  1.
     999901    1    3    3    0    0  0.42350505330E-01 -0.97431704781E-01 -0.53827489978E-01  0.88802246654E+00  0.88000000000E+00 0.  1.
        -11    1    4    4    0    0 -0.43637287541E-01  0.47352170187E-01  0.33303918330E-01  0.72497261896E-01  0.51100000000E-03 0.  1.
         11    1    4    4    0    0 -0.19992384600E-01  0.47224447373E-01  0.30571744371E-01  0.59705414717E-01  0.51100000000E-03 0. -1.
</event>
<event>
 8    1  0.1078274E+005  0.1043930E+01  0.7957747E-01            NaN
         13   -1    0    0    0    0  0.00000000000E+00  0.00000000000E+00  0.74505805969E-08  0.10566000000E+00  0.10566000000E+00 0. -1.
     999900   -1    0    0    0    0 -0.00000000000E+00 -0.00000000000E+00 -0.74505805969E-08  0.93827000000E+00  0.93827000000E+00 0.  1.
     999902    2    1    2    0    0  0.11151471004E-01 -0.30044968566E-02 -0.20328106359E-01  0.10205502178E+01  0.10202823790E+01 0.  0.
     999903    2    3    3    0    0 -0.76223695955E-01 -0.10368255555E+00  0.49228337171E-04  0.13027737926E+00  0.20299482047E-01 0.  0.
         14    1    1    2    0    0 -0.11151471004E-01  0.30044968566E-02  0.20328106359E-01  0.23379782185E-01  0.00000000000E+00 0. -1.
     999901    1    3    3    0    0  0.87375166959E-01  0.10067805870E+00 -0.20377334696E-01  0.89027283856E+00  0.88000000000E+00 0. -1.
        -11    1    4    4    0    0 -0.29690096178E-01 -0.25431725191E-01  0.27623255664E-02  0.39193953881E-01  0.51100000000E-03 0.  1.
         11    1    4    4    0    0 -0.46533599777E-01 -0.78250830363E-01 -0.27130972292E-02  0.91083425376E-01  0.51100000000E-03 0. -1.
</event>
<event>
 8    1  0.1078274E+005  0.1043930E+01  0.7957747E-01            NaN
         13   -1    0    0    0    0  0.00000000000E+00  0.00000000000E+00  0.74505805969E-08  0.10566000000E+00  0.10566000000E+00 0.  1.
     999900   -1    0    0    0    0 -0.00000000000E+00 -0.00000000000E+00 -0.74505805969E-08  0.93827000000E+00  0.93827000000E+00 0.  1.
     999902    2    1    2    0    0  0.16703729726E-01 -0.11171759974E-01  0.12219116728E-01  0.10204112921E+01  0.10201402234E+01 0.  0.
     999903    2    3    3    0    0  0.69726265436E-01 -0.10698951318E+00  0.33023717446E-01  0.13337957760E+00  0.19774675318E-01 0.  0.
         14    1    1    2    0    0 -0.16703729726E-01  0.11171759974E-01 -0.12219116728E-01  0.23518707900E-01  0.00000000000E+00 0. -1.
     999901    1    3    3    0    0 -0.53022535710E-01  0.95817753207E-01 -0.20804600718E-01  0.88703171450E+00  0.88000000000E+00 0. -1.
        -11    1    4    4    0    0  0.14526907446E-01 -0.21405765821E-01 -0.13045507874E-02  0.25907543767E-01  0.51100000000E-03 0.  1.
         11    1    4    4    0    0  0.55199357990E-01 -0.85583747360E-01  0.34328268234E-01  0.10747203383E+00  0.51100000000E-03 0. -1.
</event>
<event>
 8    1  0.1078274E+005  0.1043930E+01  0.7957747E-01            NaN
         13   -1    0    0    0    0  0.00000000000E+00  0.00000000000E+00  0.74505805969E-08  0.10566000000E+00  0.10566000000E+00 0.  1.
     999900   -1    0    0    0    0 -0.00000000000E+00 -0.00000000000E+00 -0.74505805969E-08  0.93827000000E+00  0.93827000000E+00 0.  1.
     999902    2    1    2    0    0  0.11424094191E-02 -0.61146208400E-03 -0.21025707700E-01  0.10228644032E+01  0.10226474602E+01 0.  0.
     999903    2    3    3    0    0  0.66530658443E-01  0.87042981772E-01 -0.75350112326E-01  0.13443316466E+00  0.19794624128E-01 0.  0.
         14    1    1    2    0    0 -0.11424094191E-02  0.61146208400E-03  0.21025707700E-01  0.21065596821E-01  0.00000000000E+00 0.  1.
     999901    1    3    3    0    0 -0.65388249024E-01 -0.87654443856E-01  0.54324404626E-01  0.88843123852E+00  0.88000000000E+00 0. -1.
        -11    1    4    4    0    0  0.52383008911E-01  0.77411904719E-01 -0.57718015764E-01  0.10985541898E+00  0.51100000000E-03 0. -1.
         11    1    4    4    0    0  0.14147649532E-01  0.96310770521E-02 -0.17632096561E-01  0.24577745678E-01  0.51100000000E-03 0.  1.
</event>
<event>
 8    1  0.1078274E+005  0.1043930E+01  0.7957747E-01            NaN
         13   -1    0    0    0    0  0.00000000000E+00  0.00000000000E+00  0.74505805969E-08  0.10566000000E+00  0.10566000000E+00 0.  1.
     999900   -1    0    0    0    0 -0.00000000000E+00 -0.00000000000E+00 -0.74505805969E-08  0.93827000000E+00  0.93827000000E+00 0. -1.
     999902    2    1    2    0    0 -0.22229976111E-01  0.78798472470E-02  0.14935925642E-02  0.10202975086E+01  0.10200237798E+01 0.  0.
     999903    2    3    3    0    0  0.10045456992E+00 -0.65558640933E-01  0.39745688686E-01  0.12793663305E+00  0.19975141710E-01 0.  0.
         14    1    1    2    0    0  0.22229976111E-01 -0.78798472470E-02 -0.14935925642E-02  0.23632491390E-01  0.00000000000E+00 0.  1.
     999901    1    3    3    0    0 -0.12268454603E+00  0.73438488180E-01 -0.38252096121E-01  0.89236087557E+00  0.88000000000E+00 0. -1.
        -11    1    4    4    0    0  0.49698716850E-01 -0.37950172726E-01  0.11349694986E-01  0.63555131687E-01  0.51100000000E-03 0. -1.
         11    1    4    4    0    0  0.50755853074E-01 -0.27608468207E-01  0.28395993699E-01  0.64381501358E-01  0.51100000000E-03 0.  1.
</event>
<event>
 8    1  0.1078274E+005  0.1043930E+01  0.7957747E-01            NaN
         13   -1    0    0    0    0  0.00000000000E+00  0.00000000000E+00  0.74505805969E-08  0.10566000000E+00  0.10566000000E+00 0.  1.
     999900   -1    0    0    0    0 -0.00000000000E+00 -0.00000000000E+00 -0.74505805969E-08  0.93827000000E+00  0.93827000000E+00 0.  1.
     999902    2    1    2    0    0 -0.14367258410E-02 -0.20996433075E-01  0.85386310500E-02  0.10212182717E+01  0.10209656879E+01 0.  0.
     999903    2    3    3    0    0 -0.77978795499E-01 -0.60083033556E-01  0.85332426522E-01  0.13370278574E+00  0.30069060999E-01 0.  0.
         14    1    1    2    0    0  0.14367258410E-02  0.20996433075E-01 -0.85386310500E-02  0.22711728319E-01  0.00000000000E+00 0.  1.
     999901    1    3    3    0    0  0.76542069658E-01  0.39086600481E-01 -0.76793795472E-01  0.88751548594E+00  0.88000000000E+00 0. -1.
        -11    1    4    4    0    0 -0.19229715351E-01 -0.29342557699E-01  0.40887060197E-01  0.53877457785E-01  0.51100000000E-03 0. -1.
         11    1    4    4    0    0 -0.58749080148E-01 -0.30740475857E-01  0.44445366325E-01  0.79825327954E-01  0.51100000000E-03 0.  1.
</event>
<event>
 8    1  0.1078274E+005  0.1043930E+01  0.7957747E-01            NaN
         13   -1    0    0    0    0  0.00000000000E+00  0.00000000000E+00  0.74505805969E-08  0.10566000000E+00  0.10566000000E+00 0.  1.
     999900   -1    0    0    0    0 -0.00000000000E+00 -0.00000000000E+00 -0.74505805969E-08  0.93827000000E+00  0.93827000000E+00 0. -1.
     999902    2    1    2    0    0 -0.60345486322E-03 -0.22445954947E-01  0.67507731083E-02  0.10204830815E+01  0.10202136843E+01 0.  0.
     999903    2    3    3    0    0 -0.93219271399E-01 -0.45454670585E-01  0.80246506920E-01  0.13227774858E+00  0.17376457052E-01 0.  0.
         14    1    1    2    0    0  0.60345486322E-03  0.22445954947E-01 -0.67507731083E-02  0.23446918535E-01  0.00000000000E+00 0. -1.
     999901    1    3    3    0    0  0.92615816535E-01  0.23008715638E-01 -0.73495733812E-01  0.88820533288E+00  0.88000000000E+00 0. -1.
        -11    1    4    4    0    0 -0.61849112207E-01 -0.29574377275E-01  0.63013273556E-01  0.93117615075E-01  0.51100000000E-03 0.  1.
         11    1    4    4    0    0 -0.31370159191E-01 -0.15880293310E-01  0.17233233364E-01  0.39160133510E-01  0.51100000000E-03 0. -1.
</event>
<event>
 8    1  0.1078274E+005  0.1043930E+01  0.7957747E-01            NaN
         13   -1    0    0    0    0  0.00000000000E+00  0.00000000000E+00  0.74505805969E-08  0.10566000000E+00  0.10566000000E+00 0. -1.
     999900   -1    0    0    0    0 -0.00000000000E+00 -0.00000000000E+00 -0.74505805969E-08  0.93827000000E+00  0.93827000000E+00 0. -1.
     999902    2    1    2    0    0 -0.91280598024E-02  0.37269522625E-02  0.14247296031E-01  0.10266038033E+01  0.10264575840E+01 0.  0.
     999903    2    3    3    0    0 -0.88086041336E-01 -0.48513043557E-01  0.92406797682E-01  0.13808127249E+00  0.20365546406E-01 0.  0.
         14    1    1    2    0    0  0.91280598024E-02 -0.37269522625E-02 -0.14247296031E-01  0.17326196730E-01  0.00000000000E+00 0.  1.
     999901    1    3    3    0    0  0.78957981534E-01  0.52239995820E-01 -0.78159501651E-01  0.88852253078E+00  0.88000000000E+00 0. -1.
        -11    1    4    4    0    0 -0.71388252110E-01 -0.30097957337E-01  0.74086466664E-01  0.10719717925E+00  0.51100000000E-03 0. -1.
         11    1    4    4    0    0 -0.16697789226E-01 -0.18415086220E-01  0.18320331017E-01  0.30884093238E-01  0.51100000000E-03 0.  1.
</event>
<event>
 8    1  0.1078274E+005  0.1043930E+01  0.7957747E-01            NaN
         13   -1    0    0    0    0  0.00000000000E+00  0.00000000000E+00  0.74505805969E-08  0.10566000000E+00  0.10566000000E+00 0.  1.
     999900   -1    0    0    0    0 -0.00000000000E+00 -0.00000000000E+00 -0.74505805969E-08  0.93827000000E+00  0.93827000000E+00 0. -1.
     999902    2    1    2    0    0 -0.15938366277E-01 -0.11510846206E-01 -0.13493135306E-01  0.10200847531E+01  0.10198060147E+01 0.  0.
     999903    2    3    3    0    0 -0.63152729429E-01  0.10567222198E+00 -0.38372650505E-01  0.13071415664E+00  0.21420660716E-01 0.  0.
         14    1    1    2    0    0  0.15938366277E-01  0.11510846206E-01  0.13493135306E-01  0.23845246913E-01  0.00000000000E+00 0.  1.
     999901    1    3    3    0    0  0.47214363152E-01 -0.11718306819E+00  0.24879515200E-01  0.88937059645E+00  0.88000000000E+00 0. -1.
        -11    1    4    4    0    0 -0.51590976430E-01  0.66932033366E-01 -0.25040227309E-01  0.88140796707E-01  0.51100000000E-03 0. -1.
         11    1    4    4    0    0 -0.11561752999E-01  0.38740188614E-01 -0.13332423197E-01  0.42573359928E-01  0.51100000000E-03 0.  1.
</event>
<event>
 8    1  0.1078274E+005  0.1043930E+01  0.7957747E-01            NaN
         13   -1    0    0    0    0  0.00000000000E+00  0.00000000000E+00  0.74505805969E-08  0.10566000000E+00  0.10566000000E+00 0.  1.
     999900   -1    0    0    0    0 -0.00000000000E+00 -0.00000000000E+00 -0.74505805969E-08  0.93827000000E+00  0.93827000000E+00 0. -1.
     999902    2    1    2    0    0  0.13043513375E-01 -0.10715939366E-01 -0.13466011182E-01  0.10223360644E+01  0.10221079838E+01 0.  0.
     999903    2    3    3    0    0 -0.81639631374E-01 -0.71498221708E-01  0.70908535921E-01  0.13116916199E+00  0.20007585378E-01 0.  0.
         14    1    1    2    0    0 -0.13043513375E-01  0.10715939366E-01  0.13466011182E-01  0.21593935602E-01  0.00000000000E+00 0.  1.
     999901    1    3    3    0    0  0.94683144749E-01  0.60782282342E-01 -0.84374547103E-01  0.89116690241E+00  0.88000000000E+00 0. -1.
        -11    1    4    4    0    0 -0.43652541393E-01 -0.34864834537E-01  0.24949631983E-01  0.61186978308E-01  0.51100000000E-03 0. -1.
         11    1    4    4    0    0 -0.37987089981E-01 -0.36633387171E-01  0.45958903939E-01  0.69982183683E-01  0.51100000000E-03 0.  1.
</event>
<event>
 8    1  0.1078274E+005  0.1043930E+01  0.7957747E-01            NaN
         13   -1    0    0    0    0  0.00000000000E+00  0.00000000000E+00  0.74505805969E-08  0.10566000000E+00  0.10566000000E+00 0.  1.
     999900   -1    0    0    0    0 -0.00000000000E+00 -0.00000000000E+00 -0.74505805969E-08  0.93827000000E+00  0.93827000000E+00 0. -1.
     999902    2    1    2    0    0  0.13832244223E-01 -0.17353178874E-01 -0.78405200359E-02  0.10203941220E+01  0.10201226528E+01 0.  0.
     999903    2    3    3    0    0  0.90843668956E-01 -0.75389389869E-01  0.57120466521E-01  0.13274616755E+00  0.20558818272E-01 0.  0.
         14    1    1    2    0    0 -0.13832244223E-01  0.17353178874E-01  0.78405200359E-02  0.23535877968E-01  0.00000000000E+00 0.  1.
     999901    1    3    3    0    0 -0.77011424733E-01  0.58036210995E-01 -0.64960986557E-01  0.88764795448E+00  0.88000000000E+00 0. -1.
        -11    1    4    4    0    0  0.24730806832E-01 -0.25839512703E-01  0.26955106983E-01  0.44789866452E-01  0.51100000000E-03 0.  1.
         11    1    4    4    0    0  0.66112862124E-01 -0.49549877166E-01  0.30165359538E-01  0.87956301096E-01  0.51100000000E-03 0. -1.
</event>
<event>
 8    1  0.1078274E+005  0.1043930E+01  0.7957747E-01            NaN
         13   -1    0    0    0    0  0.00000000000E+00  0.00000000000E+00  0.74505805969E-08  0.10566000000E+00  0.10566000000E+00 0.  1.
     999900   -1    0    0    0    0 -0.00000000000E+00 -0.00000000000E+00 -0.74505805969E-08  0.93827000000E+00  0.93827000000E+00 0. -1.
     999902    2    1    2    0    0 -0.16579423382E-01 -0.92122688551E-02 -0.14179127008E-01  0.10202489776E+01  0.10199741102E+01 0.  0.
     999903    2    3    3    0    0  0.88161377517E-01 -0.59610009230E-01  0.69667381378E-01  0.12865444840E+00  0.19303921336E-01 0.  0.
         14    1    1    2    0    0  0.16579423382E-01  0.92122688551E-02  0.14179127008E-01  0.23681022357E-01  0.00000000000E+00 0.  1.
     999901    1    3    3    0    0 -0.10474080090E+00  0.50397740375E-01 -0.83846508386E-01  0.89159452924E+00  0.88000000000E+00 0. -1.
        -11    1    4    4    0    0  0.50416949468E-01 -0.33852082586E-01  0.28246241532E-01  0.66977186943E-01  0.51100000000E-03 0. -1.
         11    1    4    4    0    0  0.37744428048E-01 -0.25757926645E-01  0.41421139846E-01  0.61677261457E-01  0.51100000000E-03 0.  1.
</event>
<event>
 8    1  0.1078274E+005  0.1043930E+01  0.7957747E-01            NaN
         13   -1    0    0    0    0  0.00000000000E+00  0.00000000000E+00  0.74505805969E-08  0.10566000000E+00  0.10566000000E+00 0. -1.
     999900   -1    0    0    0    0 -0.00000000000E+00 -0.00000000000E+00 -0.74505805969E-08  0.93827000000E+00  0.93827000000E+00 0. -1.
     999902    2    1    2    0    0  0.12749403942E-01  0.18023946501E-01  0.76853120826E-02  0.10205532173E+01  0.10202854480E+01 0.  0.
     999903    2    3    3    0    0  0.10340582583E+00  0.15811673530E-02  0.80686751603E-01  0.13273670359E+00  0.20332626265E-01 0.  0.
         14    1    1    2    0    0 -0.12749403942E-01 -0.18023946501E-01 -0.76853120826E-02  0.23376782716E-01  0.00000000000E+00 0. -1.
     999901    1    3    3    0    0 -0.90656421883E-01  0.16442779148E-01 -0.73001439520E-01  0.88781651369E+00  0.88000000000E+00 0. -1.
        -11    1    4    4    0    0  0.23640714125E-01 -0.76610037266E-02  0.22984579568E-01  0.33854488054E-01  0.51100000000E-03 0.  1.
         11    1    4    4    0    0  0.79765111701E-01  0.92421710796E-02  0.57702172035E-01  0.98882215537E-01  0.51100000000E-03 0. -1.
</event>
<event>
 7    1  0.1158480E+005  0.1043930E+01  0.7957747E-01            NaN
         13   -1    0    0    0    0  0.00000000000E+00  0.00000000000E+00  0.74505805969E-08  0.10566000000E+00  0.10566000000E+00 0. -1.
     999900   -1    0    0    0    0 -0.00000000000E+00 -0.00000000000E+00 -0.74505805969E-08  0.93827000000E+00  0.93827000000E+00 0.  1.
     999903    2    1    2    0    0 -0.85374938676E-01  0.22780104705E-02  0.49992412036E-01  0.10121146857E+00  0.21223822054E-01 0.  0.
         14    1    1    2    0    0 -0.26255057677E-02 -0.47341441439E-01 -0.31621704030E-01  0.56991556601E-01  0.00000000000E+00 0.  1.
     999901    1    1    2    0    0  0.88000444444E-01  0.45063430968E-01 -0.18370708006E-01  0.88572697483E+00  0.88000000000E+00 0.  1.
        -11    1    3    3    0    0 -0.52385245001E-01  0.11366717635E-01  0.33590877497E-01  0.63261554958E-01  0.51100000000E-03 0.  1.
         11    1    3    3    0    0 -0.32989693675E-01 -0.90887071649E-02  0.16401534539E-01  0.37949913609E-01  0.51100000000E-03 0. -1.
</event>
<event>
 8    1  0.1078274E+005  0.1043930E+01  0.7957747E-01            NaN
         13   -1    0    0    0    0  0.00000000000E+00  0.00000000000E+00  0.74505805969E-08  0.10566000000E+00  0.10566000000E+00 0.  1.
     999900   -1    0    0    0    0 -0.00000000000E+00 -0.00000000000E+00 -0.74505805969E-08  0.93827000000E+00  0.93827000000E+00 0. -1.
     999902    2    1    2    0    0  0.23886737397E-01 -0.22382369460E-02 -0.20093914466E-02  0.10198546271E+01  0.10195704178E+01 0.  0.
     999903    2    3    3    0    0 -0.34295430879E-01 -0.12083822169E-01  0.12223542334E+00  0.12917012947E+00  0.20523846851E-01 0.  0.
         14    1    1    2    0    0 -0.23886737397E-01  0.22382369460E-02  0.20093914466E-02  0.24075372937E-01  0.00000000000E+00 0. -1.
     999901    1    3    3    0    0  0.58182168276E-01  0.98455852230E-02 -0.12424481479E+00  0.89068449759E+00  0.88000000000E+00 0.  1.
        -11    1    4    4    0    0 -0.24994160344E-01 -0.14288647874E-01  0.64351575362E-01  0.70500070084E-01  0.51100000000E-03 0. -1.
         11    1    4    4    0    0 -0.93012705345E-02  0.22048257050E-02  0.57883847981E-01  0.58670059383E-01  0.51100000000E-03 0.  1.
</event>
<event>
 7    1  0.1078274E+005  0.1043930E+01  0.7957747E-01            NaN
         13   -1    0    0    0    0  0.00000000000E+00  0.00000000000E+00  0.74505805969E-08  0.10566000000E+00  0.10566000000E+00 0. -1.
     999900   -1    0    0    0    0 -0.00000000000E+00 -0.00000000000E+00 -0.74505805969E-08  0.93827000000E+00  0.93827000000E+00 0.  1.
     999902    2    1    2    0    0  0.18084345938E-01  0.14712578272E-01 -0.35513622427E-02  0.10203478945E+01  0.10200753453E+01 0.  0.
         14    1    1    2    0    0 -0.18084345938E-01 -0.14712578272E-01  0.35513622427E-02  0.23582105529E-01  0.00000000000E+00 0. -1.
     999901    1    3    3    0    0  0.40304993848E-01 -0.10428477054E+00 -0.41154434968E-01  0.88802786748E+00  0.88000000000E+00 0.  1.
        -11    1    3    3    0    0 -0.18294294313E-01  0.20483264605E-01  0.21747042686E-02  0.27554233667E-01  0.51100000000E-03 0. -1.
         11    1    3    3    0    0 -0.39263535972E-02  0.98514084205E-01  0.35428368457E-01  0.10476579333E+00  0.51100000000E-03 0.  1.
</event>
<event>
 8    1  0.1078274E+005  0.1043930E+01  0.7957747E-01            NaN
         13   -1    0    0    0    0  0.00000000000E+00  0.00000000000E+00  0.74505805969E-08  0.10566000000E+00  0.10566000000E+00 0. -1.
     999900   -1    0    0    0    0 -0.00000000000E+00 -0.00000000000E+00 -0.74505805969E-08  0.93827000000E+00  0.93827000000E+00 0.  1.
     999902    2    1    2    0    0 -0.19533054524E-02  0.23423152430E-01 -0.89415116149E-02  0.10187822347E+01  0.10184718119E+01 0.  0.
     999903    2    3    3    0    0  0.11512726739E-01  0.12780314224E+00 -0.24498310785E-01  0.13237457996E+00  0.21369982319E-01 0.  0.
         14    1    1    2    0    0  0.19533054524E-02 -0.23423152430E-01  0.89415116149E-02  0.25147765346E-01  0.00000000000E+00 0.  1.
     999901    1    3    3    0    0 -0.13466032191E-01 -0.10437998981E+00  0.15556799170E-01  0.88640765469E+00  0.88000000000E+00 0. -1.
        -11    1    4    4    0    0 -0.36616269360E-03  0.96893989989E-01 -0.16296057757E-01  0.98256816509E-01  0.51100000000E-03 0.  1.
         11    1    4    4    0    0  0.11878889432E-01  0.30909152255E-01 -0.82022530273E-02  0.34117763452E-01  0.51100000000E-03 0. -1.
</event>
<event>
 8    1  0.1078274E+005  0.1043930E+01  0.7957747E-01            NaN
         13   -1    0    0    0    0  0.00000000000E+00  0.00000000000E+00  0.74505805969E-08  0.10566000000E+00  0.10566000000E+00 0.  1.
     999900   -1    0    0    0    0 -0.00000000000E+00 -0.00000000000E+00 -0.74505805969E-08  0.93827000000E+00  0.93827000000E+00 0.  1.
     999902    2    1    2    0    0  0.25826152884E-01 -0.52644178482E-02  0.51192619746E-02  0.10170802121E+01  0.10167257480E+01 0.  0.
     999903    2    3    3    0    0  0.11385535532E+00  0.55617730312E-01  0.25077306808E-01  0.13037050761E+00  0.17641544140E-01 0.  0.
         14    1    1    2    0    0 -0.25826152884E-01  0.52644178482E-02 -0.51192619746E-02  0.26849787917E-01  0.00000000000E+00 0.  1.
     999901    1    3    3    0    0 -0.88029202432E-01 -0.60882148160E-01 -0.19958044834E-01  0.88670970447E+00  0.88000000000E+00 0.  1.
        -11    1    4    4    0    0  0.77833521746E-01  0.42595090133E-01  0.10348121789E-01  0.89329410367E-01  0.51100000000E-03 0. -1.
         11    1    4    4    0    0  0.36021833569E-01  0.13022640179E-01  0.14729185019E-01  0.41041097247E-01  0.51100000000E-03 0.  1.
</event>
<event>
 8    1  0.1078274E+005  0.1043930E+01  0.7957747E-01            NaN
         13   -1    0    0    0    0  0.00000000000E+00  0.00000000000E+00  0.74505805969E-08  0.10566000000E+00  0.10566000000E+00 0. -1.
     999900   -1    0    0    0    0 -0.00000000000E+00 -0.00000000000E+00 -0.74505805969E-08  0.93827000000E+00  0.93827000000E+00 0. -1.
     999902    2    1    2    0    0 -0.22621251752E-01 -0.11212547586E-01 -0.10915981547E-01  0.10164236206E+01  0.10160513647E+01 0.  0.
     999903    2    3    3    0    0 -0.10933527585E+00  0.13696590214E-01 -0.66733086652E-01  0.13005161273E+00  0.17841468323E-01 0.  0.
         14    1    1    2    0    0  0.22621251752E-01  0.11212547586E-01  0.10915981547E-01  0.27506379393E-01  0.00000000000E+00 0. -1.
     999901    1    3    3    0    0  0.86714024096E-01 -0.24909137800E-01  0.55817105105E-01  0.88637200787E+00  0.88000000000E+00 0.  1.
        -11    1    4    4    0    0 -0.43703728913E-01  0.30836737285E-02 -0.36445782978E-01  0.56991939627E-01  0.51100000000E-03 0. -1.
         11    1    4    4    0    0 -0.65631546935E-01  0.10612916486E-01 -0.30287303674E-01  0.73059673106E-01  0.51100000000E-03 0.  1.
</event>
<event>
 8    1  0.1078274E+005  0.1043930E+01  0.7957747E-01            NaN
         13   -1    0    0    0    0  0.00000000000E+00  0.00000000000E+00  0.74505805969E-08  0.10566000000E+00  0.10566000000E+00 0. -1.
     999900   -1    0    0    0    0 -0.00000000000E+00 -0.00000000000E+00 -0.74505805969E-08  0.93827000000E+00  0.93827000000E+00 0. -1.
     999902    2    1    2    0    0 -0.11932142103E-01  0.18726268284E-01  0.49280688554E-02  0.10211850005E+01  0.10209316678E+01 0.  0.
     999903    2    3    3    0    0 -0.57650515333E-01  0.93103595169E-01  0.75025233301E-01  0.13409099824E+00  0.18967045781E-01 0.  0.
         14    1    1    2    0    0  0.11932142103E-01 -0.18726268284E-01 -0.49280688554E-02  0.22744999487E-01  0.00000000000E+00 0. -1.
     999901    1    3    3    0    0  0.45718373230E-01 -0.74377326885E-01 -0.70097164446E-01  0.88709400227E+00  0.88000000000E+00 0. -1.
        -11    1    4    4    0    0 -0.72282294149E-02  0.29190942134E-02  0.54436320469E-02  0.95216943011E-02  0.51100000000E-03 0.  1.
         11    1    4    4    0    0 -0.50422285918E-01  0.90184500955E-01  0.69581601255E-01  0.12456930394E+00  0.51100000000E-03 0. -1.
</event>
<event>
 8    1  0.1078274E+005  0.1043930E+01  0.7957747E-01            NaN
         13   -1    0    0    0    0  0.00000000000E+00  0.00000000000E+00  0.74505805969E-08  0.10566000000E+00  0.10566000000E+00 0.  1.
     999900   -1    0    0    0    0 -0.00000000000E+00 -0.00000000000E+00 -0.74505805969E-08  0.93827000000E+00  0.93827000000E+00 0. -1.
     999902    2    1    2    0    0 -0.18002977506E-01  0.11656676063E-01  0.82244417278E-02  0.10209598729E+01  0.10207014428E+01 0.  0.
     999903    2    3    3    0    0 -0.42721032522E-02 -0.12076229387E+00 -0.42255065582E-01  0.12951637996E+00  0.19677896792E-01 0.  0.
         14    1    1    2    0    0  0.18002977506E-01 -0.11656676063E-01 -0.82244417278E-02  0.22970127071E-01  0.00000000000E+00 0.  1.
     999901    1    3    3    0    0 -0.13730874254E-01  0.13241896993E+00  0.50479507310E-01  0.89144349297E+00  0.88000000000E+00 0. -1.
        -11    1    4    4    0    0 -0.10473203977E-01 -0.71188623313E-01 -0.30717229298E-01  0.78238848326E-01  0.51100000000E-03 0. -1.
         11    1    4    4    0    0  0.62011007247E-02 -0.49573670559E-01 -0.11537836284E-01  0.51277531630E-01  0.51100000000E-03 0.  1.
</event>
<event>
 8    1  0.1078274E+005  0.1043930E+01  0.7957747E-01            NaN
         13   -1    0    0    0    0  0.00000000000E+00  0.00000000000E+00  0.74505805969E-08  0.10566000000E+00  0.10566000000E+00 0. -1.
     999900   -1    0    0    0    0 -0.00000000000E+00 -0.00000000000E+00 -0.74505805969E-08  0.93827000000E+00  0.93827000000E+00 0.  1.
     999902    2    1    2    0    0  0.46132547816E-02 -0.23080755943E-01  0.54740644849E-02  0.10197645537E+01  0.10194781882E+01 0.  0.
     999903    2    3    3    0    0 -0.10776449816E-01  0.94707437366E-02  0.12816324576E+00  0.13052382229E+00  0.20120232659E-01 0.  0.
         14    1    1    2    0    0 -0.46132547816E-02  0.23080755943E-01 -0.54740644849E-02  0.24165446335E-01  0.00000000000E+00 0.  1.
     999901    1    3    3    0    0  0.15389704598E-01 -0.32551499680E-01 -0.12268918128E+00  0.88924073138E+00  0.88000000000E+00 0.  1.
        -11    1    4    4    0    0 -0.58748923938E-02  0.40010660134E-02  0.10857548536E-01  0.12987315777E-01  0.51100000000E-03 0.  1.
         11    1    4    4    0    0 -0.49015574223E-02  0.54696777233E-02  0.11730569723E+00  0.11753650651E+00  0.51100000000E-03 0. -1.
</event>
<event>
 8    1  0.1078274E+005  0.1043930E+01  0.7957747E-01            NaN
         13   -1    0    0    0    0  0.00000000000E+00  0.00000000000E+00  0.74505805969E-08  0.10566000000E+00  0.10566000000E+00 0. -1.
     999900   -1    0    0    0    0 -0.00000000000E+00 -0.00000000000E+00 -0.74505805969E-08  0.93827000000E+00  0.93827000000E+00 0.  1.
     999902    2    1    2    0    0  0.13923096634E-01 -0.18415216848E-01 -0.46837175912E-02  0.10203734714E+01  0.10201015199E+01 0.  0.
     999903    2    3    3    0    0  0.94230292529E-01  0.57929801552E-01 -0.67427628103E-01  0.13120835404E+00  0.20831159337E-01 0.  0.
         14    1    1    2    0    0 -0.13923096634E-01  0.18415216848E-01  0.46837175912E-02  0.23556528647E-01  0.00000000000E+00 0. -1.
     999901    1    3    3    0    0 -0.80307195894E-01 -0.76345018399E-01  0.62743910512E-01  0.88916511732E+00  0.88000000000E+00 0. -1.
        -11    1    4    4    0    0  0.27562887258E-01  0.27796073986E-01 -0.19417261175E-01  0.43699263559E-01  0.51100000000E-03 0.  1.
         11    1    4    4    0    0  0.66667405270E-01  0.30133727565E-01 -0.48010366929E-01  0.87509090477E-01  0.51100000000E-03 0. -1.
</event>
<event>
 7    1  0.1078274E+005  0.1043930E+01  0.7957747E-01            NaN
         13   -1    0    0    0    0  0.00000000000E+00  0.00000000000E+00  0.74505805969E-08  0.10566000000E+00  0.10566000000E+00 0. -1.
     999900   -1    0    0    0    0 -0.00000000000E+00 -0.00000000000E+00 -0.74505805969E-08  0.93827000000E+00  0.93827000000E+00 0. -1.
     999903    2    1    2    0    0 -0.42757797051E-01 -0.71181199365E-03 -0.10454585184E+00  0.11482994308E+00  0.20672319805E-01 0.  0.
         14    1    1    2    0    0 -0.31281512620E-01 -0.20110920512E-01 -0.95827803830E-02  0.38403278968E-01  0.00000000000E+00 0.  1.
     999901    1    1    2    0    0  0.74039309671E-01  0.20822732505E-01  0.11412863222E+00  0.89069677795E+00  0.88000000000E+00 0.  1.
        -11    1    3    3    0    0 -0.26171368187E-01  0.78346690249E-02 -0.75613766044E-01  0.80399162234E-01  0.51100000000E-03 0.  1.
         11    1    3    3    0    0 -0.16586428863E-01 -0.85464810185E-02 -0.28932085792E-01  0.34430780844E-01  0.51100000000E-03 0. -1.
</event>
<event>
 8    1  0.1078274E+005  0.1043930E+01  0.7957747E-01            NaN
         13   -1    0    0    0    0  0.00000000000E+00  0.00000000000E+00  0.74505805969E-08  0.10566000000E+00  0.10566000000E+00 0. -1.
     999900   -1    0    0    0    0 -0.00000000000E+00 -0.00000000000E+00 -0.74505805969E-08  0.93827000000E+00  0.93827000000E+00 0. -1.
     999902    2    1    2    0    0  0.64437243514E-02  0.22233903102E-01 -0.61312006459E-02  0.10199829824E+01  0.10197018313E+01 0.  0.
     999903    2    3    3    0    0  0.24530157402E-01  0.11243883019E+00  0.62503125158E-01  0.13252891676E+00  0.20323729175E-01 0.  0.
         14    1    1    2    0    0 -0.64437243514E-02 -0.22233903102E-01  0.61312006459E-02  0.23947017602E-01  0.00000000000E+00 0. -1.
     999901    1    3    3    0    0 -0.18086433050E-01 -0.90204927088E-01 -0.68634325804E-01  0.88745406563E+00  0.88000000000E+00 0. -1.
        -11    1    4    4    0    0  0.74538366973E-02  0.73941514394E-01  0.34380637440E-01  0.81885264756E-01  0.51100000000E-03 0.  1.
         11    1    4    4    0    0  0.17076320704E-01  0.38497315796E-01  0.28122487718E-01  0.50643652008E-01  0.51100000000E-03 0. -1.
</event>
<event>
 8    1  0.1078274E+005  0.1043930E+01  0.7957747E-01            NaN
         13   -1    0    0    0    0  0.00000000000E+00  0.00000000000E+00  0.74505805969E-08  0.10566000000E+00  0.10566000000E+00 0.  1.
     999900   -1    0    0    0    0 -0.00000000000E+00 -0.00000000000E+00 -0.74505805969E-08  0.93827000000E+00  0.93827000000E+00 0.  1.
     999902    2    1    2    0    0  0.22253439492E-01  0.37013491079E-02 -0.10044833685E-01  0.10192355829E+01  0.10189363862E+01 0.  0.
     999903    2    3    3    0    0 -0.41756289105E-01  0.11940340866E+00  0.14774665036E-01  0.12901076886E+00  0.20608883377E-01 0.  0.
         14    1    1    2    0    0 -0.22253439492E-01 -0.37013491079E-02  0.10044833685E-01  0.24694417146E-01  0.00000000000E+00 0.  1.
     999901    1    3    3    0    0  0.64009728597E-01 -0.11570205955E+00 -0.24819498720E-01  0.89022481400E+00  0.88000000000E+00 0.  1.
        -11    1    4    4    0    0 -0.38130195962E-01  0.11502178935E+00  0.17912504636E-01  0.12249507260E+00  0.51100000000E-03 0.  1.
         11    1    4    4    0    0 -0.36260931435E-02  0.43816193131E-02 -0.31378395999E-02  0.65156962517E-02  0.51100000000E-03 0. -1.
</event>
<event>
 8    1  0.1203424E+005  0.1043930E+01  0.7957747E-01            NaN
         13   -1    0    0    0    0  0.00000000000E+00  0.00000000000E+00  0.74505805969E-08  0.10566000000E+00  0.10566000000E+00 0.  1.
     999900   -1    0    0    0    0 -0.00000000000E+00 -0.00000000000E+00 -0.74505805969E-08  0.93827000000E+00  0.93827000000E+00 0. -1.
     999902    2    1    2    0    0 -0.19051931354E-01  0.31618225434E-02 -0.83129495912E-02  0.10229043409E+01  0.10226882283E+01 0.  0.
     999903    2    3    3    0    0 -0.83621000604E-01  0.10352618824E+00 -0.94871667720E-02  0.13484829007E+00  0.19593662463E-01 0.  0.
         14    1    1    2    0    0  0.19051931354E-01 -0.31618225434E-02  0.83129495912E-02  0.21025659110E-01  0.00000000000E+00 0.  1.
     999901    1    3    3    0    0  0.64569069249E-01 -0.10036436570E+00  0.11742171808E-02  0.88805605082E+00  0.88000000000E+00 0. -1.
        -11    1    4    4    0    0 -0.45751592821E-01  0.41134208802E-01 -0.45590675308E-02  0.61695037055E-01  0.51100000000E-03 0. -1.
         11    1    4    4    0    0 -0.37869407783E-01  0.62391979438E-01 -0.49280992412E-02  0.73153253018E-01  0.51100000000E-03 0.  1.
</event>
<event>
 8    1  0.1078274E+005  0.1043930E+01  0.7957747E-01            NaN
         13   -1    0    0    0    0  0.00000000000E+00  0.00000000000E+00  0.74505805969E-08  0.10566000000E+00  0.10566000000E+00 0. -1.
     999900   -1    0    0    0    0 -0.00000000000E+00 -0.00000000000E+00 -0.74505805969E-08  0.93827000000E+00  0.93827000000E+00 0.  1.
     999902    2    1    2    0    0  0.11469939381E-01  0.15881100552E-01  0.19115999069E-01  0.10165586594E+01  0.10161900992E+01 0.  0.
     999903    2    3    3    0    0 -0.11515659574E+00  0.44211945375E-02  0.47530662018E-01  0.12696717908E+00  0.24102120796E-01 0.  0.
         14    1    1    2    0    0 -0.11469939381E-01 -0.15881100552E-01 -0.19115999069E-01  0.27371340569E-01  0.00000000000E+00 0.  1.
     999901    1    3    3    0    0  0.12662653513E+00  0.11459906014E-01 -0.28414662950E-01  0.88959148035E+00  0.88000000000E+00 0. -1.
        -11    1    4    4    0    0 -0.73665963115E-01 -0.44557705780E-02  0.20281155033E-01  0.76538319708E-01  0.51100000000E-03 0.  1.
         11    1    4    4    0    0 -0.41490632630E-01  0.88769651155E-02  0.27249506985E-01  0.50428859372E-01  0.51100000000E-03 0. -1.
</event>
<event>
 8    1  0.1095121E+005  0.1043930E+01  0.7957747E-01            NaN
         13   -1    0    0    0    0  0.00000000000E+00  0.00000000000E+00  0.74505805969E-08  0.10566000000E+00  0.10566000000E+00 0. -1.
     999900   -1    0    0    0    0 -0.00000000000E+00 -0.00000000000E+00 -0.74505805969E-08  0.93827000000E+00  0.93827000000E+00 0.  1.
     999902    2    1    2    0    0 -0.51069096268E-02  0.25030340822E-01  0.93977815165E-02  0.10167102134E+01  0.10163457783E+01 0.  0.
     999903    2    3    3    0    0 -0.78511903165E-01 -0.53457068068E-01  0.82025369169E-01  0.12720285930E+00  0.20751606236E-01 0.  0.
         14    1    1    2    0    0  0.51069096268E-02 -0.25030340822E-01 -0.93977815165E-02  0.27219786646E-01  0.00000000000E+00 0.  1.
     999901    1    3    3    0    0  0.73404993538E-01  0.78487408891E-01 -0.72627587653E-01  0.88950735406E+00  0.88000000000E+00 0.  1.
        -11    1    4    4    0    0 -0.50341979302E-01 -0.22305376483E-01  0.42943300044E-01  0.69830028210E-01  0.51100000000E-03 0. -1.
         11    1    4    4    0    0 -0.28169923863E-01 -0.31151691585E-01  0.39082069125E-01  0.57372831089E-01  0.51100000000E-03 0.  1.
</event>
<event>
 8    1  0.1078274E+005  0.1043930E+01  0.7957747E-01            NaN
         13   -1    0    0    0    0  0.00000000000E+00  0.00000000000E+00  0.74505805969E-08  0.10566000000E+00  0.10566000000E+00 0.  1.
     999900   -1    0    0    0    0 -0.00000000000E+00 -0.00000000000E+00 -0.74505805969E-08  0.93827000000E+00  0.93827000000E+00 0. -1.
     999902    2    1    2    0    0 -0.16643407717E-01 -0.66070861303E-02  0.15697946364E-01  0.10201165137E+01  0.10198385262E+01 0.  0.
     999903    2    3    3    0    0 -0.13074135910E+00  0.68581600752E-02 -0.98680586702E-02  0.13228022479E+00  0.16135115409E-01 0.  0.
         14    1    1    2    0    0  0.16643407717E-01  0.66070861303E-02 -0.15697946364E-01  0.23813486255E-01  0.00000000000E+00 0. -1.
     999901    1    3    3    0    0  0.11409795139E+00 -0.13465246206E-01  0.25566005035E-01  0.88783628895E+00  0.88000000000E+00 0. -1.
        -11    1    4    4    0    0 -0.26592666691E-01  0.56906820676E-02 -0.69928083719E-02  0.28084057293E-01  0.51100000000E-03 0.  1.
         11    1    4    4    0    0 -0.10414869241E+00  0.11674780076E-02 -0.28752502983E-02  0.10419616750E+00  0.51100000000E-03 0. -1.
</event>
<event>
 8    1  0.1078274E+005  0.1043930E+01  0.7957747E-01            NaN
         13   -1    0    0    0    0  0.00000000000E+00  0.00000000000E+00  0.74505805969E-08  0.10566000000E+00  0.10566000000E+00 0. -1.
     999900   -1    0    0    0    0 -0.00000000000E+00 -0.00000000000E+00 -0.74505805969E-08  0.93827000000E+00  0.93827000000E+00 0. -1.
     999902    2    1    2    0    0  0.13360417477E-01  0.18291979568E-01  0.59230631431E-02  0.10205167570E+01  0.10202481420E+01 0.  0.
     999903    2    3    3    0    0  0.12638050327E+00 -0.29174522688E-01 -0.11867428377E-01  0.13184183879E+00  0.20451166722E-01 0.  0.
         14    1    1    2    0    0 -0.13360417477E-01 -0.18291979568E-01 -0.59230631431E-02  0.23413243019E-01  0.00000000000E+00 0.  1.
     999901    1    3    3    0    0 -0.11302008579E+00  0.47466502256E-01  0.17790491520E-01  0.88867491819E+00  0.88000000000E+00 0. -1.
        -11    1    4    4    0    0  0.32108562864E-01  0.14191270806E-02 -0.44645286368E-02  0.32452532533E-01  0.51100000000E-03 0. -1.
         11    1    4    4    0    0  0.94271940401E-01 -0.30593649768E-01 -0.74028997398E-02  0.99389306259E-01  0.51100000000E-03 0.  1.
</event>
<event>
 8    1  0.1078274E+005  0.1043930E+01  0.7957747E-01            NaN
         13   -1    0    0    0    0  0.00000000000E+00  0.00000000000E+00  0.74505805969E-08  0.10566000000E+00  0.10566000000E+00 0.  1.
     999900   -1    0    0    0    0 -0.00000000000E+00 -0.00000000000E+00 -0.74505805969E-08  0.93827000000E+00  0.93827000000E+00 0. -1.
     999902    2    1    2    0    0 -0.15484113583E-01 -0.12641990499E-02  0.12722531180E-01  0.10238496919E+01  0.10236527599E+01 0.  0.
     999903    2    3    3    0    0  0.64916290467E-02  0.10295323578E+00  0.83581516317E-01  0.13459989420E+00  0.22130333076E-01 0.  0.
         14    1    1    2    0    0  0.15484113583E-01  0.12641990499E-02 -0.12722531180E-01  0.20080308073E-01  0.00000000000E+00 0.  1.
     999901    1    3    3    0    0 -0.21975742630E-01 -0.10421743483E+00 -0.70858985137E-01  0.88924979773E+00  0.88000000000E+00 0. -1.
        -11    1    4    4    0    0  0.77812136726E-03  0.60615194596E-01  0.35390454789E-01  0.70196529116E-01  0.51100000000E-03 0.  1.
         11    1    4    4    0    0  0.57135076794E-02  0.42338041188E-01  0.48191061528E-01  0.64403365081E-01  0.51100000000E-03 0. -1.
</event>
<event>
 8    1  0.1078274E+005  0.1043930E+01  0.7957747E-01            NaN
         13   -1    0    0    0    0  0.00000000000E+00  0.00000000000E+00  0.74505805969E-08  0.10566000000E+00  0.10566000000E+00 0. -1.
     999900   -1    0    0    0    0 -0.00000000000E+00 -0.00000000000E+00 -0.74505805969E-08  0.93827000000E+00  0.93827000000E+00 0.  1.
     999902    2    1    2    0    0  0.11920511455E-01 -0.17804442485E-01 -0.11302707477E-01  0.10197050550E+01  0.10194172606E+01 0.  0.
     999903    2    3    3    0    0  0.53407259380E-01 -0.62751353049E-01 -0.10219643472E+00  0.13291136719E+00  0.20766622132E-01 0.  0.
         14    1    1    2    0    0 -0.11920511455E-01  0.17804442485E-01  0.11302707477E-01  0.24224945033E-01  0.00000000000E+00 0. -1.
     999901    1    3    3    0    0 -0.41486747925E-01  0.44946910565E-01  0.90893727247E-01  0.88679368777E+00  0.88000000000E+00 0. -1.
        -11    1    4    4    0    0  0.46687683794E-01 -0.51956397182E-01 -0.96087973193E-01  0.11879548282E+00  0.51100000000E-03 0. -1.
         11    1    4    4    0    0  0.67195755855E-02 -0.10794955867E-01 -0.61084615318E-02  0.14115884369E-01  0.51100000000E-03 0.  1.
</event>
<event>
 8    1  0.1078274E+005  0.1043930E+01  0.7957747E-01            NaN
         13   -1    0    0    0    0  0.00000000000E+00  0.00000000000E+00  0.74505805969E-08  0.10566000000E+00  0.10566000000E+00 0. -1.
     999900   -1    0    0    0    0 -0.00000000000E+00 -0.00000000000E+00 -0.74505805969E-08  0.93827000000E+00  0.93827000000E+00 0.  1.
     999902    2    1    2    0    0  0.19153818868E-01 -0.12700490095E-01  0.39318498953E-02  0.10206141112E+01  0.10203477512E+01 0.  0.
     999903    2    3    3    0    0 -0.80954392958E-01 -0.23208845687E-01 -0.96258414917E-01  0.12922745619E+00  0.18487529126E-01 0.  0.
         14    1    1    2    0    0 -0.19153818868E-01  0.12700490095E-01 -0.39318498953E-02  0.23315888777E-01  0.00000000000E+00 0. -1.
     999901    1    3    3    0    0  0.10010821183E+00  0.10508355593E-01  0.10019026481E+00  0.89138665504E+00  0.88000000000E+00 0.  1.
        -11    1    4    4    0    0 -0.30861760019E-01 -0.40394308041E-02 -0.24369880646E-01  0.39533750599E-01  0.51100000000E-03 0. -1.
         11    1    4    4    0    0 -0.50092632938E-01 -0.19169414883E-01 -0.71888534271E-01  0.89693705589E-01  0.51100000000E-03 0.  1.
</event>
<event>
 8    1  0.1078274E+005  0.1043930E+01  0.7957747E-01            NaN
         13   -1    0    0    0    0  0.00000000000E+00  0.00000000000E+00  0.74505805969E-08  0.10566000000E+00  0.10566000000E+00 0. -1.
     999900   -1    0    0    0    0 -0.00000000000E+00 -0.00000000000E+00 -0.74505805969E-08  0.93827000000E+00  0.93827000000E+00 0.  1.
     999902    2    1    2    0    0  0.15045802172E-01  0.11086205382E-01 -0.14775993103E-01  0.10201054311E+01  0.10198271816E+01 0.  0.
     999903    2    3    3    0    0 -0.72847837215E-02 -0.12054787495E+00  0.36565621420E-01  0.12855501322E+00  0.24586348362E-01 0.  0.
         14    1    1    2    0    0 -0.15045802172E-01 -0.11086205382E-01  0.14775993103E-01  0.23824568935E-01  0.00000000000E+00 0. -1.
     999901    1    3    3    0    0  0.22330585893E-01  0.13163408033E+00 -0.51341614523E-01  0.89155041784E+00  0.88000000000E+00 0. -1.
        -11    1    4    4    0    0 -0.83619746692E-02 -0.56628211238E-01  0.29020809855E-01  0.64180569132E-01  0.51100000000E-03 0. -1.
         11    1    4    4    0    0  0.10771909477E-02 -0.63919663713E-01  0.75448115650E-02  0.64374444092E-01  0.51100000000E-03 0.  1.
</event>
<event>
 8    1  0.1078274E+005  0.1043930E+01  0.7957747E-01            NaN
         13   -1    0    0    0    0  0.00000000000E+00  0.00000000000E+00  0.74505805969E-08  0.10566000000E+00  0.10566000000E+00 0.  1.
     999900   -1    0    0    0    0 -0.00000000000E+00 -0.00000000000E+00 -0.74505805969E-08  0.93827000000E+00  0.93827000000E+00 0. -1.
     999902    2    1    2    0    0  0.15681505745E-01  0.26208597203E-02 -0.17518934902E-01  0.10202721977E+01  0.10199978754E+01 0.  0.
     999903    2    3    3    0    0 -0.36802041367E-01  0.10791265549E+00  0.57758265534E-01  0.12925730342E+00  0.19284755288E-01 0.  0.
         14    1    1    2    0    0 -0.15681505745E-01 -0.26208597203E-02  0.17518934902E-01  0.23657802269E-01  0.00000000000E+00 0.  1.
     999901    1    3    3    0    0  0.52483547111E-01 -0.10529179577E+00 -0.75277200435E-01  0.89101489431E+00  0.88000000000E+00 0. -1.
        -11    1    4    4    0    0 -0.26062798583E-01  0.80219940581E-01  0.51720722633E-01  0.98943431351E-01  0.51100000000E-03 0.  1.
         11    1    4    4    0    0 -0.10739242783E-01  0.27692714911E-01  0.60375429008E-02  0.30313872072E-01  0.51100000000E-03 0. -1.
</event>
<event>
 8    1  0.1078274E+005  0.1043930E+01  0.7957747E-01            NaN
         13   -1    0    0    0    0  0.00000000000E+00  0.00000000000E+00  0.74505805969E-08  0.10566000000E+00  0.10566000000E+00 0.  1.
     999900   -1    0    0    0    0 -0.00000000000E+00 -0.00000000000E+00 -0.74505805969E-08  0.93827000000E+00  0.93827000000E+00 0. -1.
     999902    2    1    2    0    0 -0.98237219996E-02  0.17221123587E-01  0.12405077926E-01  0.10205428546E+01  0.10202748451E+01 0.  0.
     999903    2    3    3    0    0  0.12456030571E+00 -0.28101248525E-01  0.26867364302E-02  0.12913518665E+00  0.19071653106E-01 0.  0.
         14    1    1    2    0    0  0.98237219996E-02 -0.17221123587E-01 -0.12405077926E-01  0.23387145398E-01  0.00000000000E+00 0. -1.
     999901    1    3    3    0    0 -0.13438402771E+00  0.45322372112E-01  0.97183414963E-02  0.89140766795E+00  0.88000000000E+00 0. -1.
        -11    1    4    4    0    0  0.68608259662E-01 -0.23384445083E-01 -0.39395053694E-02  0.72592743365E-01  0.51100000000E-03 0. -1.
         11    1    4    4    0    0  0.55952046046E-01 -0.47168034421E-02  0.66262417996E-02  0.56542443287E-01  0.51100000000E-03 0.  1.
</event>
<event>
 8    1  0.1078274E+005  0.1043930E+01  0.7957747E-01            NaN
         13   -1    0    0    0    0  0.00000000000E+00  0.00000000000E+00  0.74505805969E-08  0.10566000000E+00  0.10566000000E+00 0. -1.
     999900   -1    0    0    0    0 -0.00000000000E+00 -0.00000000000E+00 -0.74505805969E-08  0.93827000000E+00  0.93827000000E+00 0.  1.
     999902    2    1    2    0    0  0.45048605444E-02  0.64039959732E-02  0.22110590694E-01  0.10204740167E+01  0.10202044087E+01 0.  0.
     999903    2    3    3    0    0 -0.11964362762E-01  0.88345949322E-01  0.97139972369E-01  0.13333528618E+00  0.19848717081E-01 0.  0.
         14    1    1    2    0    0 -0.45048605444E-02 -0.64039959732E-02 -0.22110590694E-01  0.23455983326E-01  0.00000000000E+00 0.  1.
     999901    1    3    3    0    0  0.16469223306E-01 -0.81941953349E-01 -0.75029381675E-01  0.88713873050E+00  0.88000000000E+00 0.  1.
        -11    1    4    4    0    0  0.39130632424E-02  0.21589524727E-01  0.31372180464E-01  0.38287001319E-01  0.51100000000E-03 0.  1.
         11    1    4    4    0    0 -0.15877426004E-01  0.66756424596E-01  0.65767791905E-01  0.95048284857E-01  0.51100000000E-03 0. -1.
</event>
<event>
 8    1  0.1078274E+005  0.1043930E+01  0.7957747E-01            NaN
         13   -1    0    0    0    0  0.00000000000E+00  0.00000000000E+00  0.74505805969E-08  0.10566000000E+00  0.10566000000E+00 0. -1.
     999900   -1    0    0    0    0 -0.00000000000E+00 -0.00000000000E+00 -0.74505805969E-08  0.93827000000E+00  0.93827000000E+00 0. -1.
     999902    2    1    2    0    0  0.21714930769E-01  0.47594253816E-02  0.78562051793E-02  0.10203522497E+01  0.10200798024E+01 0.  0.
     999903    2    3    3    0    0  0.39243516091E-02 -0.23917515754E-01 -0.12542665295E+00  0.12967655570E+00  0.22287120296E-01 0.  0.
         14    1    1    2    0    0 -0.21714930769E-01 -0.47594253816E-02 -0.78562051793E-02  0.23577750277E-01  0.00000000000E+00 0.  1.
     999901    1    3    3    0    0  0.17790579160E-01  0.28676941136E-01  0.13328285813E+00  0.89067569403E+00  0.88000000000E+00 0.  1.
        -11    1    4    4    0    0 -0.67010741163E-03 -0.19662491246E-01 -0.46409069486E-01  0.50409577041E-01  0.51100000000E-03 0.  1.
         11    1    4    4    0    0  0.45944590207E-02 -0.42550245083E-02 -0.79017583466E-01  0.79266978655E-01  0.51100000000E-03 0. -1.
</event>
<event>
 8    1  0.1078274E+005  0.1043930E+01  0.7957747E-01            NaN
         13   -1    0    0    0    0  0.00000000000E+00  0.00000000000E+00  0.74505805969E-08  0.10566000000E+00  0.10566000000E+00 0. -1.
     999900   -1    0    0    0    0 -0.00000000000E+00 -0.00000000000E+00 -0.74505805969E-08  0.93827000000E+00  0.93827000000E+00 0.  1.
     999902    2    1    2    0    0 -0.45557496505E-02 -0.13725078175E-01  0.20236348461E-01  0.10190574765E+01  0.10187538947E+01 0.  0.
     999903    2    3    3    0    0 -0.15000071731E-03  0.17525443491E-01 -0.12396036322E+00  0.12676341210E+00  0.19890382797E-01 0.  0.
         14    1    1    2    0    0  0.45557496505E-02  0.13725078175E-01 -0.20236348461E-01  0.24872523492E-01  0.00000000000E+00 0.  1.
     999901    1    3    3    0    0 -0.44057489331E-02 -0.31250521666E-01  0.14419671168E+00  0.89229406441E+00  0.88000000000E+00 0. -1.
        -11    1    4    4    0    0 -0.96594723787E-02  0.76337672465E-02 -0.70444988457E-01  0.71514595214E-01  0.51100000000E-03 0.  1.
         11    1    4    4    0    0  0.95094716614E-02  0.98916762442E-02 -0.53515374759E-01  0.55248816881E-01  0.51100000000E-03 0. -1.
</event>
<event>
 8    1  0.1078274E+005  0.1043930E+01  0.7957747E-01            NaN
         13   -1    0    0    0    0  0.00000000000E+00  0.00000000000E+00  0.74505805969E-08  0.10566000000E+00  0.10566000000E+00 0. -1.
     999900   -1    0    0    0    0 -0.00000000000E+00 -0.00000000000E+00 -0.74505805969E-08  0.93827000000E+00  0.93827000000E+00 0.  1.
     999902    2    1    2    0    0 -0.10002133344E-01 -0.44683121380E-02 -0.20824378558E-01  0.10203999506E+01  0.10201286173E+01 0.  0.
     999903    2    3    3    0    0 -0.12954945723E+00  0.50033241013E-02  0.11965983897E-01  0.13166124744E+00  0.19580709531E-01 0.  0.
         14    1    1    2    0    0  0.10002133344E-01  0.44683121380E-02  0.20824378558E-01  0.23530049450E-01  0.00000000000E+00 0. -1.
     999901    1    3    3    0    0  0.11954732389E+00 -0.94716362393E-02 -0.32790362454E-01  0.88873870311E+00  0.88000000000E+00 0.  1.
        -11    1    4    4    0    0 -0.44329538777E-01 -0.99101269234E-03  0.13044616000E-01  0.46222432237E-01  0.51100000000E-03 0. -1.
         11    1    4    4    0    0 -0.85219918452E-01  0.59943367936E-02 -0.10786321037E-02  0.85438815200E-01  0.51100000000E-03 0.  1.
</event>
<event>
 8    1  0.1078274E+005  0.1043930E+01  0.7957747E-01            NaN
         13   -1    0    0    0    0  0.00000000000E+00  0.00000000000E+00  0.74505805969E-08  0.10566000000E+00  0.10566000000E+00 0.  1.
     999900   -1    0    0    0    0 -0.00000000000E+00 -0.00000000000E+00 -0.74505805969E-08  0.93827000000E+00  0.93827000000E+00 0. -1.
     999902    2    1    2    0    0 -0.15817539237E-02 -0.22283957959E-01  0.10311566774E-01  0.10193250180E+01  0.10190280110E+01 0.  0.
     999903    2    3    3    0    0 -0.94606023068E-01 -0.57615664773E-02 -0.85400352312E-01  0.12910747411E+00  0.19799607247E-01 0.  0.
         14    1    1    2    0    0  0.15817539237E-02  0.22283957959E-01 -0.10311566774E-01  0.24604981958E-01  0.00000000000E+00 0. -1.
     999901    1    3    3    0    0  0.93024269144E-01 -0.16522391482E-01  0.95711919086E-01  0.89021754393E+00  0.88000000000E+00 0.  1.
        -11    1    4    4    0    0 -0.84275056449E-01 -0.11393896314E-01 -0.75488750322E-01  0.11371419682E+00  0.51100000000E-03 0. -1.
         11    1    4    4    0    0 -0.10330966619E-01  0.56323298364E-02 -0.99116019893E-02  0.15393277288E-01  0.51100000000E-03 0.  1.
</event>
<event>
 8    1  0.1078274E+005  0.1043930E+01  0.7957747E-01            NaN
         13   -1    0    0    0    0  0.00000000000E+00  0.00000000000E+00  0.74505805969E-08  0.10566000000E+00  0.10566000000E+00 0.  1.
     999900   -1    0    0    0    0 -0.00000000000E+00 -0.00000000000E+00 -0.74505805969E-08  0.93827000000E+00  0.93827000000E+00 0.  1.
     999902    2    1    2    0    0 -0.18061104685E-02 -0.89237067554E-02 -0.21002773854E-01  0.10210387116E+01  0.10207820724E+01 0.  0.
     999903    2    3    3    0    0  0.69836551291E-01 -0.72358127296E-01  0.80146703427E-01  0.13009100633E+00  0.19680786941E-01 0.  0.
         14    1    1    2    0    0  0.18061104685E-02  0.89237067554E-02  0.21002773854E-01  0.22891288448E-01  0.00000000000E+00 0.  1.
     999901    1    3    3    0    0 -0.71642661759E-01  0.63434420541E-01 -0.10114947728E+00  0.89094770523E+00  0.88000000000E+00 0.  1.
        -11    1    4    4    0    0  0.60115609010E-02 -0.62196075384E-03  0.77221979699E-02  0.98193259510E-02  0.51100000000E-03 0. -1.
         11    1    4    4    0    0  0.63824990390E-01 -0.71736166543E-01  0.72424505457E-01  0.12027168037E+00  0.51100000000E-03 0.  1.
</event>
<event>
 8    1  0.1078274E+005  0.1043930E+01  0.7957747E-01            NaN
         13   -1    0    0    0    0  0.00000000000E+00  0.00000000000E+00  0.74505805969E-08  0.10566000000E+00  0.10566000000E+00 0. -1.
     999900   -1    0    0    0    0 -0.00000000000E+00 -0.00000000000E+00 -0.74505805969E-08  0.93827000000E+00  0.93827000000E+00 0. -1.
     999902    2    1    2    0    0  0.13002552388E-01  0.10230913933E-01 -0.77986389690E-02  0.10256391078E+01  0.10254759981E+01 0.  0.
     999903    2    3    3    0    0 -0.54043858287E-01  0.11817363686E+00  0.32709062305E-01  0.13558982460E+00  0.20711608166E-01 0.  0.
         14    1    1    2    0    0 -0.13002552388E-01 -0.10230913933E-01  0.77986389690E-02  0.18290892222E-01  0.00000000000E+00 0. -1.
     999901    1    3    3    0    0  0.67046410675E-01 -0.10794272292E+00 -0.40507701274E-01  0.89004928317E+00  0.88000000000E+00 0. -1.
        -11    1    4    4    0    0 -0.72489953472E-02  0.42543532766E-02  0.24557515954E-02  0.87715045599E-02  0.51100000000E-03 0.  1.
         11    1    4    4    0    0 -0.46794862940E-01  0.11391928358E+00  0.30253310710E-01  0.12681832004E+00  0.51100000000E-03 0. -1.
</event>
<event>
 8    1  0.1078274E+005  0.1043930E+01  0.7957747E-01            NaN
         13   -1    0    0    0    0  0.00000000000E+00  0.00000000000E+00  0.74505805969E-08  0.10566000000E+00  0.10566000000E+00 0. -1.
     999900   -1    0    0    0    0 -0.00000000000E+00 -0.00000000000E+00 -0.74505805969E-08  0.93827000000E+00  0.93827000000E+00 0.  1.
     999902    2    1    2    0    0 -0.22501766890E-01 -0.28361377949E-02 -0.63502206249E-02  0.10203779620E+01  0.10201061155E+01 0.  0.
     999903    2    3    3    0    0 -0.45419555963E-01 -0.71298446828E-01 -0.99758330072E-01  0.13249430539E+00  0.21368480464E-01 0.  0.
         14    1    1    2    0    0  0.22501766890E-01  0.28361377949E-02  0.63502206249E-02  0.23552037975E-01  0.00000000000E+00 0. -1.
     999901    1    3    3    0    0  0.22917789073E-01  0.68462309033E-01  0.93408109447E-01  0.88788365664E+00  0.88000000000E+00 0. -1.
        -11    1    4    4    0    0 -0.17916658621E-01 -0.44573744217E-01 -0.46470062015E-01  0.66839756989E-01  0.51100000000E-03 0. -1.
         11    1    4    4    0    0 -0.27502897342E-01 -0.26724702610E-01 -0.53288268057E-01  0.65654548398E-01  0.51100000000E-03 0.  1.
</event>
<event>
 8    1  0.1078274E+005  0.1043930E+01  0.7957747E-01            NaN
         13   -1    0    0    0    0  0.00000000000E+00  0.00000000000E+00  0.74505805969E-08  0.10566000000E+00  0.10566000000E+00 0.  1.
     999900   -1    0    0    0    0 -0.00000000000E+00 -0.00000000000E+00 -0.74505805969E-08  0.93827000000E+00  0.93827000000E+00 0. -1.
     999902    2    1    2    0    0 -0.22217915115E-01  0.41274084079E-03  0.62651276397E-02  0.10208419526E+01  0.10205808318E+01 0.  0.
     999903    2    3    3    0    0 -0.13163202745E+00  0.15131693890E-01  0.17431611090E-02  0.13393240609E+00  0.19465147822E-01 0.  0.
         14    1    1    2    0    0  0.22217915115E-01 -0.41274084079E-03 -0.62651276397E-02  0.23088047371E-01  0.00000000000E+00 0.  1.
     999901    1    3    3    0    0  0.10941411234E+00 -0.14718953049E-01  0.45219665307E-02  0.88690954654E+00  0.88000000000E+00 0.  1.
        -11    1    4    4    0    0 -0.67586056690E-01  0.69488277844E-02 -0.87893012667E-02  0.68510394863E-01  0.51100000000E-03 0. -1.
         11    1    4    4    0    0 -0.64045970762E-01  0.81828661058E-02  0.10532462376E-01  0.65422011229E-01  0.51100000000E-03 0.  1.
</event>
<event>
 8    1  0.1078274E+005  0.1043930E+01  0.7957747E-01            NaN
         13   -1    0    0    0    0  0.00000000000E+00  0.00000000000E+00  0.74505805969E-08  0.10566000000E+00  0.10566000000E+00 0. -1.
     999900   -1    0    0    0    0 -0.00000000000E+00 -0.00000000000E+00 -0.74505805969E-08  0.93827000000E+00  0.93827000000E+00 0.  1.
     999902    2    1    2    0    0 -0.19801246677E-01  0.46503200790E-02 -0.11404671283E-01  0.10206108797E+01  0.10203444449E+01 0.  0.
     999903    2    3    3    0    0 -0.19044405438E-01  0.12273441250E+00 -0.40561994851E-01  0.13224464031E+00  0.20419208450E-01 0.  0.
         14    1    1    2    0    0  0.19801246677E-01 -0.46503200790E-02  0.11404671283E-01  0.23319120349E-01  0.00000000000E+00 0. -1.
     999901    1    3    3    0    0 -0.75684123914E-03 -0.11808409242E+00  0.29157323568E-01  0.88836623935E+00  0.88000000000E+00 0.  1.
        -11    1    4    4    0    0 -0.93440499492E-02  0.98108128865E-01 -0.25549682558E-01  0.10181141203E+00  0.51100000000E-03 0.  1.
         11    1    4    4    0    0 -0.97003554885E-02  0.24626283632E-01 -0.15012312294E-01  0.30433228280E-01  0.51100000000E-03 0. -1.
</event>
<event>
 8    1  0.1078274E+005  0.1043930E+01  0.7957747E-01            NaN
         13   -1    0    0    0    0  0.00000000000E+00  0.00000000000E+00  0.74505805969E-08  0.10566000000E+00  0.10566000000E+00 0.  1.
     999900   -1    0    0    0    0 -0.00000000000E+00 -0.00000000000E+00 -0.74505805969E-08  0.93827000000E+00  0.93827000000E+00 0. -1.
     999902    2    1    2    0    0 -0.51063652866E-02 -0.16128339923E-01  0.17241317174E-01  0.10197750557E+01  0.10194889420E+01 0.  0.
     999903    2    3    3    0    0  0.24259308927E-01  0.33291883909E-01 -0.11887226544E+00  0.12745694612E+00  0.20440010298E-01 0.  0.
         14    1    1    2    0    0  0.51063652866E-02  0.16128339923E-01 -0.17241317174E-01  0.24154944277E-01  0.00000000000E+00 0. -1.
     999901    1    3    3    0    0 -0.29365674213E-01 -0.49420223832E-01  0.13611358261E+00  0.89231810960E+00  0.88000000000E+00 0. -1.
        -11    1    4    4    0    0  0.10072099962E-01  0.88359254344E-02 -0.67474486075E-01  0.68793809082E-01  0.51100000000E-03 0. -1.
         11    1    4    4    0    0  0.14187208965E-01  0.24455958475E-01 -0.51397779364E-01  0.58663137043E-01  0.51100000000E-03 0.  1.
</event>
<event>
 8    1  0.1078274E+005  0.1043930E+01  0.7957747E-01            NaN
         13   -1    0    0    0    0  0.00000000000E+00  0.00000000000E+00  0.74505805969E-08  0.10566000000E+00  0.10566000000E+00 0. -1.
     999900   -1    0    0    0    0 -0.00000000000E+00 -0.00000000000E+00 -0.74505805969E-08  0.93827000000E+00  0.93827000000E+00 0. -1.
     999902    2    1    2    0    0 -0.21515627278E-01 -0.79602120005E-02 -0.63950015352E-02  0.10201143909E+01  0.10198363532E+01 0.  0.
     999903    2    3    3    0    0 -0.11983736803E+00  0.48493843762E-01 -0.22050084708E-01  0.13270281404E+00  0.20277646786E-01 0.  0.
         14    1    1    2    0    0  0.21515627278E-01  0.79602120005E-02  0.63950015352E-02  0.23815609102E-01  0.00000000000E+00 0.  1.
     999901    1    3    3    0    0  0.98321740751E-01 -0.56454055762E-01  0.15655083172E-01  0.88741157686E+00  0.88000000000E+00 0.  1.
        -11    1    4    4    0    0 -0.44014471273E-01  0.25950129463E-01 -0.15157485918E-01  0.53298155699E-01  0.51100000000E-03 0.  1.
         11    1    4    4    0    0 -0.75822896756E-01  0.22543714298E-01 -0.68925987896E-02  0.79404658339E-01  0.51100000000E-03 0. -1.
</event>
<event>
 8    1  0.1078274E+005  0.1043930E+01  0.7957747E-01            NaN
         13   -1    0    0    0    0  0.00000000000E+00  0.00000000000E+00  0.74505805969E-08  0.10566000000E+00  0.10566000000E+00 0. -1.
     999900   -1    0    0    0    0 -0.00000000000E+00 -0.00000000000E+00 -0.74505805969E-08  0.93827000000E+00  0.93827000000E+00 0.  1.
     999902    2    1    2    0    0  0.14686373140E-01  0.13480837853E-01  0.12601431925E-01  0.10203457122E+01  0.10200731120E+01 0.  0.
     999903    2    3    3    0    0  0.73902631187E-01 -0.95428473609E-01 -0.43740493532E-01  0.12987268289E+00  0.19633912355E-01 0.  0.
         14    1    1    2    0    0 -0.14686373140E-01 -0.13480837853E-01 -0.12601431925E-01  0.23584287816E-01  0.00000000000E+00 0. -1.
     999901    1    3    3    0    0 -0.59216258048E-01  0.10890931146E+00  0.56341925457E-01  0.89047302930E+00  0.88000000000E+00 0. -1.
        -11    1    4    4    0    0  0.55989702032E-01 -0.57849706376E-01 -0.31795427134E-01  0.86560069137E-01  0.51100000000E-03 0. -1.
         11    1    4    4    0    0  0.17912929156E-01 -0.37578767233E-01 -0.11945066397E-01  0.43312613751E-01  0.51100000000E-03 0.  1.
</event>
<event>
 8    1  0.1078274E+005  0.1043930E+01  0.7957747E-01            NaN
         13   -1    0    0    0    0  0.00000000000E+00  0.00000000000E+00  0.74505805969E-08  0.10566000000E+00  0.10566000000E+00 0.  1.
     999900   -1    0    0    0    0 -0.00000000000E+00 -0.00000000000E+00 -0.74505805969E-08  0.93827000000E+00  0.93827000000E+00 0. -1.
     999902    2    1    2    0    0  0.38548104591E-02  0.10533260938E-01 -0.21074348957E-01  0.10200566397E+01  0.10197772359E+01 0.  0.
     999903    2    3    3    0    0 -0.12648275035E-01 -0.12557450212E+00 -0.20652390935E-01  0.12944008186E+00  0.19981969267E-01 0.  0.
         14    1    1    2    0    0 -0.38548104591E-02 -0.10533260938E-01  0.21074348957E-01  0.23873360334E-01  0.00000000000E+00 0.  1.
     999901    1    3    3    0    0  0.16503085494E-01  0.13610776306E+00 -0.42195802234E-03  0.89061655781E+00  0.88000000000E+00 0. -1.
        -11    1    4    4    0    0 -0.66597742475E-02 -0.65039787808E-01 -0.20789703913E-01  0.68607576119E-01  0.51100000000E-03 0. -1.
         11    1    4    4    0    0 -0.59885007873E-02 -0.60534714312E-01  0.13731297783E-03  0.60832505738E-01  0.51100000000E-03 0.  1.
</event>
<event>
 8    1  0.1078274E+005  0.1043930E+01  0.7957747E-01            NaN
         13   -1    0    0    0    0  0.00000000000E+00  0.00000000000E+00  0.74505805969E-08  0.10566000000E+00  0.10566000000E+00 0.  1.
     999900   -1    0    0    0    0 -0.00000000000E+00 -0.00000000000E+00 -0.74505805969E-08  0.93827000000E+00  0.93827000000E+00 0. -1.
     999902    2    1    2    0    0 -0.15271443319E-01  0.12304049650E-01  0.12995683423E-01  0.10204035382E+01  0.10201322886E+01 0.  0.
     999903    2    3    3    0    0  0.87950689274E-01 -0.43200254709E-01  0.82874197129E-01  0.12988765221E+00  0.20027079078E-01 0.  0.
         14    1    1    2    0    0  0.15271443319E-01 -0.12304049650E-01 -0.12995683423E-01  0.23526461835E-01  0.00000000000E+00 0. -1.
     999901    1    3    3    0    0 -0.10322213259E+00  0.55504304359E-01 -0.69878513706E-01  0.89051588595E+00  0.88000000000E+00 0. -1.
        -11    1    4    4    0    0  0.34811746242E-01 -0.66198831553E-02  0.27254924217E-01  0.44707634073E-01  0.51100000000E-03 0.  1.
         11    1    4    4    0    0  0.53138943032E-01 -0.36580371554E-01  0.55619272913E-01  0.85180018138E-01  0.51100000000E-03 0. -1.
</event>
<event>
 7    1  0.1164192E+005  0.1043930E+01  0.7957747E-01            NaN
         13   -1    0    0    0    0  0.00000000000E+00  0.00000000000E+00  0.74505805969E-08  0.10566000000E+00  0.10566000000E+00 0. -1.
     999900   -1    0    0    0    0 -0.00000000000E+00 -0.00000000000E+00 -0.74505805969E-08  0.93827000000E+00  0.93827000000E+00 0.  1.
     999903    2    1    2    0    0  0.93739180752E-01  0.29667931088E-01  0.29434541373E-01  0.10454906761E+00  0.19922228012E-01 0.  0.
         14    1    1    2    0    0  0.39592653198E-01 -0.10697702744E-02 -0.28641140025E-01  0.48877781227E-01  0.00000000000E+00 0.  1.
     999901    1    1    2    0    0 -0.13333183395E+00 -0.28598160814E-01 -0.79340134775E-03  0.89050315116E+00  0.88000000000E+00 0. -1.
        -11    1    3    3    0    0  0.51086956738E-01  0.62686641234E-02  0.18391693605E-01  0.54659754969E-01  0.51100000000E-03 0. -1.
         11    1    3    3    0    0  0.42652224014E-01  0.23399266965E-01  0.11042847768E-01  0.49889312640E-01  0.51100000000E-03 0.  1.
</event>
<event>
 8    1  0.1078274E+005  0.1043930E+01  0.7957747E-01            NaN
         13   -1    0    0    0    0  0.00000000000E+00  0.00000000000E+00  0.74505805969E-08  0.10566000000E+00  0.10566000000E+00 0. -1.
     999900   -1    0    0    0    0 -0.00000000000E+00 -0.00000000000E+00 -0.74505805969E-08  0.93827000000E+00  0.93827000000E+00 0. -1.
     999902    2    1    2    0    0 -0.20287965518E-01  0.66043305235E-02 -0.17544845043E-02  0.10225221290E+01  0.10222980032E+01 0.  0.
     999903    2    3    3    0    0 -0.33176452974E-01  0.10730856503E+00 -0.70305571268E-01  0.13403650305E+00  0.20176858958E-01 0.  0.
         14    1    1    2    0    0  0.20287965518E-01 -0.66043305235E-02  0.17544845043E-02  0.21407871038E-01  0.00000000000E+00 0.  1.
     999901    1    3    3    0    0  0.12888487456E-01 -0.10070423451E+00  0.68551086764E-01  0.88848562591E+00  0.88000000000E+00 0.  1.
        -11    1    4    4    0    0 -0.17078915262E-01  0.46065461717E-01 -0.42146302157E-01  0.64732434036E-01  0.51100000000E-03 0. -1.
         11    1    4    4    0    0 -0.16097537712E-01  0.61243103314E-01 -0.28159269111E-01  0.69304069013E-01  0.51100000000E-03 0.  1.
</event>
<event>
 8    1  0.1078274E+005  0.1043930E+01  0.7957747E-01            NaN
         13   -1    0    0    0    0  0.00000000000E+00  0.00000000000E+00  0.74505805969E-08  0.10566000000E+00  0.10566000000E+00 0.  1.
     999900   -1    0    0    0    0 -0.00000000000E+00 -0.00000000000E+00 -0.74505805969E-08  0.93827000000E+00  0.93827000000E+00 0. -1.
     999902    2    1    2    0    0 -0.99474162662E-02 -0.44295185205E-03 -0.21691226596E-01  0.10200625199E+01  0.10197832553E+01 0.  0.
     999903    2    3    3    0    0  0.94732606050E-01  0.79334299731E-01  0.30202229131E-01  0.12876276799E+00  0.19986946087E-01 0.  0.
         14    1    1    2    0    0  0.99474162662E-02  0.44295185205E-03  0.21691226596E-01  0.23867480134E-01  0.00000000000E+00 0.  1.
     999901    1    3    3    0    0 -0.10468002232E+00 -0.79777251583E-01 -0.51893455726E-01  0.89129975187E+00  0.88000000000E+00 0. -1.
        -11    1    4    4    0    0  0.91370483787E-02  0.15934331265E-01  0.14577350107E-02  0.18432978009E-01  0.51100000000E-03 0. -1.
         11    1    4    4    0    0  0.85595557671E-01  0.63399968466E-01  0.28744494120E-01  0.11032978998E+00  0.51100000000E-03 0.  1.
</event>
<event>
 8    1  0.1078274E+005  0.1043930E+01  0.7957747E-01            NaN
         13   -1    0    0    0    0  0.00000000000E+00  0.00000000000E+00  0.74505805969E-08  0.10566000000E+00  0.10566000000E+00 0.  1.
     999900   -1    0    0    0    0 -0.00000000000E+00 -0.00000000000E+00 -0.74505805969E-08  0.93827000000E+00  0.93827000000E+00 0. -1.
     999902    2    1    2    0    0  0.27029862453E-02  0.12108486953E-01 -0.19626329331E-01  0.10207111629E+01  0.10204470411E+01 0.  0.
     999903    2    3    3    0    0 -0.11706185476E+00  0.56051122778E-01  0.10575983535E-02  0.13127179051E+00  0.19645820543E-01 0.  0.
         14    1    1    2    0    0 -0.27029862453E-02 -0.12108486953E-01  0.19626329331E-01  0.23218837050E-01  0.00000000000E+00 0.  1.
     999901    1    3    3    0    0  0.11976484100E+00 -0.43942635825E-01 -0.20683927685E-01  0.88943937244E+00  0.88000000000E+00 0.  1.
        -11    1    4    4    0    0 -0.91203118446E-01  0.43268319961E-01  0.90007537828E-02  0.10134806864E+00  0.51100000000E-03 0. -1.
         11    1    4    4    0    0 -0.25858736312E-01  0.12782802817E-01 -0.79431554294E-02  0.29923721872E-01  0.51100000000E-03 0.  1.
</event>
<event>
 8    1  0.1078274E+005  0.1043930E+01  0.7957747E-01            NaN
         13   -1    0    0    0    0  0.00000000000E+00  0.00000000000E+00  0.74505805969E-08  0.10566000000E+00  0.10566000000E+00 0.  1.
     999900   -1    0    0    0    0 -0.00000000000E+00 -0.00000000000E+00 -0.74505805969E-08  0.93827000000E+00  0.93827000000E+00 0. -1.
     999902    2    1    2    0    0  0.65151268683E-02  0.14786471319E-01 -0.18929113790E-01  0.10190422930E+01  0.10187383358E+01 0.  0.
     999903    2    3    3    0    0 -0.10763723424E+00 -0.13493674354E-01 -0.70751063671E-01  0.12970768627E+00  0.71075611581E-02 0.  0.
         14    1    1    2    0    0 -0.65151268683E-02 -0.14786471319E-01  0.18929113790E-01  0.24887707026E-01  0.00000000000E+00 0.  1.
     999901    1    3    3    0    0  0.11415236111E+00  0.28280145673E-01  0.51821949882E-01  0.88933460670E+00  0.88000000000E+00 0.  1.
        -11    1    4    4    0    0 -0.92731299186E-02  0.26171809779E-03 -0.76555485521E-02  0.12038603718E-01  0.51100000000E-03 0. -1.
         11    1    4    4    0    0 -0.98364104320E-01 -0.13755392452E-01 -0.63095515119E-01  0.11766908255E+00  0.51100000000E-03 0.  1.
</event>
<event>
 8    1  0.1078274E+005  0.1043930E+01  0.7957747E-01            NaN
         13   -1    0    0    0    0  0.00000000000E+00  0.00000000000E+00  0.74505805969E-08  0.10566000000E+00  0.10566000000E+00 0.  1.
     999900   -1    0    0    0    0 -0.00000000000E+00 -0.00000000000E+00 -0.74505805969E-08  0.93827000000E+00  0.93827000000E+00 0.  1.
     999902    2    1    2    0    0 -0.50254050413E-02 -0.16207152031E-01  0.16139760238E-01  0.10205116667E+01  0.10202429336E+01 0.  0.
     999903    2    3    3    0    0 -0.11507570843E+00 -0.56846058204E-01  0.29942645368E-01  0.13261915656E+00  0.14744004565E-01 0.  0.
         14    1    1    2    0    0  0.50254050413E-02  0.16207152031E-01 -0.16139760238E-01  0.23418333273E-01  0.00000000000E+00 0. -1.
     999901    1    3    3    0    0  0.11005030339E+00  0.40638906173E-01 -0.13802885130E-01  0.88789251017E+00  0.88000000000E+00 0. -1.
        -11    1    4    4    0    0 -0.48726044397E-01 -0.26474868529E-01  0.20097696222E-01  0.58985799822E-01  0.51100000000E-03 0. -1.
         11    1    4    4    0    0 -0.66349664035E-01 -0.30371189674E-01  0.98449491460E-02  0.73633356738E-01  0.51100000000E-03 0.  1.
</event>
<event>
 8    1  0.1078274E+005  0.1043930E+01  0.7957747E-01            NaN
         13   -1    0    0    0    0  0.00000000000E+00  0.00000000000E+00  0.74505805969E-08  0.10566000000E+00  0.10566000000E+00 0.  1.
     999900   -1    0    0    0    0 -0.00000000000E+00 -0.00000000000E+00 -0.74505805969E-08  0.93827000000E+00  0.93827000000E+00 0.  1.
     999902    2    1    2    0    0  0.72400076611E-02 -0.20730425104E-01  0.74433476397E-02  0.10207444084E+01  0.10204810510E+01 0.  0.
     999903    2    3    3    0    0 -0.46223907671E-01  0.41182442837E-01  0.11309474624E+00  0.13065800160E+00  0.21176603045E-01 0.  0.
         14    1    1    2    0    0 -0.72400076611E-02  0.20730425104E-01 -0.74433476397E-02  0.23185591647E-01  0.00000000000E+00 0.  1.
     999901    1    3    3    0    0  0.53463915333E-01 -0.61912867941E-01 -0.10565139860E+00  0.89008640675E+00  0.88000000000E+00 0.  1.
        -11    1    4    4    0    0 -0.30116578936E-01  0.12795987219E-01  0.59459916948E-01  0.67871116539E-01  0.51100000000E-03 0.  1.
         11    1    4    4    0    0 -0.16107328736E-01  0.28386455617E-01  0.53634829292E-01  0.62786885062E-01  0.51100000000E-03 0. -1.
</event>
<event>
 8    1  0.1078274E+005  0.1043930E+01  0.7957747E-01            NaN
         13   -1    0    0    0    0  0.00000000000E+00  0.00000000000E+00  0.74505805969E-08  0.10566000000E+00  0.10566000000E+00 0. -1.
     999900   -1    0    0    0    0 -0.00000000000E+00 -0.00000000000E+00 -0.74505805969E-08  0.93827000000E+00  0.93827000000E+00 0.  1.
     999902    2    1    2    0    0 -0.19859378911E-01 -0.15101990738E-01 -0.14409126939E-02  0.10189391760E+01  0.10186326635E+01 0.  0.
     999903    2    3    3    0    0 -0.11394832389E+00  0.31219538880E-01 -0.53558636243E-01  0.13118094834E+00  0.19520081086E-01 0.  0.
         14    1    1    2    0    0  0.19859378911E-01  0.15101990738E-01  0.14409126939E-02  0.24990824003E-01  0.00000000000E+00 0. -1.
     999901    1    3    3    0    0  0.94088944976E-01 -0.46321529618E-01  0.52117723549E-01  0.88775822766E+00  0.88000000000E+00 0.  1.
        -11    1    4    4    0    0 -0.79168489184E-01  0.23129918840E-01 -0.46809531588E-01  0.94836892577E-01  0.51100000000E-03 0. -1.
         11    1    4    4    0    0 -0.34779834702E-01  0.80896200401E-02 -0.67491046549E-02  0.36344055758E-01  0.51100000000E-03 0.  1.
</event>
<event>
 8    1  0.1087846E+005  0.1043930E+01  0.7957747E-01            NaN
         13   -1    0    0    0    0  0.00000000000E+00  0.00000000000E+00  0.74505805969E-08  0.10566000000E+00  0.10566000000E+00 0. -1.
     999900   -1    0    0    0    0 -0.00000000000E+00 -0.00000000000E+00 -0.74505805969E-08  0.93827000000E+00  0.93827000000E+00 0. -1.
     999902    2    1    2    0    0 -0.16015173701E-01  0.13511463296E-01 -0.74929335004E-02  0.10216771467E+01  0.10214347764E+01 0.  0.
     999903    2    3    3    0    0 -0.94061754221E-01  0.88311445007E-01 -0.32981719481E-01  0.13469575779E+00  0.20214559637E-01 0.  0.
         14    1    1    2    0    0  0.16015173701E-01 -0.13511463296E-01  0.74929335004E-02  0.22252853334E-01  0.00000000000E+00 0. -1.
     999901    1    3    3    0    0  0.78046580520E-01 -0.74799981712E-01  0.25488785981E-01  0.88698138887E+00  0.88000000000E+00 0. -1.
        -11    1    4    4    0    0 -0.31482540679E-01  0.42999793863E-01 -0.15042669380E-01  0.55377573646E-01  0.51100000000E-03 0.  1.
         11    1    4    4    0    0 -0.62579213542E-01  0.45311651145E-01 -0.17939050101E-01  0.79318184148E-01  0.51100000000E-03 0. -1.
</event>
<event>
 8    1  0.1078274E+005  0.1043930E+01  0.7957747E-01            NaN
         13   -1    0    0    0    0  0.00000000000E+00  0.00000000000E+00  0.74505805969E-08  0.10566000000E+00  0.10566000000E+00 0. -1.
     999900   -1    0    0    0    0 -0.00000000000E+00 -0.00000000000E+00 -0.74505805969E-08  0.93827000000E+00  0.93827000000E+00 0.  1.
     999902    2    1    2    0    0  0.21285696537E-01  0.65567072990E-02  0.35170814800E-02  0.10213813604E+01  0.10211324312E+01 0.  0.
     999903    2    3    3    0    0 -0.52576995007E-01 -0.92478441928E-01  0.72244473110E-01  0.13009739195E+00  0.19734864345E-01 0.  0.
         14    1    1    2    0    0 -0.21285696537E-01 -0.65567072990E-02 -0.35170814800E-02  0.22548639644E-01  0.00000000000E+00 0. -1.
     999901    1    3    3    0    0  0.73862691544E-01  0.99035149227E-01 -0.68727391630E-01  0.89128396841E+00  0.88000000000E+00 0.  1.
        -11    1    4    4    0    0 -0.27551244967E-01 -0.60636370066E-01  0.35819605596E-01  0.75625033819E-01  0.51100000000E-03 0. -1.
         11    1    4    4    0    0 -0.25025750040E-01 -0.31842071862E-01  0.36424867514E-01  0.54472358127E-01  0.51100000000E-03 0.  1.
</event>
<event>
 8    1  0.1078274E+005  0.1043930E+01  0.7957747E-01            NaN
         13   -1    0    0    0    0  0.00000000000E+00  0.00000000000E+00  0.74505805969E-08  0.10566000000E+00  0.10566000000E+00 0. -1.
     999900   -1    0    0    0    0 -0.00000000000E+00 -0.00000000000E+00 -0.74505805969E-08  0.93827000000E+00  0.93827000000E+00 0.  1.
     999902    2    1    2    0    0 -0.16436055216E-01 -0.91565306004E-02 -0.15148963138E-01  0.10197747304E+01  0.10194886090E+01 0.  0.
     999903    2    3    3    0    0 -0.44294537818E-01  0.33372716876E-01  0.11475089449E+00  0.12878718565E+00  0.18510188803E-01 0.  0.
         14    1    1    2    0    0  0.16436055216E-01  0.91565306004E-02  0.15148963138E-01  0.24155269567E-01  0.00000000000E+00 0. -1.
     999901    1    3    3    0    0  0.27858482602E-01 -0.42529247477E-01 -0.12989985763E+00  0.89098754478E+00  0.88000000000E+00 0.  1.
        -11    1    4    4    0    0 -0.11520952403E-01  0.10331161299E-02  0.15240414510E-01  0.19139776087E-01  0.51100000000E-03 0.  1.
         11    1    4    4    0    0 -0.32773585415E-01  0.32339600746E-01  0.99510479980E-01  0.10964740956E+00  0.51100000000E-03 0. -1.
</event>
<event>
 8    1  0.1078274E+005  0.1043930E+01  0.7957747E-01            NaN
         13   -1    0    0    0    0  0.00000000000E+00  0.00000000000E+00  0.74505805969E-08  0.10566000000E+00  0.10566000000E+00 0. -1.
     999900   -1    0    0    0    0 -0.00000000000E+00 -0.00000000000E+00 -0.74505805969E-08  0.93827000000E+00  0.93827000000E+00 0.  1.
     999902    2    1    2    0    0  0.10823337174E-01 -0.45264468906E-02 -0.19726890902E-01  0.10209782338E+01  0.10207202213E+01 0.  0.
     999903    2    3    3    0    0 -0.12510586983E+00 -0.21200198723E-01  0.17177516123E-01  0.12962157194E+00  0.20143429699E-01 0.  0.
         14    1    1    2    0    0 -0.10823337174E-01  0.45264468906E-02  0.19726890902E-01  0.22951766243E-01  0.00000000000E+00 0. -1.
     999901    1    3    3    0    0  0.13592920700E+00  0.16673751832E-01 -0.36904407025E-01  0.89135666182E+00  0.88000000000E+00 0.  1.
        -11    1    4    4    0    0 -0.74636730405E-01 -0.22179943508E-01  0.13295608659E-01  0.78991301737E-01  0.51100000000E-03 0. -1.
         11    1    4    4    0    0 -0.50469139421E-01  0.97974478561E-03  0.38819074640E-02  0.50630270198E-01  0.51100000000E-03 0.  1.
</event>
<event>
 8    1  0.1078274E+005  0.1043930E+01  0.7957747E-01            NaN
         13   -1    0    0    0    0  0.00000000000E+00  0.00000000000E+00  0.74505805969E-08  0.10566000000E+00  0.10566000000E+00 0.  1.
     999900   -1    0    0    0    0 -0.00000000000E+00 -0.00000000000E+00 -0.74505805969E-08  0.93827000000E+00  0.93827000000E+00 0.  1.
     999902    2    1    2    0    0  0.42033089687E-02  0.15231056308E-01  0.17703339532E-01  0.10202010912E+01  0.10199250979E+01 0.  0.
     999903    2    3    3    0    0 -0.81338703036E-01 -0.86953030632E-01  0.48757976358E-01  0.12962632515E+00  0.15774338860E-01 0.  0.
         14    1    1    2    0    0 -0.42033089687E-02 -0.15231056308E-01 -0.17703339532E-01  0.23728908806E-01  0.00000000000E+00 0. -1.
     999901    1    3    3    0    0  0.85542012005E-01  0.10218408694E+00 -0.31054636826E-01  0.89057476604E+00  0.88000000000E+00 0. -1.
        -11    1    4    4    0    0 -0.49964201368E-01 -0.46819147603E-01  0.34770078454E-01  0.76796311613E-01  0.51100000000E-03 0. -1.
         11    1    4    4    0    0 -0.31374501668E-01 -0.40133883028E-01  0.13987897904E-01  0.52830013540E-01  0.51100000000E-03 0.  1.
</event>
<event>
 8    1  0.1078274E+005  0.1043930E+01  0.7957747E-01            NaN
         13   -1    0    0    0    0  0.00000000000E+00  0.00000000000E+00  0.74505805969E-08  0.10566000000E+00  0.10566000000E+00 0.  1.
     999900   -1    0    0    0    0 -0.00000000000E+00 -0.00000000000E+00 -0.74505805969E-08  0.93827000000E+00  0.93827000000E+00 0. -1.
     999902    2    1    2    0    0  0.20123991225E-01  0.97984854207E-02  0.17590506820E-01  0.10154622767E+01  0.10150631626E+01 0.  0.
     999903    2    3    3    0    0 -0.90163885760E-01  0.70205628510E-01 -0.44809736875E-01  0.12433589445E+00  0.19827898506E-01 0.  0.
         14    1    1    2    0    0 -0.20123991225E-01 -0.97984854207E-02 -0.17590506820E-01  0.28467723294E-01  0.00000000000E+00 0. -1.
     999901    1    3    3    0    0  0.11028787698E+00 -0.60407143090E-01  0.62400243695E-01  0.89112638226E+00  0.88000000000E+00 0.  1.
        -11    1    4    4    0    0 -0.64344216548E-01  0.58340746825E-01 -0.39532864795E-01  0.95430233486E-01  0.51100000000E-03 0. -1.
         11    1    4    4    0    0 -0.25819669212E-01  0.11864881686E-01 -0.52768720794E-02  0.28905660961E-01  0.51100000000E-03 0.  1.
</event>
<event>
 8    1  0.1078274E+005  0.1043930E+01  0.7957747E-01            NaN
         13   -1    0    0    0    0  0.00000000000E+00  0.00000000000E+00  0.74505805969E-08  0.10566000000E+00  0.10566000000E+00 0. -1.
     999900   -1    0    0    0    0 -0.00000000000E+00 -0.00000000000E+00 -0.74505805969E-08  0.93827000000E+00  0.93827000000E+00 0.  1.
     999902    2    1    2    0    0 -0.11042238962E-01  0.11850036396E-01  0.20444851629E-01  0.10178465500E+01  0.10175122864E+01 0.  0.
     999903    2    3    3    0    0 -0.51468162794E-01 -0.11410282683E+00 -0.13137341611E-01  0.12732639711E+00  0.19261224871E-01 0.  0.
         14    1    1    2    0    0  0.11042238962E-01 -0.11850036396E-01 -0.20444851629E-01  0.26083449964E-01  0.00000000000E+00 0. -1.
     999901    1    3    3    0    0  0.40425923832E-01  0.12595286323E+00  0.33582193239E-01  0.89052015293E+00  0.88000000000E+00 0. -1.
        -11    1    4    4    0    0 -0.32081375962E-01 -0.62166029012E-01  0.15478384070E-02  0.69974901010E-01  0.51100000000E-03 0.  1.
         11    1    4    4    0    0 -0.19386786832E-01 -0.51936797818E-01 -0.14685180018E-01  0.57351496096E-01  0.51100000000E-03 0. -1.
</event>
<event>
 8    1  0.1078274E+005  0.1043930E+01  0.7957747E-01            NaN
         13   -1    0    0    0    0  0.00000000000E+00  0.00000000000E+00  0.74505805969E-08  0.10566000000E+00  0.10566000000E+00 0.  1.
     999900   -1    0    0    0    0 -0.00000000000E+00 -0.00000000000E+00 -0.74505805969E-08  0.93827000000E+00  0.93827000000E+00 0. -1.
     999902    2    1    2    0    0 -0.13963481874E-01 -0.16794865755E-01 -0.15891168288E-02  0.10220308760E+01  0.10217962320E+01 0.  0.
     999903    2    3    3    0    0  0.10655534397E+00  0.56786799570E-01 -0.42502916765E-01  0.12983527639E+00  0.21723699663E-01 0.  0.
         14    1    1    2    0    0  0.13963481874E-01  0.16794865755E-01  0.15891168288E-02  0.21899124048E-01  0.00000000000E+00 0. -1.
     999901    1    3    3    0    0 -0.12051882585E+00 -0.73581665325E-01  0.40913799936E-01  0.89219559956E+00  0.88000000000E+00 0.  1.
        -11    1    4    4    0    0  0.36710858241E-01  0.18378004146E-01 -0.25499838082E-01  0.48331573659E-01  0.51100000000E-03 0. -1.
         11    1    4    4    0    0  0.69844485730E-01  0.38408795424E-01 -0.17003078683E-01  0.81503702729E-01  0.51100000000E-03 0.  1.
</event>
<event>
 8    1  0.1078274E+005  0.1043930E+01  0.7957747E-01            NaN
         13   -1    0    0    0    0  0.00000000000E+00  0.00000000000E+00  0.74505805969E-08  0.10566000000E+00  0.10566000000E+00 0. -1.
     999900   -1    0    0    0    0 -0.00000000000E+00 -0.00000000000E+00 -0.74505805969E-08  0.93827000000E+00  0.93827000000E+00 0. -1.
     999902    2    1    2    0    0  0.62636522939E-03  0.19320356114E-01  0.12795945685E-01  0.10207480087E+01  0.10204847341E+01 0.  0.
     999903    2    3    3    0    0 -0.12444607648E+00  0.38102265752E-01  0.28016482744E-02  0.13164972293E+00  0.19626301468E-01 0.  0.
         14    1    1    2    0    0 -0.62636522939E-03 -0.19320356114E-01 -0.12795945685E-01  0.23181991281E-01  0.00000000000E+00 0.  1.
     999901    1    3    3    0    0  0.12507244171E+00 -0.18781909638E-01  0.99942974105E-02  0.88909828578E+00  0.88000000000E+00 0. -1.
        -11    1    4    4    0    0 -0.52892823979E-01  0.25452711177E-01 -0.28182883451E-02  0.58768147877E-01  0.51100000000E-03 0.  1.
         11    1    4    4    0    0 -0.71553252499E-01  0.12649554575E-01  0.56199366195E-02  0.72881575057E-01  0.51100000000E-03 0. -1.
</event>
<event>
 8    1  0.1078274E+005  0.1043930E+01  0.7957747E-01            NaN
         13   -1    0    0    0    0  0.00000000000E+00  0.00000000000E+00  0.74505805969E-08  0.10566000000E+00  0.10566000000E+00 0.  1.
     999900   -1    0    0    0    0 -0.00000000000E+00 -0.00000000000E+00 -0.74505805969E-08  0.93827000000E+00  0.93827000000E+00 0.  1.
     999902    2    1    2    0    0  0.21402095396E-01  0.41841517737E-02  0.88993067353E-02  0.10203767736E+01  0.10201048993E+01 0.  0.
     999903    2    3    3    0    0  0.63366764358E-01 -0.81500112004E-01 -0.78329324461E-01  0.13093219376E+00  0.18712060595E-01 0.  0.
         14    1    1    2    0    0 -0.21402095396E-01 -0.41841517737E-02 -0.88993067353E-02  0.23553226399E-01  0.00000000000E+00 0. -1.
     999901    1    3    3    0    0 -0.41964668962E-01  0.85684263778E-01  0.87228631196E-01  0.88944457984E+00  0.88000000000E+00 0. -1.
        -11    1    4    4    0    0  0.14608759448E-01 -0.22218264895E-01 -0.30606835299E-01  0.40547584830E-01  0.51100000000E-03 0. -1.
         11    1    4    4    0    0  0.48758004910E-01 -0.59281847109E-01 -0.47722489162E-01  0.90384608935E-01  0.51100000000E-03 0.  1.
</event>
<event>
 8    1  0.1078274E+005  0.1043930E+01  0.7957747E-01            NaN
         13   -1    0    0    0    0  0.00000000000E+00  0.00000000000E+00  0.74505805969E-08  0.10566000000E+00  0.10566000000E+00 0. -1.
     999900   -1    0    0    0    0 -0.00000000000E+00 -0.00000000000E+00 -0.74505805969E-08  0.93827000000E+00  0.93827000000E+00 0.  1.
     999902    2    1    2    0    0 -0.18265234935E-01  0.14236313449E-01  0.22172131553E-02  0.10206661340E+01  0.10204009749E+01 0.  0.
     999903    2    3    3    0    0  0.58314216571E-01  0.84727366510E-01 -0.78321844631E-01  0.13087967602E+00  0.20393718577E-01 0.  0.
         14    1    1    2    0    0  0.18265234935E-01 -0.14236313449E-01 -0.22172131553E-02  0.23263866017E-01  0.00000000000E+00 0. -1.
     999901    1    3    3    0    0 -0.76579451507E-01 -0.70491053060E-01  0.80539057786E-01  0.88978645797E+00  0.88000000000E+00 0. -1.
        -11    1    4    4    0    0  0.50369608215E-01  0.57898033890E-01 -0.54475041895E-01  0.94112013423E-01  0.51100000000E-03 0. -1.
         11    1    4    4    0    0  0.79446083565E-02  0.26829332620E-01 -0.23846802736E-01  0.36767662592E-01  0.51100000000E-03 0.  1.
</event>
<event>
 8    1  0.1078274E+005  0.1043930E+01  0.7957747E-01            NaN
         13   -1    0    0    0    0  0.00000000000E+00  0.00000000000E+00  0.74505805969E-08  0.10566000000E+00  0.10566000000E+00 0.  1.
     999900   -1    0    0    0    0 -0.00000000000E+00 -0.00000000000E+00 -0.74505805969E-08  0.93827000000E+00  0.93827000000E+00 0. -1.
     999902    2    1    2    0    0 -0.15075341108E-02 -0.21764836325E-01 -0.40312571860E-02  0.10217437026E+01  0.10215027959E+01 0.  0.
     999903    2    3    3    0    0  0.20848866752E-01  0.29850386684E-01  0.12395862860E+00  0.13070759175E+00  0.19824533010E-01 0.  0.
         14    1    1    2    0    0  0.15075341108E-02  0.21764836325E-01  0.40312571860E-02  0.22186297435E-01  0.00000000000E+00 0. -1.
     999901    1    3    3    0    0 -0.22356400863E-01 -0.51615223009E-01 -0.12798988578E+00  0.89103611081E+00  0.88000000000E+00 0.  1.
        -11    1    4    4    0    0  0.15019381518E-02  0.11116864975E-01  0.63986594481E-01  0.64964497223E-01  0.51100000000E-03 0. -1.
         11    1    4    4    0    0  0.19346928600E-01  0.18733521709E-01  0.59972034114E-01  0.65743094532E-01  0.51100000000E-03 0.  1.
</event>
<event>
 8    1  0.1078274E+005  0.1043930E+01  0.7957747E-01            NaN
         13   -1    0    0    0    0  0.00000000000E+00  0.00000000000E+00  0.74505805969E-08  0.10566000000E+00  0.10566000000E+00 0.  1.
     999900   -1    0    0    0    0 -0.00000000000E+00 -0.00000000000E+00 -0.74505805969E-08  0.93827000000E+00  0.93827000000E+00 0.  1.
     999902    2    1    2    0    0 -0.64607711051E-02  0.23009959774E-01  0.94509025598E-03  0.10200115342E+01  0.10197310610E+01 0.  0.
     999903    2    3    3    0    0  0.11420848744E+00 -0.23405220181E-01  0.51161381091E-01  0.12914840509E+00  0.21689644698E-01 0.  0.
         14    1    1    2    0    0  0.64607711051E-02 -0.23009959774E-01 -0.94509025598E-03  0.23918465830E-01  0.00000000000E+00 0.  1.
     999901    1    3    3    0    0 -0.12066925855E+00  0.46415179955E-01 -0.50216290835E-01  0.89086312908E+00  0.88000000000E+00 0.  1.
        -11    1    4    4    0    0  0.43409982135E-01 -0.67255780848E-02  0.30672959661E-01  0.53579394592E-01  0.51100000000E-03 0. -1.
         11    1    4    4    0    0  0.70798505306E-01 -0.16679642097E-01  0.20488421430E-01  0.75569010498E-01  0.51100000000E-03 0.  1.
</event>
<event>
 8    1  0.1078274E+005  0.1043930E+01  0.7957747E-01            NaN
         13   -1    0    0    0    0  0.00000000000E+00  0.00000000000E+00  0.74505805969E-08  0.10566000000E+00  0.10566000000E+00 0. -1.
     999900   -1    0    0    0    0 -0.00000000000E+00 -0.00000000000E+00 -0.74505805969E-08  0.93827000000E+00  0.93827000000E+00 0.  1.
     999902    2    1    2    0    0  0.18253016199E-01 -0.14291802622E-01 -0.69173841510E-03  0.10207371838E+01  0.10204736604E+01 0.  0.
     999903    2    3    3    0    0 -0.20666996586E-01 -0.29917454488E-01  0.12336099781E+00  0.13104734470E+00  0.25165292372E-01 0.  0.
         14    1    1    2    0    0 -0.18253016199E-01  0.14291802622E-01  0.69173841510E-03  0.23192816228E-01  0.00000000000E+00 0.  1.
     999901    1    3    3    0    0  0.38920012784E-01  0.15625651866E-01 -0.12405273623E+00  0.88968983908E+00  0.88000000000E+00 0.  1.
        -11    1    4    4    0    0 -0.68081519076E-02  0.37081746381E-02  0.24822664830E-01  0.26010138443E-01  0.51100000000E-03 0. -1.
         11    1    4    4    0    0 -0.13858844678E-01 -0.33625629126E-01  0.98538332980E-01  0.10503720625E+00  0.51100000000E-03 0.  1.
</event>
<event>
 8    1  0.1078274E+005  0.1043930E+01  0.7957747E-01            NaN
         13   -1    0    0    0    0  0.00000000000E+00  0.00000000000E+00  0.74505805969E-08  0.10566000000E+00  0.10566000000E+00 0.  1.
     999900   -1    0    0    0    0 -0.00000000000E+00 -0.00000000000E+00 -0.74505805969E-08  0.93827000000E+00  0.93827000000E+00 0. -1.
     999902    2    1    2    0    0 -0.38047312218E-02  0.20740799569E-02 -0.22894479415E-01  0.10206290349E+01  0.10203630197E+01 0.  0.
     999903    2    3    3    0    0  0.69922709515E-01  0.90035436951E-01  0.57957935883E-01  0.12950050942E+00  0.20388584950E-01 0.  0.
         14    1    1    2    0    0  0.38047312218E-02 -0.20740799569E-02  0.22894479415E-01  0.23300965109E-01  0.00000000000E+00 0.  1.
     999901    1    3    3    0    0 -0.73727440737E-01 -0.87961356994E-01 -0.80852415298E-01  0.89112852547E+00  0.88000000000E+00 0.  1.
        -11    1    4    4    0    0  0.83589478585E-02  0.44211462536E-02  0.67425798782E-03  0.94939079588E-02  0.51100000000E-03 0.  1.
         11    1    4    4    0    0  0.61563761656E-01  0.85614290698E-01  0.57283677895E-01  0.12000660147E+00  0.51100000000E-03 0. -1.
</event>
<event>
 8    1  0.1078274E+005  0.1043930E+01  0.7957747E-01            NaN
         13   -1    0    0    0    0  0.00000000000E+00  0.00000000000E+00  0.74505805969E-08  0.10566000000E+00  0.10566000000E+00 0. -1.
     999900   -1    0    0    0    0 -0.00000000000E+00 -0.00000000000E+00 -0.74505805969E-08  0.93827000000E+00  0.93827000000E+00 0. -1.
     999902    2    1    2    0    0 -0.14637669503E-01 -0.10088961379E-01 -0.18048793545E-01  0.10185960809E+01  0.10182809870E+01 0.  0.
     999903    2    3    3    0    0 -0.29284054362E-01 -0.96445812361E-01  0.78414990242E-01  0.12900219381E+00  0.18256635839E-01 0.  0.
         14    1    1    2    0    0  0.14637669503E-01  0.10088961379E-01  0.18048793545E-01  0.25333919133E-01  0.00000000000E+00 0. -1.
     999901    1    3    3    0    0  0.14646384859E-01  0.86356850982E-01 -0.96463783787E-01  0.88959388705E+00  0.88000000000E+00 0. -1.
        -11    1    4    4    0    0 -0.83083582289E-02 -0.40706508798E-01  0.42591852981E-01  0.59501056598E-01  0.51100000000E-03 0. -1.
         11    1    4    4    0    0 -0.20975696133E-01 -0.55739303563E-01  0.35823137262E-01  0.69501137216E-01  0.51100000000E-03 0.  1.
</event>
<event>
 8    1  0.1078274E+005  0.1043930E+01  0.7957747E-01            NaN
         13   -1    0    0    0    0  0.00000000000E+00  0.00000000000E+00  0.74505805969E-08  0.10566000000E+00  0.10566000000E+00 0. -1.
     999900   -1    0    0    0    0 -0.00000000000E+00 -0.00000000000E+00 -0.74505805969E-08  0.93827000000E+00  0.93827000000E+00 0.  1.
     999902    2    1    2    0    0 -0.22690534985E-01 -0.11475658988E-01  0.15971429220E-02  0.10184525199E+01  0.10181337993E+01 0.  0.
     999903    2    3    3    0    0  0.14785649800E-02 -0.12668123830E+00  0.22945880157E-01  0.13035779551E+00  0.20403900198E-01 0.  0.
         14    1    1    2    0    0  0.22690534985E-01  0.11475658988E-01 -0.15971429220E-02  0.25477480108E-01  0.00000000000E+00 0. -1.
     999901    1    3    3    0    0 -0.24169099965E-01  0.11520557931E+00 -0.21348737235E-01  0.88809472438E+00  0.88000000000E+00 0. -1.
        -11    1    4    4    0    0  0.10066088404E-01 -0.91296559624E-01  0.14694300122E-01  0.93019199696E-01  0.51100000000E-03 0. -1.
         11    1    4    4    0    0 -0.85875234236E-02 -0.35384678671E-01  0.82515800355E-02  0.37338595813E-01  0.51100000000E-03 0.  1.
</event>
<event>
 8    1  0.1078274E+005  0.1043930E+01  0.7957747E-01            NaN
         13   -1    0    0    0    0  0.00000000000E+00  0.00000000000E+00  0.74505805969E-08  0.10566000000E+00  0.10566000000E+00 0.  1.
     999900   -1    0    0    0    0 -0.00000000000E+00 -0.00000000000E+00 -0.74505805969E-08  0.93827000000E+00  0.93827000000E+00 0.  1.
     999902    2    1    2    0    0  0.28287634108E-03 -0.16665665439E-01  0.16902073359E-01  0.10201917501E+01  0.10199155369E+01 0.  0.
     999903    2    3    3    0    0  0.88897693664E-01 -0.71925528428E-01  0.64418451436E-01  0.13274369840E+00  0.19876393093E-01 0.  0.
         14    1    1    2    0    0 -0.28287634108E-03  0.16665665439E-01 -0.16902073359E-01  0.23738249881E-01  0.00000000000E+00 0. -1.
     999901    1    3    3    0    0 -0.88614817323E-01  0.55259862988E-01 -0.47516378077E-01  0.88744805171E+00  0.88000000000E+00 0.  1.
        -11    1    4    4    0    0  0.15629057645E-01 -0.59691417239E-02  0.43239785619E-02  0.17287452311E-01  0.51100000000E-03 0. -1.
         11    1    4    4    0    0  0.73268636019E-01 -0.65956386704E-01  0.60094472874E-01  0.11545624609E+00  0.51100000000E-03 0.  1.
</event>
<event>
 8    1  0.1078274E+005  0.1043930E+01  0.7957747E-01            NaN
         13   -1    0    0    0    0  0.00000000000E+00  0.00000000000E+00  0.74505805969E-08  0.10566000000E+00  0.10566000000E+00 0.  1.
     999900   -1    0    0    0    0 -0.00000000000E+00 -0.00000000000E+00 -0.74505805969E-08  0.93827000000E+00  0.93827000000E+00 0. -1.
     999902    2    1    2    0    0  0.11717352318E-01 -0.20647821702E-01  0.16115716585E-02  0.10201344952E+01  0.10198569322E+01 0.  0.
     999903    2    3    3    0    0  0.41595433207E-01  0.26323505595E-01  0.11938320981E+00  0.13054517192E+00  0.19146386507E-01 0.  0.
         14    1    1    2    0    0 -0.11717352318E-01  0.20647821702E-01 -0.16115716585E-02  0.23795504819E-01  0.00000000000E+00 0. -1.
     999901    1    3    3    0    0 -0.29878080888E-01 -0.46971327297E-01 -0.11777163815E+00  0.88958932326E+00  0.88000000000E+00 0. -1.
        -11    1    4    4    0    0  0.30907358871E-01  0.88161792793E-02  0.77665753141E-01  0.84054864115E-01  0.51100000000E-03 0. -1.
         11    1    4    4    0    0  0.10688074336E-01  0.17507326316E-01  0.41717456672E-01  0.46490307806E-01  0.51100000000E-03 0.  1.
</event>
<event>
 8    1  0.1078274E+005  0.1043930E+01  0.7957747E-01            NaN
         13   -1    0    0    0    0  0.00000000000E+00  0.00000000000E+00  0.74505805969E-08  0.10566000000E+00  0.10566000000E+00 0.  1.
     999900   -1    0    0    0    0 -0.00000000000E+00 -0.00000000000E+00 -0.74505805969E-08  0.93827000000E+00  0.93827000000E+00 0.  1.
     999902    2    1    2    0    0  0.23325687490E-01 -0.26578225458E-02 -0.80891377593E-03  0.10204394475E+01  0.10201690349E+01 0.  0.
     999903    2    3    3    0    0  0.98017419931E-01 -0.82608203562E-01  0.29929515860E-01  0.13313128825E+00  0.19915674407E-01 0.  0.
         14    1    1    2    0    0 -0.23325687490E-01  0.26578225458E-02  0.80891377593E-03  0.23490552549E-01  0.00000000000E+00 0.  1.
     999901    1    3    3    0    0 -0.74691732441E-01  0.79950381016E-01 -0.30738429636E-01  0.88730815920E+00  0.88000000000E+00 0.  1.
        -11    1    4    4    0    0  0.51454903629E-01 -0.31450834205E-01  0.17973336850E-01  0.62929039705E-01  0.51100000000E-03 0. -1.
         11    1    4    4    0    0  0.46562516302E-01 -0.51157369357E-01  0.11956179010E-01  0.70202248550E-01  0.51100000000E-03 0.  1.
</event>
<event>
 8    1  0.1078274E+005  0.1043930E+01  0.7957747E-01            NaN
         13   -1    0    0    0    0  0.00000000000E+00  0.00000000000E+00  0.74505805969E-08  0.10566000000E+00  0.10566000000E+00 0.  1.
     999900   -1    0    0    0    0 -0.00000000000E+00 -0.00000000000E+00 -0.74505805969E-08  0.93827000000E+00  0.93827000000E+00 0. -1.
     999902    2    1    2    0    0 -0.13704029505E-02  0.18327701986E-01  0.12487353786E-01  0.10217102640E+01  0.10214686225E+01 0.  0.
     999903    2    3    3    0    0  0.65705047629E-01  0.76012161651E-01 -0.83064871984E-01  0.13212786712E+00  0.21517395473E-01 0.  0.
         14    1    1    2    0    0  0.13704029505E-02 -0.18327701986E-01 -0.12487353786E-01  0.22219736022E-01  0.00000000000E+00 0. -1.
     999901    1    3    3    0    0 -0.67075450580E-01 -0.57684459665E-01  0.95552225770E-01  0.88958239686E+00  0.88000000000E+00 0.  1.
        -11    1    4    4    0    0  0.20664085917E-01  0.35876081372E-01 -0.24848782994E-01  0.48288930395E-01  0.51100000000E-03 0.  1.
         11    1    4    4    0    0  0.45040961712E-01  0.40136080279E-01 -0.58216088990E-01  0.83838936720E-01  0.51100000000E-03 0. -1.
</event>
<event>
 8    1  0.1078274E+005  0.1043930E+01  0.7957747E-01            NaN
         13   -1    0    0    0    0  0.00000000000E+00  0.00000000000E+00  0.74505805969E-08  0.10566000000E+00  0.10566000000E+00 0. -1.
     999900   -1    0    0    0    0 -0.00000000000E+00 -0.00000000000E+00 -0.74505805969E-08  0.93827000000E+00  0.93827000000E+00 0. -1.
     999902    2    1    2    0    0  0.21978603063E-01  0.27164141168E-02 -0.93236995184E-02  0.10199014905E+01  0.10196183997E+01 0.  0.
     999903    2    3    3    0    0  0.80514223573E-01 -0.89769920264E-02  0.10104711666E+00  0.13100055577E+00  0.19685000459E-01 0.  0.
         14    1    1    2    0    0 -0.21978603063E-01 -0.27164141168E-02  0.93236995184E-02  0.24028509545E-01  0.00000000000E+00 0. -1.
     999901    1    3    3    0    0 -0.58535620509E-01  0.11693406143E-01 -0.11037081618E+00  0.88890093468E+00  0.88000000000E+00 0. -1.
        -11    1    4    4    0    0  0.58414315305E-01 -0.87656434700E-02  0.58957376693E-01  0.83458385592E-01  0.51100000000E-03 0.  1.
         11    1    4    4    0    0  0.22099908268E-01 -0.21134855640E-03  0.42089739970E-01  0.47542170180E-01  0.51100000000E-03 0. -1.
</event>
<event>
 8    1  0.1078274E+005  0.1043930E+01  0.7957747E-01            NaN
         13   -1    0    0    0    0  0.00000000000E+00  0.00000000000E+00  0.74505805969E-08  0.10566000000E+00  0.10566000000E+00 0.  1.
     999900   -1    0    0    0    0 -0.00000000000E+00 -0.00000000000E+00 -0.74505805969E-08  0.93827000000E+00  0.93827000000E+00 0. -1.
     999902    2    1    2    0    0 -0.87692784255E-02 -0.23557989858E-02 -0.21516959985E-01  0.10205755657E+01  0.10203083141E+01 0.  0.
     999903    2    3    3    0    0 -0.35933306975E-01 -0.97904125381E-01 -0.79866230104E-01  0.13306669003E+00  0.21253446029E-01 0.  0.
         14    1    1    2    0    0  0.87692784255E-02  0.23557989858E-02  0.21516959985E-01  0.23354434268E-01  0.00000000000E+00 0.  1.
     999901    1    3    3    0    0  0.27164028550E-01  0.95548326395E-01  0.58349270119E-01  0.88750887570E+00  0.88000000000E+00 0.  1.
        -11    1    4    4    0    0 -0.24833215597E-01 -0.52259553160E-01 -0.32544027737E-01  0.66386175939E-01  0.51100000000E-03 0. -1.
         11    1    4    4    0    0 -0.11100091378E-01 -0.45644572221E-01 -0.47322202367E-01  0.66680514093E-01  0.51100000000E-03 0.  1.
</event>
<event>
 8    1  0.1078274E+005  0.1043930E+01  0.7957747E-01            NaN
         13   -1    0    0    0    0  0.00000000000E+00  0.00000000000E+00  0.74505805969E-08  0.10566000000E+00  0.10566000000E+00 0.  1.
     999900   -1    0    0    0    0 -0.00000000000E+00 -0.00000000000E+00 -0.74505805969E-08  0.93827000000E+00  0.93827000000E+00 0. -1.
     999902    2    1    2    0    0  0.11284178389E-01 -0.25377920630E-01 -0.54208910660E-02  0.10156323394E+01  0.10152380466E+01 0.  0.
     999903    2    3    3    0    0 -0.91267215901E-01  0.63674377652E-01 -0.50907066151E-01  0.12405166863E+00  0.20326240162E-01 0.  0.
         14    1    1    2    0    0 -0.11284178389E-01  0.25377920630E-01  0.54208910660E-02  0.28297660634E-01  0.00000000000E+00 0. -1.
     999901    1    3    3    0    0  0.10255139429E+00 -0.89052298281E-01  0.45486175085E-01  0.89158067073E+00  0.88000000000E+00 0. -1.
        -11    1    4    4    0    0 -0.25791518386E-01  0.94512529040E-02 -0.18239137937E-01  0.32976595879E-01  0.51100000000E-03 0.  1.
         11    1    4    4    0    0 -0.65475697515E-01  0.54223124748E-01 -0.32667928214E-01  0.91075072755E-01  0.51100000000E-03 0. -1.
</event>
<event>
 8    1  0.1078274E+005  0.1043930E+01  0.7957747E-01            NaN
         13   -1    0    0    0    0  0.00000000000E+00  0.00000000000E+00  0.74505805969E-08  0.10566000000E+00  0.10566000000E+00 0.  1.
     999900   -1    0    0    0    0 -0.00000000000E+00 -0.00000000000E+00 -0.74505805969E-08  0.93827000000E+00  0.93827000000E+00 0. -1.
     999902    2    1    2    0    0  0.17430587319E-01  0.74200862319E-02  0.16445659596E-01  0.10188432949E+01  0.10185343965E+01 0.  0.
     999903    2    3    3    0    0 -0.22644872636E-01  0.97061259046E-01  0.82716373350E-01  0.13090557756E+00  0.18989300958E-01 0.  0.
         14    1    1    2    0    0 -0.17430587319E-01 -0.74200862319E-02 -0.16445659596E-01  0.25086705114E-01  0.00000000000E+00 0.  1.
     999901    1    3    3    0    0  0.40075459955E-01 -0.89641172814E-01 -0.66270713754E-01  0.88793771733E+00  0.88000000000E+00 0. -1.
        -11    1    4    4    0    0 -0.13911723675E-01  0.59426594585E-01  0.62256644572E-01  0.87184901870E-01  0.51100000000E-03 0.  1.
         11    1    4    4    0    0 -0.87331489614E-02  0.37634664461E-01  0.20459728778E-01  0.43720675687E-01  0.51100000000E-03 0. -1.
</event>
<event>
 8    1  0.1078274E+005  0.1043930E+01  0.7957747E-01            NaN
         13   -1    0    0    0    0  0.00000000000E+00  0.00000000000E+00  0.74505805969E-08  0.10566000000E+00  0.10566000000E+00 0. -1.
     999900   -1    0    0    0    0 -0.00000000000E+00 -0.00000000000E+00 -0.74505805969E-08  0.93827000000E+00  0.93827000000E+00 0.  1.
     999902    2    1    2    0    0  0.13362650123E-01  0.18323134349E-01  0.31574482065E-02  0.10210331192E+01  0.10207763533E+01 0.  0.
     999903    2    3    3    0    0 -0.94570676712E-01  0.73078260435E-01  0.51003855746E-01  0.13146187103E+00  0.19919467667E-01 0.  0.
         14    1    1    2    0    0 -0.13362650123E-01 -0.18323134349E-01 -0.31574482065E-02  0.22896880789E-01  0.00000000000E+00 0.  1.
     999901    1    3    3    0    0  0.10793332683E+00 -0.54755126086E-01 -0.47846407539E-01  0.88957124818E+00  0.88000000000E+00 0.  1.
        -11    1    4    4    0    0 -0.56226564926E-01  0.53608620891E-01  0.38306854066E-01  0.86619784268E-01  0.51100000000E-03 0.  1.
         11    1    4    4    0    0 -0.38344111785E-01  0.19469639543E-01  0.12697001680E-01  0.44842086763E-01  0.51100000000E-03 0. -1.
</event>
<event>
 8    1  0.1078274E+005  0.1043930E+01  0.7957747E-01            NaN
         13   -1    0    0    0    0  0.00000000000E+00  0.00000000000E+00  0.74505805969E-08  0.10566000000E+00  0.10566000000E+00 0.  1.
     999900   -1    0    0    0    0 -0.00000000000E+00 -0.00000000000E+00 -0.74505805969E-08  0.93827000000E+00  0.93827000000E+00 0. -1.
     999902    2    1    2    0    0  0.12098092180E-01 -0.83244860065E-03 -0.28932039025E-01  0.10125593180E+01  0.10120732448E+01 0.  0.
     999903    2    3    3    0    0  0.79577187773E-01  0.90824026699E-01 -0.26730313507E-01  0.12522669415E+00  0.19638804136E-01 0.  0.
         14    1    1    2    0    0 -0.12098092180E-01  0.83244860065E-03  0.28932039025E-01  0.31370681970E-01  0.00000000000E+00 0.  1.
     999901    1    3    3    0    0 -0.67479095593E-01 -0.91656475300E-01 -0.22017255181E-02  0.88733262388E+00  0.88000000000E+00 0. -1.
        -11    1    4    4    0    0  0.45224434901E-01  0.65349245377E-01 -0.19741479242E-01  0.81888708057E-01  0.51100000000E-03 0. -1.
         11    1    4    4    0    0  0.34352752872E-01  0.25474781322E-01 -0.69888342647E-02  0.43337986094E-01  0.51100000000E-03 0.  1.
</event>
<event>
 8    1  0.1078274E+005  0.1043930E+01  0.7957747E-01            NaN
         13   -1    0    0    0    0  0.00000000000E+00  0.00000000000E+00  0.74505805969E-08  0.10566000000E+00  0.10566000000E+00 0.  1.
     999900   -1    0    0    0    0 -0.00000000000E+00 -0.00000000000E+00 -0.74505805969E-08  0.93827000000E+00  0.93827000000E+00 0. -1.
     999902    2    1    2    0    0 -0.17607783234E-01 -0.48637761709E-02  0.60710325292E-02  0.10246803822E+01  0.10244995549E+01 0.  0.
     999903    2    3    3    0    0  0.33971276074E-01  0.17609025381E-01 -0.12521168027E+00  0.13316449517E+00  0.24304166834E-01 0.  0.
         14    1    1    2    0    0  0.17607783234E-01  0.48637761709E-02 -0.60710325292E-02  0.19249617789E-01  0.00000000000E+00 0.  1.
     999901    1    3    3    0    0 -0.51579059308E-01 -0.22472801552E-01  0.13128271280E+00  0.89151588704E+00  0.88000000000E+00 0.  1.
        -11    1    4    4    0    0  0.65750331658E-02  0.31025867123E-02 -0.65304151632E-01  0.65709591742E-01  0.51100000000E-03 0. -1.
         11    1    4    4    0    0  0.27396242909E-01  0.14506438669E-01 -0.59907528634E-01  0.67454903428E-01  0.51100000000E-03 0.  1.
</event>
<event>
 8    1  0.1078274E+005  0.1043930E+01  0.7957747E-01            NaN
         13   -1    0    0    0    0  0.00000000000E+00  0.00000000000E+00  0.74505805969E-08  0.10566000000E+00  0.10566000000E+00 0.  1.
     999900   -1    0    0    0    0 -0.00000000000E+00 -0.00000000000E+00 -0.74505805969E-08  0.93827000000E+00  0.93827000000E+00 0.  1.
     999902    2    1    2    0    0  0.16587265790E-01  0.10150026801E-01 -0.13487960926E-01  0.10202638740E+01  0.10199893563E+01 0.  0.
     999903    2    3    3    0    0  0.10573781547E+00  0.96148910375E-02 -0.78341564829E-01  0.13338502273E+00  0.19525157025E-01 0.  0.
         14    1    1    2    0    0 -0.16587265790E-01 -0.10150026801E-01  0.13487960926E-01  0.23666126011E-01  0.00000000000E+00 0.  1.
     999901    1    3    3    0    0 -0.89150549683E-01  0.53513576368E-03  0.64853603903E-01  0.88687885126E+00  0.88000000000E+00 0. -1.
        -11    1    4    4    0    0  0.63415826082E-01  0.59504821118E-02 -0.34933211046E-01  0.72646855335E-01  0.51100000000E-03 0. -1.
         11    1    4    4    0    0  0.42321989391E-01  0.36644089258E-02 -0.43408353784E-01  0.60738167391E-01  0.51100000000E-03 0.  1.
</event>
<event>
 8    1  0.1078274E+005  0.1043930E+01  0.7957747E-01            NaN
         13   -1    0    0    0    0  0.00000000000E+00  0.00000000000E+00  0.74505805969E-08  0.10566000000E+00  0.10566000000E+00 0. -1.
     999900   -1    0    0    0    0 -0.00000000000E+00 -0.00000000000E+00 -0.74505805969E-08  0.93827000000E+00  0.93827000000E+00 0. -1.
     999902    2    1    2    0    0  0.14633247315E-01  0.15879593101E-01 -0.10316447462E-01  0.10199983788E+01  0.10197175934E+01 0.  0.
     999903    2    3    3    0    0 -0.22853996751E-01  0.12583486573E+00  0.24232289913E-01  0.13169152266E+00  0.19968341559E-01 0.  0.
         14    1    1    2    0    0 -0.14633247315E-01 -0.15879593101E-01  0.10316447462E-01  0.23931621179E-01  0.00000000000E+00 0.  1.
     999901    1    3    3    0    0  0.37487244067E-01 -0.10995527263E+00 -0.34548737375E-01  0.88830685616E+00  0.88000000000E+00 0. -1.
        -11    1    4    4    0    0 -0.44567383016E-02  0.59860778737E-01  0.19154169626E-01  0.63010464864E-01  0.51100000000E-03 0.  1.
         11    1    4    4    0    0 -0.18397258450E-01  0.65974086996E-01  0.50781202874E-02  0.68681057796E-01  0.51100000000E-03 0. -1.
</event>
<event>
 8    1  0.1078274E+005  0.1043930E+01  0.7957747E-01            NaN
         13   -1    0    0    0    0  0.00000000000E+00  0.00000000000E+00  0.74505805969E-08  0.10566000000E+00  0.10566000000E+00 0.  1.
     999900   -1    0    0    0    0 -0.00000000000E+00 -0.00000000000E+00 -0.74505805969E-08  0.93827000000E+00  0.93827000000E+00 0.  1.
     999902    2    1    2    0    0  0.19633689459E-01 -0.12811291820E-01 -0.45657896938E-02  0.10200457501E+01  0.10197660883E+01 0.  0.
     999903    2    3    3    0    0 -0.87412910619E-01  0.78341782854E-01  0.45504860174E-01  0.12747926649E+00  0.20045428436E-01 0.  0.
         14    1    1    2    0    0 -0.19633689459E-01  0.12811291820E-01  0.45657896938E-02  0.23884249944E-01  0.00000000000E+00 0.  1.
     999901    1    3    3    0    0  0.10704660008E+00 -0.91153074674E-01 -0.50070649868E-01  0.89256648357E+00  0.88000000000E+00 0.  1.
        -11    1    4    4    0    0 -0.61037738736E-01  0.43569002292E-01  0.23439587107E-01  0.78571870765E-01  0.51100000000E-03 0.  1.
         11    1    4    4    0    0 -0.26375171882E-01  0.34772780562E-01  0.22065273068E-01  0.48907395723E-01  0.51100000000E-03 0. -1.
</event>
<event>
 8    1  0.1078274E+005  0.1043930E+01  0.7957747E-01            NaN
         13   -1    0    0    0    0  0.00000000000E+00  0.00000000000E+00  0.74505805969E-08  0.10566000000E+00  0.10566000000E+00 0.  1.
     999900   -1    0    0    0    0 -0.00000000000E+00 -0.00000000000E+00 -0.74505805969E-08  0.93827000000E+00  0.93827000000E+00 0. -1.
     999902    2    1    2    0    0  0.10317685509E-01 -0.65748139612E-02  0.24476401534E-01  0.10165662092E+01  0.10161978551E+01 0.  0.
     999903    2    3    3    0    0  0.10489611838E+00 -0.14676879734E-01 -0.66207506523E-01  0.12682787994E+00  0.21983420149E-01 0.  0.
         14    1    1    2    0    0 -0.10317685509E-01  0.65748139612E-02 -0.24476401534E-01  0.27363790763E-01  0.00000000000E+00 0. -1.
     999901    1    3    3    0    0 -0.94578432869E-01  0.81020657723E-02  0.90683908057E-01  0.88973832929E+00  0.88000000000E+00 0.  1.
        -11    1    4    4    0    0  0.54846532117E-01 -0.86273237771E-02 -0.47445202532E-01  0.73033424985E-01  0.51100000000E-03 0. -1.
         11    1    4    4    0    0  0.50049586261E-01 -0.60495559564E-02 -0.18762303991E-01  0.53794454958E-01  0.51100000000E-03 0.  1.
</event>
<event>
 8    1  0.1078274E+005  0.1043930E+01  0.7957747E-01            NaN
         13   -1    0    0    0    0  0.00000000000E+00  0.00000000000E+00  0.74505805969E-08  0.10566000000E+00  0.10566000000E+00 0.  1.
     999900   -1    0    0    0    0 -0.00000000000E+00 -0.00000000000E+00 -0.74505805969E-08  0.93827000000E+00  0.93827000000E+00 0.  1.
     999902    2    1    2    0    0  0.99819420854E-02  0.21015875666E-01 -0.25190586599E-02  0.10205280374E+01  0.10202596842E+01 0.  0.
     999903    2    3    3    0    0  0.38220728451E-01  0.10371425310E-01 -0.12451391526E+00  0.13159976220E+00  0.15696871382E-01 0.  0.
         14    1    1    2    0    0 -0.99819420854E-02 -0.21015875666E-01  0.25190586599E-02  0.23401962617E-01  0.00000000000E+00 0. -1.
     999901    1    3    3    0    0 -0.28238786366E-01  0.10644450356E-01  0.12199485660E+00  0.88892827518E+00  0.88000000000E+00 0. -1.
        -11    1    4    4    0    0  0.22440284326E-01  0.64805122469E-02 -0.48085719138E-01  0.53460835250E-01  0.51100000000E-03 0. -1.
         11    1    4    4    0    0  0.15780444125E-01  0.38909130633E-02 -0.76428196125E-01  0.78138926952E-01  0.51100000000E-03 0.  1.
</event>
<event>
 8    1  0.1078274E+005  0.1043930E+01  0.7957747E-01            NaN
         13   -1    0    0    0    0  0.00000000000E+00  0.00000000000E+00  0.74505805969E-08  0.10566000000E+00  0.10566000000E+00 0.  1.
     999900   -1    0    0    0    0 -0.00000000000E+00 -0.00000000000E+00 -0.74505805969E-08  0.93827000000E+00  0.93827000000E+00 0.  1.
     999902    2    1    2    0    0 -0.14970022684E-01 -0.20874197272E-02  0.18330347317E-01  0.10201716218E+01  0.10198949345E+01 0.  0.
     999903    2    3    3    0    0 -0.90164885459E-01 -0.68867198708E-01 -0.61862175634E-01  0.13082093341E+00  0.20366399183E-01 0.  0.
         14    1    1    2    0    0  0.14970022684E-01  0.20874197272E-02 -0.18330347317E-01  0.23758378165E-01  0.00000000000E+00 0. -1.
     999901    1    3    3    0    0  0.75194862775E-01  0.66779778981E-01  0.80192522951E-01  0.88935068843E+00  0.88000000000E+00 0. -1.
        -11    1    4    4    0    0 -0.66402888836E-01 -0.60823660974E-01 -0.50885610591E-01  0.10343339821E+00  0.51100000000E-03 0.  1.
         11    1    4    4    0    0 -0.23761996623E-01 -0.80435377340E-02 -0.10976565043E-01  0.27387535193E-01  0.51100000000E-03 0. -1.
</event>
<event>
 8    1  0.1078274E+005  0.1043930E+01  0.7957747E-01            NaN
         13   -1    0    0    0    0  0.00000000000E+00  0.00000000000E+00  0.74505805969E-08  0.10566000000E+00  0.10566000000E+00 0.  1.
     999900   -1    0    0    0    0 -0.00000000000E+00 -0.00000000000E+00 -0.74505805969E-08  0.93827000000E+00  0.93827000000E+00 0.  1.
     999902    2    1    2    0    0  0.12813661077E-01 -0.20975030139E-01 -0.35089235904E-02  0.10191015014E+01  0.10187990066E+01 0.  0.
     999903    2    3    3    0    0  0.10957004423E-01 -0.38641892616E-01 -0.12287715798E+00  0.13086485464E+00  0.20336234102E-01 0.  0.
         14    1    1    2    0    0 -0.12813661077E-01  0.20975030139E-01  0.35089235904E-02  0.24828498631E-01  0.00000000000E+00 0. -1.
     999901    1    3    3    0    0  0.18566566540E-02  0.17666862476E-01  0.11936823439E+00  0.88823664672E+00  0.88000000000E+00 0. -1.
        -11    1    4    4    0    0  0.55766277482E-02 -0.39081675542E-01 -0.11087822845E+00  0.11769757349E+00  0.51100000000E-03 0.  1.
         11    1    4    4    0    0  0.53803766744E-02  0.43978292596E-03 -0.11998929531E-01  0.13167281157E-01  0.51100000000E-03 0. -1.
</event>
<event>
 8    1  0.1078274E+005  0.1043930E+01  0.7957747E-01            NaN
         13   -1    0    0    0    0  0.00000000000E+00  0.00000000000E+00  0.74505805969E-08  0.10566000000E+00  0.10566000000E+00 0. -1.
     999900   -1    0    0    0    0 -0.00000000000E+00 -0.00000000000E+00 -0.74505805969E-08  0.93827000000E+00  0.93827000000E+00 0.  1.
     999902    2    1    2    0    0  0.14617792847E-01 -0.20596846401E-01  0.37221485709E-02  0.10184003243E+01  0.10180802799E+01 0.  0.
     999903    2    3    3    0    0 -0.25598516096E-01 -0.40827969816E-01 -0.11785827714E+00  0.12890133627E+00  0.20069226623E-01 0.  0.
         14    1    1    2    0    0 -0.14617792847E-01  0.20596846401E-01 -0.37221485709E-02  0.25529675662E-01  0.00000000000E+00 0.  1.
     999901    1    3    3    0    0  0.40216308943E-01  0.20231123414E-01  0.12158042571E+00  0.88949898807E+00  0.88000000000E+00 0. -1.
        -11    1    4    4    0    0 -0.18036498110E-01 -0.26021014389E-01 -0.51213548472E-01  0.60212101126E-01  0.51100000000E-03 0. -1.
         11    1    4    4    0    0 -0.75620179853E-02 -0.14806955427E-01 -0.66644728664E-01  0.68689235144E-01  0.51100000000E-03 0.  1.
</event>
<event>
 8    1  0.1078274E+005  0.1043930E+01  0.7957747E-01            NaN
         13   -1    0    0    0    0  0.00000000000E+00  0.00000000000E+00  0.74505805969E-08  0.10566000000E+00  0.10566000000E+00 0.  1.
     999900   -1    0    0    0    0 -0.00000000000E+00 -0.00000000000E+00 -0.74505805969E-08  0.93827000000E+00  0.93827000000E+00 0.  1.
     999902    2    1    2    0    0  0.42617549601E-03  0.19487312753E-01  0.13858193835E-01  0.10200137603E+01  0.10197333400E+01 0.  0.
     999903    2    3    3    0    0  0.11523914487E+00 -0.37192654001E-01  0.42358094426E-01  0.13029083665E+00  0.22762687225E-01 0.  0.
         14    1    1    2    0    0 -0.42617549601E-03 -0.19487312753E-01 -0.13858193835E-01  0.23916239677E-01  0.00000000000E+00 0. -1.
     999901    1    3    3    0    0 -0.11481296938E+00  0.56679966754E-01 -0.28499900590E-01  0.88972292367E+00  0.88000000000E+00 0. -1.
        -11    1    4    4    0    0  0.75166264558E-01 -0.19846136393E-01  0.37613148869E-01  0.86364613970E-01  0.51100000000E-03 0. -1.
         11    1    4    4    0    0  0.40072880316E-01 -0.17346517608E-01  0.47449455563E-02  0.43926222685E-01  0.51100000000E-03 0.  1.
</event>
<event>
 8    1  0.1078274E+005  0.1043930E+01  0.7957747E-01            NaN
         13   -1    0    0    0    0  0.00000000000E+00  0.00000000000E+00  0.74505805969E-08  0.10566000000E+00  0.10566000000E+00 0.  1.
     999900   -1    0    0    0    0 -0.00000000000E+00 -0.00000000000E+00 -0.74505805969E-08  0.93827000000E+00  0.93827000000E+00 0. -1.
     999902    2    1    2    0    0  0.23684062514E-01  0.78586941501E-02 -0.14760977895E-01  0.10149372361E+01  0.10145230470E+01 0.  0.
     999903    2    3    3    0    0 -0.31102100693E-01 -0.57249733653E-01  0.10245813388E+00  0.12309590983E+00  0.20249966621E-01 0.  0.
         14    1    1    2    0    0 -0.23684062514E-01 -0.78586941501E-02  0.14760977895E-01  0.28992763913E-01  0.00000000000E+00 0.  1.
     999901    1    3    3    0    0  0.54786163207E-01  0.65108427803E-01 -0.11721911178E+00  0.89184132625E+00  0.88000000000E+00 0. -1.
        -11    1    4    4    0    0 -0.95560244541E-02 -0.21889971093E-01  0.55872990663E-01  0.60766278843E-01  0.51100000000E-03 0.  1.
         11    1    4    4    0    0 -0.21546076239E-01 -0.35359762560E-01  0.46585143219E-01  0.62329630990E-01  0.51100000000E-03 0. -1.
</event>
<event>
 8    1  0.1078274E+005  0.1043930E+01  0.7957747E-01            NaN
         13   -1    0    0    0    0  0.00000000000E+00  0.00000000000E+00  0.74505805969E-08  0.10566000000E+00  0.10566000000E+00 0. -1.
     999900   -1    0    0    0    0 -0.00000000000E+00 -0.00000000000E+00 -0.74505805969E-08  0.93827000000E+00  0.93827000000E+00 0.  1.
     999902    2    1    2    0    0  0.11934908887E-01 -0.16477514632E-01  0.12489178317E-01  0.10200567909E+01  0.10197773907E+01 0.  0.
     999903    2    3    3    0    0  0.42332598284E-01  0.11473292724E+00  0.37619828618E-01  0.12945488814E+00  0.19688145874E-01 0.  0.
         14    1    1    2    0    0 -0.11934908887E-01  0.16477514632E-01 -0.12489178317E-01  0.23873209119E-01  0.00000000000E+00 0.  1.
     999901    1    3    3    0    0 -0.30397689397E-01 -0.13121044187E+00 -0.25130650301E-01  0.89060190274E+00  0.88000000000E+00 0.  1.
        -11    1    4    4    0    0  0.18369903278E-01  0.44869641764E-01  0.51072770297E-02  0.48755343277E-01  0.51100000000E-03 0. -1.
         11    1    4    4    0    0  0.23962695006E-01  0.69863285477E-01  0.32512551588E-01  0.80699544865E-01  0.51100000000E-03 0.  1.
</event>
<event>
 8    1  0.1078274E+005  0.1043930E+01  0.7957747E-01            NaN
         13   -1    0    0    0    0  0.00000000000E+00  0.00000000000E+00  0.74505805969E-08  0.10566000000E+00  0.10566000000E+00 0.  1.
     999900   -1    0    0    0    0 -0.00000000000E+00 -0.00000000000E+00 -0.74505805969E-08  0.93827000000E+00  0.93827000000E+00 0. -1.
     999902    2    1    2    0    0  0.29476726127E-02 -0.18060982287E-01  0.13877612696E-01  0.10209631546E+01  0.10207047991E+01 0.  0.
     999903    2    3    3    0    0  0.50913641555E-01  0.16568909384E-01  0.11922370686E+00  0.13270769405E+00  0.23028506884E-01 0.  0.
         14    1    1    2    0    0 -0.29476726127E-02  0.18060982287E-01 -0.13877612696E-01  0.22966845433E-01  0.00000000000E+00 0. -1.
     999901    1    3    3    0    0 -0.47965968942E-01 -0.34629891671E-01 -0.10534609416E+00  0.88825546051E+00  0.88000000000E+00 0. -1.
        -11    1    4    4    0    0  0.33357128390E-01  0.88435645576E-02  0.98937496224E-01  0.10478452142E+00  0.51100000000E-03 0. -1.
         11    1    4    4    0    0  0.17556513164E-01  0.77253448262E-02  0.20286210636E-01  0.27923172638E-01  0.51100000000E-03 0.  1.
</event>
<event>
 8    1  0.1078274E+005  0.1043930E+01  0.7957747E-01            NaN
         13   -1    0    0    0    0  0.00000000000E+00  0.00000000000E+00  0.74505805969E-08  0.10566000000E+00  0.10566000000E+00 0.  1.
     999900   -1    0    0    0    0 -0.00000000000E+00 -0.00000000000E+00 -0.74505805969E-08  0.93827000000E+00  0.93827000000E+00 0.  1.
     999902    2    1    2    0    0  0.34065601730E-02 -0.13898183037E-01 -0.17394935929E-01  0.10214056145E+01  0.10211572266E+01 0.  0.
     999903    2    3    3    0    0 -0.52667364731E-01 -0.19769128031E-01 -0.11965207831E+00  0.13369210434E+00  0.19806291597E-01 0.  0.
         14    1    1    2    0    0 -0.34065601730E-02  0.13898183037E-01  0.17394935929E-01  0.22524385450E-01  0.00000000000E+00 0.  1.
     999901    1    3    3    0    0  0.56073924904E-01  0.58709449947E-02  0.10225714238E+00  0.88771351021E+00  0.88000000000E+00 0. -1.
        -11    1    4    4    0    0 -0.10601688347E-01 -0.12367663341E-01 -0.24933963474E-01  0.29787892638E-01  0.51100000000E-03 0. -1.
         11    1    4    4    0    0 -0.42065676384E-01 -0.74014646904E-02 -0.94718114836E-01  0.10390421170E+00  0.51100000000E-03 0.  1.
</event>
<event>
 8    1  0.1078274E+005  0.1043930E+01  0.7957747E-01            NaN
         13   -1    0    0    0    0  0.00000000000E+00  0.00000000000E+00  0.74505805969E-08  0.10566000000E+00  0.10566000000E+00 0.  1.
     999900   -1    0    0    0    0 -0.00000000000E+00 -0.00000000000E+00 -0.74505805969E-08  0.93827000000E+00  0.93827000000E+00 0.  1.
     999902    2    1    2    0    0  0.91298068295E-02  0.12629987357E-02  0.21260485149E-01  0.10207576724E+01  0.10204946198E+01 0.  0.
     999903    2    3    3    0    0  0.60501066056E-01 -0.63342261785E-01 -0.94025556825E-01  0.12940829226E+00  0.15266946266E-01 0.  0.
         14    1    1    2    0    0 -0.91298068295E-02 -0.12629987357E-02 -0.21260485149E-01  0.23172327619E-01  0.00000000000E+00 0. -1.
     999901    1    3    3    0    0 -0.51371259226E-01  0.64605260520E-01  0.11528604197E+00  0.89134938012E+00  0.88000000000E+00 0. -1.
        -11    1    4    4    0    0  0.53810401169E-01 -0.48928797170E-01 -0.80939329895E-01  0.10881646342E+00  0.51100000000E-03 0. -1.
         11    1    4    4    0    0  0.66906648868E-02 -0.14413464614E-01 -0.13086226931E-01  0.20591828843E-01  0.51100000000E-03 0.  1.
</event>
<event>
 8    1  0.1078274E+005  0.1043930E+01  0.7957747E-01            NaN
         13   -1    0    0    0    0  0.00000000000E+00  0.00000000000E+00  0.74505805969E-08  0.10566000000E+00  0.10566000000E+00 0. -1.
     999900   -1    0    0    0    0 -0.00000000000E+00 -0.00000000000E+00 -0.74505805969E-08  0.93827000000E+00  0.93827000000E+00 0.  1.
     999902    2    1    2    0    0 -0.16667305223E-01  0.72815181499E-02  0.14118840558E-01  0.10209047697E+01  0.10206450841E+01 0.  0.
     999903    2    3    3    0    0  0.16967308624E-01  0.46745183247E-01 -0.11613694096E+00  0.12980699916E+00  0.29817214093E-01 0.  0.
         14    1    1    2    0    0  0.16667305223E-01 -0.72815181499E-02 -0.14118840558E-01  0.23025230263E-01  0.00000000000E+00 0.  1.
     999901    1    3    3    0    0 -0.33634613847E-01 -0.39463665097E-01  0.13025578152E+00  0.89109777058E+00  0.88000000000E+00 0. -1.
        -11    1    4    4    0    0  0.13127837369E-01  0.39748249619E-01 -0.60341308466E-01  0.73441119887E-01  0.51100000000E-03 0.  1.
         11    1    4    4    0    0  0.38394712549E-02  0.69969336275E-02 -0.55795632493E-01  0.56365879271E-01  0.51100000000E-03 0. -1.
</event>
<event>
 8    1  0.1078274E+005  0.1043930E+01  0.7957747E-01            NaN
         13   -1    0    0    0    0  0.00000000000E+00  0.00000000000E+00  0.74505805969E-08  0.10566000000E+00  0.10566000000E+00 0.  1.
     999900   -1    0    0    0    0 -0.00000000000E+00 -0.00000000000E+00 -0.74505805969E-08  0.93827000000E+00  0.93827000000E+00 0.  1.
     999902    2    1    2    0    0 -0.21358082583E-01  0.10064297517E-01 -0.25212067638E-02  0.10201852267E+01  0.10199088599E+01 0.  0.
     999903    2    3    3    0    0 -0.36364305235E-01  0.91872746287E-01  0.85108945810E-01  0.13193027869E+00  0.19977526664E-01 0.  0.
         14    1    1    2    0    0  0.21358082583E-01 -0.10064297517E-01  0.25212067638E-02  0.23744773313E-01  0.00000000000E+00 0.  1.
     999901    1    3    3    0    0  0.15006222652E-01 -0.81808448769E-01 -0.87630152574E-01  0.88825494800E+00  0.88000000000E+00 0.  1.
        -11    1    4    4    0    0 -0.20818133443E-01  0.44848516528E-01  0.30009322447E-01  0.57841202179E-01  0.51100000000E-03 0. -1.
         11    1    4    4    0    0 -0.15546171793E-01  0.47024229758E-01  0.55099623363E-01  0.74089076506E-01  0.51100000000E-03 0.  1.
</event>
<event>
 8    1  0.1078274E+005  0.1043930E+01  0.7957747E-01            NaN
         13   -1    0    0    0    0  0.00000000000E+00  0.00000000000E+00  0.74505805969E-08  0.10566000000E+00  0.10566000000E+00 0.  1.
     999900   -1    0    0    0    0 -0.00000000000E+00 -0.00000000000E+00 -0.74505805969E-08  0.93827000000E+00  0.93827000000E+00 0.  1.
     999902    2    1    2    0    0 -0.13162220144E-01  0.81707457394E-02 -0.17951364718E-01  0.10202180490E+01  0.10199424547E+01 0.  0.
     999903    2    3    3    0    0  0.10101991021E+00 -0.36741259580E-01 -0.70404328697E-01  0.13015852259E+00  0.20725083618E-01 0.  0.
         14    1    1    2    0    0  0.13162220144E-01 -0.81707457394E-02  0.17951364718E-01  0.23711951002E-01  0.00000000000E+00 0.  1.
     999901    1    3    3    0    0 -0.11418213035E+00  0.44912005319E-01  0.52452963979E-01  0.89005952640E+00  0.88000000000E+00 0. -1.
        -11    1    4    4    0    0  0.25622423627E-01 -0.41857298581E-02 -0.85315327329E-02  0.27332711149E-01  0.51100000000E-03 0.  1.
         11    1    4    4    0    0  0.75397486579E-01 -0.32555529722E-01 -0.61872795964E-01  0.10282581145E+00  0.51100000000E-03 0. -1.
</event>
<event>
 8    1  0.1078274E+005  0.1043930E+01  0.7957747E-01            NaN
         13   -1    0    0    0    0  0.00000000000E+00  0.00000000000E+00  0.74505805969E-08  0.10566000000E+00  0.10566000000E+00 0. -1.
     999900   -1    0    0    0    0 -0.00000000000E+00 -0.00000000000E+00 -0.74505805969E-08  0.93827000000E+00  0.93827000000E+00 0. -1.
     999902    2    1    2    0    0  0.18030717029E-01 -0.83784352111E-02 -0.13629213687E-01  0.10198248056E+01  0.10195398833E+01 0.  0.
     999903    2    3    3    0    0 -0.10632055203E+00  0.67922866948E-01 -0.11225163413E-01  0.12780972369E+00  0.17080560200E-01 0.  0.
         14    1    1    2    0    0 -0.18030717029E-01  0.83784352111E-02  0.13629213687E-01  0.24105194438E-01  0.00000000000E+00 0. -1.
     999901    1    3    3    0    0  0.12435126906E+00 -0.76301302159E-01 -0.24040502739E-02  0.89201508187E+00  0.88000000000E+00 0. -1.
        -11    1    4    4    0    0 -0.39534751851E-01  0.30375947916E-01  0.27162439409E-02  0.49933294682E-01  0.51100000000E-03 0. -1.
         11    1    4    4    0    0 -0.66785800184E-01  0.37546919032E-01 -0.13941407354E-01  0.77876429008E-01  0.51100000000E-03 0.  1.
</event>
<event>
 8    1  0.1078274E+005  0.1043930E+01  0.7957747E-01            NaN
         13   -1    0    0    0    0  0.00000000000E+00  0.00000000000E+00  0.74505805969E-08  0.10566000000E+00  0.10566000000E+00 0. -1.
     999900   -1    0    0    0    0 -0.00000000000E+00 -0.00000000000E+00 -0.74505805969E-08  0.93827000000E+00  0.93827000000E+00 0.  1.
     999902    2    1    2    0    0 -0.15398183063E-01 -0.20380489580E-01  0.87247749964E-02  0.10169375919E+01  0.10165793012E+01 0.  0.
     999903    2    3    3    0    0 -0.12356231703E+00 -0.15035343905E-01  0.31318288526E-01  0.13001114774E+00  0.20696753010E-01 0.  0.
         14    1    1    2    0    0  0.15398183063E-01  0.20380489580E-01 -0.87247749964E-02  0.26992408116E-01  0.00000000000E+00 0. -1.
     999901    1    3    3    0    0  0.10816413397E+00 -0.53451456748E-02 -0.22593513529E-01  0.88692644414E+00  0.88000000000E+00 0. -1.
        -11    1    4    4    0    0 -0.20098759199E-01 -0.71776945463E-02  0.11920705104E-01  0.24450843575E-01  0.51100000000E-03 0. -1.
         11    1    4    4    0    0 -0.10346355783E+00 -0.78576493590E-02  0.19397583421E-01  0.10556030417E+00  0.51100000000E-03 0.  1.
</event>
<event>
 8    1  0.1078274E+005  0.1043930E+01  0.7957747E-01            NaN
         13   -1    0    0    0    0  0.00000000000E+00  0.00000000000E+00  0.74505805969E-08  0.10566000000E+00  0.10566000000E+00 0. -1.
     999900   -1    0    0    0    0 -0.00000000000E+00 -0.00000000000E+00 -0.74505805969E-08  0.93827000000E+00  0.93827000000E+00 0. -1.
     999902    2    1    2    0    0 -0.78870753114E-02  0.11759785639E-01  0.17262692230E-01  0.10216029075E+01  0.10213588995E+01 0.  0.
     999903    2    3    3    0    0 -0.11174269131E+00  0.50420961763E-02 -0.66364773820E-01  0.13153287129E+00  0.19615331523E-01 0.  0.
         14    1    1    2    0    0  0.78870753114E-02 -0.11759785639E-01 -0.17262692230E-01  0.22327092472E-01  0.00000000000E+00 0.  1.
     999901    1    3    3    0    0  0.10385561600E+00  0.67176894626E-02  0.83627466050E-01  0.89007003624E+00  0.88000000000E+00 0.  1.
        -11    1    4    4    0    0 -0.30386427523E-01 -0.35215298038E-02 -0.99962061715E-02  0.32185732998E-01  0.51100000000E-03 0.  1.
         11    1    4    4    0    0 -0.81356263789E-01  0.85636259801E-02 -0.56368567649E-01  0.99347138295E-01  0.51100000000E-03 0. -1.
</event>
<event>
 8    1  0.1078274E+005  0.1043930E+01  0.7957747E-01            NaN
         13   -1    0    0    0    0  0.00000000000E+00  0.00000000000E+00  0.74505805969E-08  0.10566000000E+00  0.10566000000E+00 0.  1.
     999900   -1    0    0    0    0 -0.00000000000E+00 -0.00000000000E+00 -0.74505805969E-08  0.93827000000E+00  0.93827000000E+00 0. -1.
     999902    2    1    2    0    0  0.44258156352E-03 -0.74244440488E-02  0.22747780822E-01  0.10199971819E+01  0.10197163681E+01 0.  0.
     999903    2    3    3    0    0 -0.11182087684E+00  0.17572341239E-03 -0.60932132376E-01  0.12889495744E+00  0.19931029113E-01 0.  0.
         14    1    1    2    0    0 -0.44258156352E-03  0.74244440488E-02 -0.22747780822E-01  0.23932818058E-01  0.00000000000E+00 0.  1.
     999901    1    3    3    0    0  0.11226345841E+00 -0.76001674612E-02  0.83679913197E-01  0.89110222450E+00  0.88000000000E+00 0. -1.
        -11    1    4    4    0    0 -0.76096350811E-01  0.92738735669E-02 -0.39274959445E-01  0.86136188087E-01  0.51100000000E-03 0.  1.
         11    1    4    4    0    0 -0.35724526030E-01 -0.90981501545E-02 -0.21657172931E-01  0.42758769354E-01  0.51100000000E-03 0. -1.
</event>
<event>
 8    1  0.1078274E+005  0.1043930E+01  0.7957747E-01            NaN
         13   -1    0    0    0    0  0.00000000000E+00  0.00000000000E+00  0.74505805969E-08  0.10566000000E+00  0.10566000000E+00 0. -1.
     999900   -1    0    0    0    0 -0.00000000000E+00 -0.00000000000E+00 -0.74505805969E-08  0.93827000000E+00  0.93827000000E+00 0.  1.
     999902    2    1    2    0    0 -0.22164653414E-02  0.13961110257E-01 -0.21579832365E-01  0.10181324326E+01  0.10178055491E+01 0.  0.
     999903    2    3    3    0    0 -0.10983897916E+00 -0.40709380843E-01 -0.51278968142E-01  0.12939540360E+00  0.19793505663E-01 0.  0.
         14    1    1    2    0    0  0.22164653414E-02 -0.13961110257E-01  0.21579832365E-01  0.25797567388E-01  0.00000000000E+00 0. -1.
     999901    1    3    3    0    0  0.10762251382E+00  0.54670491101E-01  0.29699135777E-01  0.88873702902E+00  0.88000000000E+00 0. -1.
        -11    1    4    4    0    0 -0.10515826438E+00 -0.42057947390E-01 -0.46139020723E-01  0.12229555127E+00  0.51100000000E-03 0. -1.
         11    1    4    4    0    0 -0.46807147808E-02  0.13485665469E-02 -0.51399474189E-02  0.70998523266E-02  0.51100000000E-03 0.  1.
</event>
<event>
 8    1  0.1078274E+005  0.1043930E+01  0.7957747E-01            NaN
         13   -1    0    0    0    0  0.00000000000E+00  0.00000000000E+00  0.74505805969E-08  0.10566000000E+00  0.10566000000E+00 0. -1.
     999900   -1    0    0    0    0 -0.00000000000E+00 -0.00000000000E+00 -0.74505805969E-08  0.93827000000E+00  0.93827000000E+00 0. -1.
     999902    2    1    2    0    0  0.19183024730E-01  0.17761211581E-01  0.21018259568E-01  0.10103857559E+01  0.10098287773E+01 0.  0.
     999903    2    3    3    0    0  0.86525535967E-01  0.82661529153E-01  0.31759613043E-01  0.12536460268E+00  0.19698066082E-01 0.  0.
         14    1    1    2    0    0 -0.19183024730E-01 -0.17761211581E-01 -0.21018259568E-01  0.33544244065E-01  0.00000000000E+00 0.  1.
     999901    1    3    3    0    0 -0.67342511237E-01 -0.64900317571E-01 -0.10741353475E-01  0.88502115326E+00  0.88000000000E+00 0.  1.
        -11    1    4    4    0    0  0.52665566242E-01  0.55981978165E-01  0.29047132048E-01  0.82168368294E-01  0.51100000000E-03 0.  1.
         11    1    4    4    0    0  0.33859969725E-01  0.26679550988E-01  0.27124809943E-02  0.43196234382E-01  0.51100000000E-03 0. -1.
</event>
<event>
 8    1  0.1078274E+005  0.1043930E+01  0.7957747E-01            NaN
         13   -1    0    0    0    0  0.00000000000E+00  0.00000000000E+00  0.74505805969E-08  0.10566000000E+00  0.10566000000E+00 0. -1.
     999900   -1    0    0    0    0 -0.00000000000E+00 -0.00000000000E+00 -0.74505805969E-08  0.93827000000E+00  0.93827000000E+00 0. -1.
     999902    2    1    2    0    0 -0.25960123125E-02 -0.13929103986E-02 -0.23130016844E-01  0.10206131143E+01  0.10203467312E+01 0.  0.
     999903    2    3    3    0    0  0.88152126654E-01 -0.79151289342E-01 -0.54393390457E-01  0.13198552709E+00  0.20635270752E-01 0.  0.
         14    1    1    2    0    0  0.25960123125E-02  0.13929103986E-02  0.23130016844E-01  0.23316885695E-01  0.00000000000E+00 0. -1.
     999901    1    3    3    0    0 -0.90748138967E-01  0.77758378943E-01  0.31263373613E-01  0.88862758721E+00  0.88000000000E+00 0.  1.
        -11    1    4    4    0    0  0.48584070814E-02 -0.12299968974E-01 -0.85628146094E-02  0.15763130119E-01  0.51100000000E-03 0.  1.
         11    1    4    4    0    0  0.83293719573E-01 -0.66851320368E-01 -0.45830575847E-01  0.11622239698E+00  0.51100000000E-03 0. -1.
</event>
<event>
 8    1  0.1078274E+005  0.1043930E+01  0.7957747E-01            NaN
         13   -1    0    0    0    0  0.00000000000E+00  0.00000000000E+00  0.74505805969E-08  0.10566000000E+00  0.10566000000E+00 0.  1.
     999900   -1    0    0    0    0 -0.00000000000E+00 -0.00000000000E+00 -0.74505805969E-08  0.93827000000E+00  0.93827000000E+00 0. -1.
     999902    2    1    2    0    0 -0.22722504690E-01  0.83935374177E-02  0.39221602087E-02  0.10193913156E+01  0.10190959265E+01 0.  0.
     999903    2    3    3    0    0  0.88617775394E-01 -0.85800662562E-01  0.23652979896E-01  0.12717020485E+00  0.19948276412E-01 0.  0.
         14    1    1    2    0    0  0.22722504690E-01 -0.83935374177E-02 -0.39221602087E-02  0.24538684367E-01  0.00000000000E+00 0. -1.
     999901    1    3    3    0    0 -0.11134028008E+00  0.94194199980E-01 -0.19730819687E-01  0.89222111078E+00  0.88000000000E+00 0.  1.
        -11    1    4    4    0    0  0.39125884903E-01 -0.26820616403E-01  0.34286693605E-02  0.47562561204E-01  0.51100000000E-03 0. -1.
         11    1    4    4    0    0  0.49491890491E-01 -0.58980046160E-01  0.20224310535E-01  0.79607643647E-01  0.51100000000E-03 0.  1.
</event>
<event>
 8    1  0.1078274E+005  0.1043930E+01  0.7957747E-01            NaN
         13   -1    0    0    0    0  0.00000000000E+00  0.00000000000E+00  0.74505805969E-08  0.10566000000E+00  0.10566000000E+00 0. -1.
     999900   -1    0    0    0    0 -0.00000000000E+00 -0.00000000000E+00 -0.74505805969E-08  0.93827000000E+00  0.93827000000E+00 0. -1.
     999902    2    1    2    0    0 -0.49759555506E-02 -0.22749867943E-01  0.30450223108E-03  0.10206403167E+01  0.10203745620E+01 0.  0.
     999903    2    3    3    0    0  0.64415750464E-01  0.39138373085E-01  0.10371781675E+00  0.12971962618E+00  0.19712806695E-01 0.  0.
         14    1    1    2    0    0  0.49759555506E-02  0.22749867943E-01 -0.30450223108E-03  0.23289683267E-01  0.00000000000E+00 0. -1.
     999901    1    3    3    0    0 -0.69391706015E-01 -0.61888241028E-01 -0.10341331452E+00  0.89092069056E+00  0.88000000000E+00 0. -1.
        -11    1    4    4    0    0  0.41597777676E-01  0.34206062606E-01  0.63999480115E-01  0.83645827167E-01  0.51100000000E-03 0. -1.
         11    1    4    4    0    0  0.22817972789E-01  0.49323104789E-02  0.39718336638E-01  0.46073799009E-01  0.51100000000E-03 0.  1.
</event>
<event>
 8    1  0.1078274E+005  0.1043930E+01  0.7957747E-01            NaN
         13   -1    0    0    0    0  0.00000000000E+00  0.00000000000E+00  0.74505805969E-08  0.10566000000E+00  0.10566000000E+00 0. -1.
     999900   -1    0    0    0    0 -0.00000000000E+00 -0.00000000000E+00 -0.74505805969E-08  0.93827000000E+00  0.93827000000E+00 0. -1.
     999902    2    1    2    0    0  0.23425534849E-01 -0.49892696759E-02  0.61527543027E-02  0.10192013753E+01  0.10189013389E+01 0.  0.
     999903    2    3    3    0    0 -0.18575586409E-01  0.11265073105E+00 -0.54885393026E-01  0.12828672203E+00  0.20244432909E-01 0.  0.
         14    1    1    2    0    0 -0.23425534849E-01  0.49892696759E-02 -0.61527543027E-02  0.24728624717E-01  0.00000000000E+00 0.  1.
     999901    1    3    3    0    0  0.42001121258E-01 -0.11764000073E+00  0.61038147329E-01  0.89091465326E+00  0.88000000000E+00 0.  1.
        -11    1    4    4    0    0  0.13886484318E-02  0.45817602577E-01 -0.26731260861E-01  0.53066020000E-01  0.51100000000E-03 0. -1.
         11    1    4    4    0    0 -0.19964234841E-01  0.66833128474E-01 -0.28154132165E-01  0.75220702026E-01  0.51100000000E-03 0.  1.
</event>
<event>
 8    1  0.1078274E+005  0.1043930E+01  0.7957747E-01            NaN
         13   -1    0    0    0    0  0.00000000000E+00  0.00000000000E+00  0.74505805969E-08  0.10566000000E+00  0.10566000000E+00 0. -1.
     999900   -1    0    0    0    0 -0.00000000000E+00 -0.00000000000E+00 -0.74505805969E-08  0.93827000000E+00  0.93827000000E+00 0. -1.
     999902    2    1    2    0    0 -0.19383740808E-01  0.19977542665E-01  0.31111210869E-02  0.10159208820E+01  0.10155347004E+01 0.  0.
     999903    2    3    3    0    0  0.10926420120E+00 -0.24875176694E-01 -0.48635321945E-01  0.12393447300E+00  0.20902606970E-01 0.  0.
         14    1    1    2    0    0  0.19383740808E-01 -0.19977542665E-01 -0.31111210869E-02  0.28009118035E-01  0.00000000000E+00 0. -1.
     999901    1    3    3    0    0 -0.12864794200E+00  0.44852719359E-01  0.51746443032E-01  0.89198640897E+00  0.88000000000E+00 0.  1.
        -11    1    4    4    0    0  0.30031653892E-01 -0.95188959476E-02 -0.23814112155E-01  0.39495350034E-01  0.51100000000E-03 0.  1.
         11    1    4    4    0    0  0.79232547303E-01 -0.15356280746E-01 -0.24821209790E-01  0.84439122964E-01  0.51100000000E-03 0. -1.
</event>
<event>
 8    1  0.1078274E+005  0.1043930E+01  0.7957747E-01            NaN
         13   -1    0    0    0    0  0.00000000000E+00  0.00000000000E+00  0.74505805969E-08  0.10566000000E+00  0.10566000000E+00 0.  1.
     999900   -1    0    0    0    0 -0.00000000000E+00 -0.00000000000E+00 -0.74505805969E-08  0.93827000000E+00  0.93827000000E+00 0.  1.
     999902    2    1    2    0    0  0.11185465985E-01 -0.15216799314E-01  0.13205067829E-01  0.10208857068E+01  0.10206255861E+01 0.  0.
     999903    2    3    3    0    0 -0.11938583813E+00  0.10332210560E-01  0.47180027851E-01  0.13023655298E+00  0.19387413027E-01 0.  0.
         14    1    1    2    0    0 -0.11185465985E-01  0.15216799314E-01 -0.13205067829E-01  0.23044293155E-01  0.00000000000E+00 0. -1.
     999901    1    3    3    0    0  0.13057130412E+00 -0.25549009874E-01 -0.33974960022E-01  0.89064915386E+00  0.88000000000E+00 0.  1.
        -11    1    4    4    0    0 -0.36389035326E-01 -0.56822864425E-02  0.13049158309E-01  0.39076744040E-01  0.51100000000E-03 0. -1.
         11    1    4    4    0    0 -0.82996802805E-01  0.16014497002E-01  0.34130869542E-01  0.91159808944E-01  0.51100000000E-03 0.  1.
</event>
<event>
 8    1  0.1078274E+005  0.1043930E+01  0.7957747E-01            NaN
         13   -1    0    0    0    0  0.00000000000E+00  0.00000000000E+00  0.74505805969E-08  0.10566000000E+00  0.10566000000E+00 0. -1.
     999900   -1    0    0    0    0 -0.00000000000E+00 -0.00000000000E+00 -0.74505805969E-08  0.93827000000E+00  0.93827000000E+00 0.  1.
     999902    2    1    2    0    0  0.18390043355E-01  0.94150180647E-02  0.11755980400E-01  0.10201594439E+01  0.10198824696E+01 0.  0.
     999903    2    3    3    0    0 -0.32054375635E-01 -0.11617935620E+00  0.42286050579E-01  0.12928870617E+00  0.20058256754E-01 0.  0.
         14    1    1    2    0    0 -0.18390043355E-01 -0.94150180647E-02 -0.11755980400E-01  0.23770556050E-01  0.00000000000E+00 0.  1.
     999901    1    3    3    0    0  0.50444418990E-01  0.12559437427E+00 -0.30530070178E-01  0.89087073778E+00  0.88000000000E+00 0.  1.
        -11    1    4    4    0    0 -0.18417932812E-01 -0.33279160005E-01  0.15880798720E-01  0.41221155111E-01  0.51100000000E-03 0. -1.
         11    1    4    4    0    0 -0.13636442823E-01 -0.82900196195E-01  0.26405251859E-01  0.88067551055E-01  0.51100000000E-03 0.  1.
</event>
<event>
 8    1  0.1078274E+005  0.1043930E+01  0.7957747E-01            NaN
         13   -1    0    0    0    0  0.00000000000E+00  0.00000000000E+00  0.74505805969E-08  0.10566000000E+00  0.10566000000E+00 0. -1.
     999900   -1    0    0    0    0 -0.00000000000E+00 -0.00000000000E+00 -0.74505805969E-08  0.93827000000E+00  0.93827000000E+00 0.  1.
     999902    2    1    2    0    0  0.99972687099E-02 -0.25774519872E-02 -0.20390776951E-01  0.10210745318E+01  0.10208187043E+01 0.  0.
     999903    2    3    3    0    0 -0.41679003488E-01  0.10194610691E+00 -0.70280380373E-01  0.13198253209E+00  0.18705851154E-01 0.  0.
         14    1    1    2    0    0 -0.99972687099E-02  0.25774519872E-02  0.20390776951E-01  0.22855468165E-01  0.00000000000E+00 0. -1.
     999901    1    3    3    0    0  0.51676272198E-01 -0.10452355890E+00  0.49889603422E-01  0.88909199974E+00  0.88000000000E+00 0. -1.
        -11    1    4    4    0    0 -0.18054956327E-01  0.59283582767E-01 -0.47877656927E-01  0.78313828839E-01  0.51100000000E-03 0. -1.
         11    1    4    4    0    0 -0.23624047161E-01  0.42662524141E-01 -0.22402723446E-01  0.53668703256E-01  0.51100000000E-03 0.  1.
</event>
<event>
 8    1  0.1078274E+005  0.1043930E+01  0.7957747E-01            NaN
         13   -1    0    0    0    0  0.00000000000E+00  0.00000000000E+00  0.74505805969E-08  0.10566000000E+00  0.10566000000E+00 0.  1.
     999900   -1    0    0    0    0 -0.00000000000E+00 -0.00000000000E+00 -0.74505805969E-08  0.93827000000E+00  0.93827000000E+00 0. -1.
     999902    2    1    2    0    0  0.34117444354E-02  0.20304229026E-01 -0.63087441545E-02  0.10223962597E+01  0.10221694625E+01 0.  0.
     999903    2    3    3    0    0 -0.12701316948E+00 -0.78822840021E-03  0.29043651812E-01  0.13183164007E+00  0.20076879417E-01 0.  0.
         14    1    1    2    0    0 -0.34117444354E-02 -0.20304229026E-01  0.63087441545E-02  0.21533740252E-01  0.00000000000E+00 0.  1.
     999901    1    3    3    0    0  0.13042491391E+00  0.21092457426E-01 -0.35352395966E-01  0.89056461968E+00  0.88000000000E+00 0. -1.
        -11    1    4    4    0    0 -0.49711355151E-01  0.58495554723E-02  0.19238180594E-01  0.53626531155E-01  0.51100000000E-03 0.  1.
         11    1    4    4    0    0 -0.77301814327E-01 -0.66377838725E-02  0.98054712175E-02  0.78205108911E-01  0.51100000000E-03 0. -1.
</event>
<event>
 8    1  0.1078274E+005  0.1043930E+01  0.7957747E-01            NaN
         13   -1    0    0    0    0  0.00000000000E+00  0.00000000000E+00  0.74505805969E-08  0.10566000000E+00  0.10566000000E+00 0.  1.
     999900   -1    0    0    0    0 -0.00000000000E+00 -0.00000000000E+00 -0.74505805969E-08  0.93827000000E+00  0.93827000000E+00 0.  1.
     999902    2    1    2    0    0  0.62952023506E-02  0.28078571702E-02  0.22737815090E-01  0.10201703310E+01  0.10198936133E+01 0.  0.
     999903    2    3    3    0    0  0.42650035081E-01 -0.95048535548E-03  0.12484324717E+00  0.13351294609E+00  0.20492474118E-01 0.  0.
         14    1    1    2    0    0 -0.62952023506E-02 -0.28078571702E-02 -0.22737815090E-01  0.23759668971E-01  0.00000000000E+00 0. -1.
     999901    1    3    3    0    0 -0.36354832730E-01  0.37583425257E-02 -0.10210543208E+00  0.88665738494E+00  0.88000000000E+00 0.  1.
        -11    1    4    4    0    0  0.17335623876E-01 -0.52916433721E-02  0.78084239114E-01  0.80161929018E-01  0.51100000000E-03 0. -1.
         11    1    4    4    0    0  0.25314411205E-01  0.43411580166E-02  0.46759008057E-01  0.53351017076E-01  0.51100000000E-03 0.  1.
</event>
<event>
 8    1  0.1078274E+005  0.1043930E+01  0.7957747E-01            NaN
         13   -1    0    0    0    0  0.00000000000E+00  0.00000000000E+00  0.74505805969E-08  0.10566000000E+00  0.10566000000E+00 0.  1.
     999900   -1    0    0    0    0 -0.00000000000E+00 -0.00000000000E+00 -0.74505805969E-08  0.93827000000E+00  0.93827000000E+00 0.  1.
     999902    2    1    2    0    0  0.13872671840E-01 -0.87657809705E-02 -0.17784705550E-01  0.10197311221E+01  0.10194439542E+01 0.  0.
     999903    2    3    3    0    0  0.12397358367E+00  0.29436061876E-01  0.23576925951E-01  0.13108474916E+00  0.19784055190E-01 0.  0.
         14    1    1    2    0    0 -0.13872671840E-01  0.87657809705E-02  0.17784705550E-01  0.24198877898E-01  0.00000000000E+00 0. -1.
     999901    1    3    3    0    0 -0.11010091183E+00 -0.38201842847E-01 -0.41361631501E-01  0.88864637294E+00  0.88000000000E+00 0.  1.
        -11    1    4    4    0    0  0.79471568938E-01  0.10846884574E-01  0.20319111298E-01  0.82743655826E-01  0.51100000000E-03 0.  1.
         11    1    4    4    0    0  0.44502014727E-01  0.18589177302E-01  0.32578146529E-02  0.48341093335E-01  0.51100000000E-03 0. -1.
</event>
<event>
 8    1  0.1078274E+005  0.1043930E+01  0.7957747E-01            NaN
         13   -1    0    0    0    0  0.00000000000E+00  0.00000000000E+00  0.74505805969E-08  0.10566000000E+00  0.10566000000E+00 0. -1.
     999900   -1    0    0    0    0 -0.00000000000E+00 -0.00000000000E+00 -0.74505805969E-08  0.93827000000E+00  0.93827000000E+00 0.  1.
     999902    2    1    2    0    0  0.17269236235E-01 -0.16009669412E-01  0.22226172741E-02  0.10202767537E+01  0.10200025382E+01 0.  0.
     999903    2    3    3    0    0 -0.75840829001E-01  0.93622614296E-01 -0.36861969381E-01  0.12774309783E+00  0.21034947226E-01 0.  0.
         14    1    1    2    0    0 -0.17269236235E-01  0.16009669412E-01 -0.22226172741E-02  0.23653246340E-01  0.00000000000E+00 0. -1.
     999901    1    3    3    0    0  0.93110065236E-01 -0.10963228371E+00  0.39084586655E-01  0.89253365583E+00  0.88000000000E+00 0. -1.
        -11    1    4    4    0    0 -0.56033632550E-01  0.61733937744E-01 -0.16347419598E-01  0.84960851541E-01  0.51100000000E-03 0. -1.
         11    1    4    4    0    0 -0.19807196451E-01  0.31888676553E-01 -0.20514549784E-01  0.42782246287E-01  0.51100000000E-03 0.  1.
</event>
<event>
 8    1  0.1078274E+005  0.1043930E+01  0.7957747E-01            NaN
         13   -1    0    0    0    0  0.00000000000E+00  0.00000000000E+00  0.74505805969E-08  0.10566000000E+00  0.10566000000E+00 0. -1.
     999900   -1    0    0    0    0 -0.00000000000E+00 -0.00000000000E+00 -0.74505805969E-08  0.93827000000E+00  0.93827000000E+00 0.  1.
     999902    2    1    2    0    0  0.48684541816E-02  0.12456428030E-01 -0.20399156632E-01  0.10195375824E+01  0.10192457466E+01 0.  0.
     999903    2    3    3    0    0 -0.20554899402E-01  0.99785078833E-01  0.77205003380E-01  0.12948184694E+00  0.20624507111E-01 0.  0.
         14    1    1    2    0    0 -0.48684541816E-02 -0.12456428030E-01  0.20399156632E-01  0.24392417606E-01  0.00000000000E+00 0. -1.
     999901    1    3    3    0    0  0.25423353584E-01 -0.87328650803E-01 -0.97604160012E-01  0.89005573545E+00  0.88000000000E+00 0.  1.
        -11    1    4    4    0    0 -0.19290651271E-01  0.57656790359E-01  0.54257809746E-01  0.81489911893E-01  0.51100000000E-03 0.  1.
         11    1    4    4    0    0 -0.12642481314E-02  0.42128288474E-01  0.22947193634E-01  0.47991935049E-01  0.51100000000E-03 0. -1.
</event>
<event>
 8    1  0.1078274E+005  0.1043930E+01  0.7957747E-01            NaN
         13   -1    0    0    0    0  0.00000000000E+00  0.00000000000E+00  0.74505805969E-08  0.10566000000E+00  0.10566000000E+00 0.  1.
     999900   -1    0    0    0    0 -0.00000000000E+00 -0.00000000000E+00 -0.74505805969E-08  0.93827000000E+00  0.93827000000E+00 0.  1.
     999902    2    1    2    0    0  0.80496815360E-02  0.12093787510E-01  0.18856896546E-01  0.10201258067E+01  0.10198480387E+01 0.  0.
     999903    2    3    3    0    0  0.32444745968E-01 -0.11927736780E+00  0.34743381789E-01  0.12989781346E+00  0.19661824742E-01 0.  0.
         14    1    1    2    0    0 -0.80496815360E-02 -0.12093787510E-01 -0.18856896546E-01  0.23804193255E-01  0.00000000000E+00 0.  1.
     999901    1    3    3    0    0 -0.24395064432E-01  0.13137115531E+00 -0.15886485243E-01  0.89022799329E+00  0.88000000000E+00 0.  1.
        -11    1    4    4    0    0  0.18509674782E-01 -0.68100250601E-01  0.96864246751E-02  0.71234402759E-01  0.51100000000E-03 0. -1.
         11    1    4    4    0    0  0.13935071186E-01 -0.51177117202E-01  0.25056957114E-01  0.58663410700E-01  0.51100000000E-03 0.  1.
</event>
<event>
 8    1  0.1078274E+005  0.1043930E+01  0.7957747E-01            NaN
         13   -1    0    0    0    0  0.00000000000E+00  0.00000000000E+00  0.74505805969E-08  0.10566000000E+00  0.10566000000E+00 0.  1.
     999900   -1    0    0    0    0 -0.00000000000E+00 -0.00000000000E+00 -0.74505805969E-08  0.93827000000E+00  0.93827000000E+00 0.  1.
     999902    2    1    2    0    0 -0.39395199418E-02 -0.21283393361E-01  0.96805712900E-02  0.10202189032E+01  0.10199433290E+01 0.  0.
     999903    2    3    3    0    0 -0.45692485571E-01 -0.19244094477E-02 -0.11948349775E+00  0.12960033327E+00  0.20698636689E-01 0.  0.
         14    1    1    2    0    0  0.39395199418E-02  0.21283393361E-01 -0.96805712900E-02  0.23711096787E-01  0.00000000000E+00 0. -1.
     999901    1    3    3    0    0  0.41752965630E-01 -0.19358983913E-01  0.12916406904E+00  0.89061856994E+00  0.88000000000E+00 0. -1.
        -11    1    4    4    0    0 -0.32652609148E-01  0.22746013725E-02 -0.10344642930E+00  0.10850249560E+00  0.51100000000E-03 0.  1.
         11    1    4    4    0    0 -0.13039876423E-01 -0.41990108202E-02 -0.16037068445E-01  0.21097837669E-01  0.51100000000E-03 0. -1.
</event>
<event>
 8    1  0.1078274E+005  0.1043930E+01  0.7957747E-01            NaN
         13   -1    0    0    0    0  0.00000000000E+00  0.00000000000E+00  0.74505805969E-08  0.10566000000E+00  0.10566000000E+00 0.  1.
     999900   -1    0    0    0    0 -0.00000000000E+00 -0.00000000000E+00 -0.74505805969E-08  0.93827000000E+00  0.93827000000E+00 0. -1.
     999902    2    1    2    0    0 -0.23689939796E-01  0.28592120398E-02 -0.18527339206E-02  0.10199963216E+01  0.10197154873E+01 0.  0.
     999903    2    3    3    0    0 -0.81391170030E-01 -0.13545672528E-03  0.10192064543E+00  0.13201697817E+00  0.20399109134E-01 0.  0.
         14    1    1    2    0    0  0.23689939796E-01 -0.28592120398E-02  0.18527339206E-02  0.23933678447E-01  0.00000000000E+00 0. -1.
     999901    1    3    3    0    0  0.57701230234E-01  0.29946687651E-02 -0.10377337935E+00  0.88797934338E+00  0.88000000000E+00 0. -1.
        -11    1    4    4    0    0 -0.31809511972E-01  0.64061739768E-02  0.28560775142E-01  0.43230349462E-01  0.51100000000E-03 0. -1.
         11    1    4    4    0    0 -0.49581658059E-01 -0.65416307020E-02  0.73359870286E-01  0.88786628709E-01  0.51100000000E-03 0.  1.
</event>
<event>
 8    1  0.1078274E+005  0.1043930E+01  0.7957747E-01            NaN
         13   -1    0    0    0    0  0.00000000000E+00  0.00000000000E+00  0.74505805969E-08  0.10566000000E+00  0.10566000000E+00 0.  1.
     999900   -1    0    0    0    0 -0.00000000000E+00 -0.00000000000E+00 -0.74505805969E-08  0.93827000000E+00  0.93827000000E+00 0. -1.
     999902    2    1    2    0    0 -0.20499597016E-01 -0.12932231337E-01 -0.27823925315E-02  0.10195329142E+01  0.10192409653E+01 0.  0.
     999903    2    3    3    0    0  0.55289246171E-01  0.10575642236E+00  0.39067677972E-01  0.12735447152E+00  0.21249855042E-01 0.  0.
         14    1    1    2    0    0  0.20499597016E-01  0.12932231337E-01  0.27823925315E-02  0.24397085756E-01  0.00000000000E+00 0. -1.
     999901    1    3    3    0    0 -0.75788843187E-01 -0.11868865370E+00 -0.41850070503E-01  0.89217844273E+00  0.88000000000E+00 0. -1.
        -11    1    4    4    0    0  0.33556436792E-01  0.53948948264E-01  0.30655601438E-01  0.70544670171E-01  0.51100000000E-03 0. -1.
         11    1    4    4    0    0  0.21732809378E-01  0.51807474101E-01  0.84120765337E-02  0.56809801344E-01  0.51100000000E-03 0.  1.
</event>
<event>
 8    1  0.1078274E+005  0.1043930E+01  0.7957747E-01            NaN
         13   -1    0    0    0    0  0.00000000000E+00  0.00000000000E+00  0.74505805969E-08  0.10566000000E+00  0.10566000000E+00 0.  1.
     999900   -1    0    0    0    0 -0.00000000000E+00 -0.00000000000E+00 -0.74505805969E-08  0.93827000000E+00  0.93827000000E+00 0. -1.
     999902    2    1    2    0    0  0.20475406324E-01  0.99789555850E-02 -0.36432618004E-02  0.10208628117E+01  0.10206021679E+01 0.  0.
     999903    2    3    3    0    0 -0.54963354972E-01 -0.10485927899E+00 -0.47284337600E-01  0.12913226367E+00  0.20564390560E-01 0.  0.
         14    1    1    2    0    0 -0.20475406324E-01 -0.99789555850E-02  0.36432618004E-02  0.23067188282E-01  0.00000000000E+00 0.  1.
     999901    1    3    3    0    0  0.75438761296E-01  0.11483823457E+00  0.43641075800E-01  0.89173054805E+00  0.88000000000E+00 0.  1.
        -11    1    4    4    0    0 -0.22279030081E-01 -0.47327838934E-01 -0.31648484992E-01  0.61140553177E-01  0.51100000000E-03 0. -1.
         11    1    4    4    0    0 -0.32684324891E-01 -0.57531440051E-01 -0.15635852608E-01  0.67991710493E-01  0.51100000000E-03 0.  1.
</event>
<event>
 8    1  0.1078274E+005  0.1043930E+01  0.7957747E-01            NaN
         13   -1    0    0    0    0  0.00000000000E+00  0.00000000000E+00  0.74505805969E-08  0.10566000000E+00  0.10566000000E+00 0.  1.
     999900   -1    0    0    0    0 -0.00000000000E+00 -0.00000000000E+00 -0.74505805969E-08  0.93827000000E+00  0.93827000000E+00 0. -1.
     999902    2    1    2    0    0 -0.17067368346E-01  0.25712587503E-01 -0.53165422528E-02  0.10126139045E+01  0.10121295479E+01 0.  0.
     999903    2    3    3    0    0 -0.93234706449E-01  0.83993253250E-01  0.17663881201E-01  0.12710489871E+00  0.98013009375E-02 0.  0.
         14    1    1    2    0    0  0.17067368346E-01 -0.25712587503E-01  0.53165422528E-02  0.31316095540E-01  0.00000000000E+00 0.  1.
     999901    1    3    3    0    0  0.76167338102E-01 -0.58280665747E-01 -0.22980423454E-01  0.88550900575E+00  0.88000000000E+00 0. -1.
        -11    1    4    4    0    0 -0.66626389242E-01  0.61295114086E-01  0.84133013518E-02  0.90924207530E-01  0.51100000000E-03 0.  1.
         11    1    4    4    0    0 -0.26608317207E-01  0.22698139164E-01  0.92505798491E-02  0.36180691185E-01  0.51100000000E-03 0. -1.
</event>
<event>
 8    1  0.1078274E+005  0.1043930E+01  0.7957747E-01            NaN
         13   -1    0    0    0    0  0.00000000000E+00  0.00000000000E+00  0.74505805969E-08  0.10566000000E+00  0.10566000000E+00 0. -1.
     999900   -1    0    0    0    0 -0.00000000000E+00 -0.00000000000E+00 -0.74505805969E-08  0.93827000000E+00  0.93827000000E+00 0. -1.
     999902    2    1    2    0    0 -0.18938631863E-02  0.22526684074E-01 -0.48122261386E-02  0.10208173253E+01  0.10205556407E+01 0.  0.
     999903    2    3    3    0    0  0.22893400064E-01  0.12077444844E+00 -0.49546732499E-01  0.13387414350E+00  0.18890008820E-01 0.  0.
         14    1    1    2    0    0  0.18938631863E-02 -0.22526684074E-01  0.48122261386E-02  0.23112674739E-01  0.00000000000E+00 0. -1.
     999901    1    3    3    0    0 -0.24787263250E-01 -0.98247764364E-01  0.44734506360E-01  0.88694318177E+00  0.88000000000E+00 0.  1.
        -11    1    4    4    0    0  0.88336601012E-02  0.14476432717E-01 -0.92726057597E-02  0.19335019875E-01  0.51100000000E-03 0. -1.
         11    1    4    4    0    0  0.14059739963E-01  0.10629801572E+00 -0.40274126739E-01  0.11453912362E+00  0.51100000000E-03 0.  1.
</event>
<event>
 7    1  0.1078274E+005  0.1043930E+01  0.7957747E-01            NaN
         13   -1    0    0    0    0  0.00000000000E+00  0.00000000000E+00  0.74505805969E-08  0.10566000000E+00  0.10566000000E+00 0. -1.
     999900   -1    0    0    0    0 -0.00000000000E+00 -0.00000000000E+00 -0.74505805969E-08  0.93827000000E+00  0.93827000000E+00 0. -1.
     999903    2    1    2    0    0 -0.20220824924E-02  0.80152578337E-01 -0.76006435721E-01  0.11251019539E+00  0.21284763657E-01 0.  0.
         14    1    1    2    0    0 -0.57146574121E-02 -0.35484338561E-01  0.33650235594E-01  0.49235494798E-01  0.00000000000E+00 0. -1.
     999901    1    1    2    0    0  0.77367399045E-02 -0.44668239776E-01  0.42356200127E-01  0.88218430981E+00  0.88000000000E+00 0.  1.
        -11    1    3    3    0    0 -0.11290445886E-01  0.32955433538E-01 -0.30896371757E-01  0.46565885331E-01  0.51100000000E-03 0. -1.
         11    1    3    3    0    0  0.92683633935E-02  0.47197144799E-01 -0.45110063965E-01  0.65944310058E-01  0.51100000000E-03 0.  1.
</event>
<event>
 8    1  0.1078274E+005  0.1043930E+01  0.7957747E-01            NaN
         13   -1    0    0    0    0  0.00000000000E+00  0.00000000000E+00  0.74505805969E-08  0.10566000000E+00  0.10566000000E+00 0. -1.
     999900   -1    0    0    0    0 -0.00000000000E+00 -0.00000000000E+00 -0.74505805969E-08  0.93827000000E+00  0.93827000000E+00 0. -1.
     999902    2    1    2    0    0  0.16907685892E-01  0.14162611279E-01 -0.16002224438E-01  0.10166807690E+01  0.10163155345E+01 0.  0.
     999903    2    3    3    0    0 -0.11884159012E+00  0.28088082007E-01  0.20412197737E-01  0.12541885759E+00  0.20024188651E-01 0.  0.
         14    1    1    2    0    0 -0.16907685892E-01 -0.14162611279E-01  0.16002224438E-01  0.27249230951E-01  0.00000000000E+00 0. -1.
     999901    1    3    3    0    0  0.13574927601E+00 -0.13925470728E-01 -0.36414422175E-01  0.89126191146E+00  0.88000000000E+00 0. -1.
        -11    1    4    4    0    0 -0.39106783380E-01  0.14638646385E-02  0.10383631025E-02  0.39151279991E-01  0.51100000000E-03 0.  1.
         11    1    4    4    0    0 -0.79734806736E-01  0.26624217368E-01  0.19373834635E-01  0.86267577601E-01  0.51100000000E-03 0. -1.
</event>
<event>
 8    1  0.1078274E+005  0.1043930E+01  0.7957747E-01            NaN
         13   -1    0    0    0    0  0.00000000000E+00  0.00000000000E+00  0.74505805969E-08  0.10566000000E+00  0.10566000000E+00 0. -1.
     999900   -1    0    0    0    0 -0.00000000000E+00 -0.00000000000E+00 -0.74505805969E-08  0.93827000000E+00  0.93827000000E+00 0. -1.
     999902    2    1    2    0    0 -0.20043281396E-01  0.76981723222E-02 -0.12244654779E-01  0.10192130715E+01  0.10189133223E+01 0.  0.
     999903    2    3    3    0    0 -0.84095459926E-01  0.54051044063E-01  0.81692524297E-01  0.13068875332E+00  0.20305663610E-01 0.  0.
         14    1    1    2    0    0  0.20043281396E-01 -0.76981723222E-02  0.12244654779E-01  0.24716928549E-01  0.00000000000E+00 0. -1.
     999901    1    3    3    0    0  0.64052178530E-01 -0.46352871740E-01 -0.93937179076E-01  0.88852431813E+00  0.88000000000E+00 0. -1.
        -11    1    4    4    0    0 -0.18932181223E-01  0.19518584374E-01  0.30771285481E-01  0.41067453695E-01  0.51100000000E-03 0.  1.
         11    1    4    4    0    0 -0.65163278703E-01  0.34532459688E-01  0.50921238816E-01  0.89621299628E-01  0.51100000000E-03 0. -1.
</event>
<event>
 8    1  0.1078274E+005  0.1043930E+01  0.7957747E-01            NaN
         13   -1    0    0    0    0  0.00000000000E+00  0.00000000000E+00  0.74505805969E-08  0.10566000000E+00  0.10566000000E+00 0.  1.
     999900   -1    0    0    0    0 -0.00000000000E+00 -0.00000000000E+00 -0.74505805969E-08  0.93827000000E+00  0.93827000000E+00 0. -1.
     999902    2    1    2    0    0 -0.65522074847E-02 -0.59882998657E-02  0.22540398048E-01  0.10197047920E+01  0.10194169913E+01 0.  0.
     999903    2    3    3    0    0  0.60594653278E-01 -0.10411613582E+00 -0.43066194988E-01  0.12928803669E+00  0.18676657522E-01 0.  0.
         14    1    1    2    0    0  0.65522074847E-02  0.59882998657E-02 -0.22540398048E-01  0.24225207994E-01  0.00000000000E+00 0. -1.
     999901    1    3    3    0    0 -0.67146860763E-01  0.98127835954E-01  0.65606593036E-01  0.89041675532E+00  0.88000000000E+00 0.  1.
        -11    1    4    4    0    0  0.97416954663E-02 -0.18527876575E-01 -0.15294183483E-01  0.25929828583E-01  0.51100000000E-03 0.  1.
         11    1    4    4    0    0  0.50852957812E-01 -0.85588259245E-01 -0.27772011504E-01  0.10335820811E+00  0.51100000000E-03 0. -1.
</event>
<event>
 8    1  0.1078274E+005  0.1043930E+01  0.7957747E-01            NaN
         13   -1    0    0    0    0  0.00000000000E+00  0.00000000000E+00  0.74505805969E-08  0.10566000000E+00  0.10566000000E+00 0.  1.
     999900   -1    0    0    0    0 -0.00000000000E+00 -0.00000000000E+00 -0.74505805969E-08  0.93827000000E+00  0.93827000000E+00 0. -1.
     999902    2    1    2    0    0 -0.38085497052E-02  0.77508066513E-02 -0.13456468822E-01  0.10279407346E+01  0.10278163733E+01 0.  0.
     999903    2    3    3    0    0 -0.11999552236E+00  0.34406113063E-01 -0.57483695740E-01  0.13881289527E+00  0.19543249834E-01 0.  0.
         14    1    1    2    0    0  0.38085497052E-02 -0.77508066513E-02  0.13456468822E-01  0.15989265392E-01  0.00000000000E+00 0.  1.
     999901    1    3    3    0    0  0.11618697266E+00 -0.26655306412E-01  0.44027226918E-01  0.88912783934E+00  0.88000000000E+00 0. -1.
        -11    1    4    4    0    0 -0.93752656249E-01  0.35049317390E-01 -0.45077085473E-01  0.10977349388E+00  0.51100000000E-03 0.  1.
         11    1    4    4    0    0 -0.26242866114E-01 -0.64320432672E-03 -0.12406610267E-01  0.29039401389E-01  0.51100000000E-03 0. -1.
</event>
<event>
 8    1  0.1078274E+005  0.1043930E+01  0.7957747E-01            NaN
         13   -1    0    0    0    0  0.00000000000E+00  0.00000000000E+00  0.74505805969E-08  0.10566000000E+00  0.10566000000E+00 0. -1.
     999900   -1    0    0    0    0 -0.00000000000E+00 -0.00000000000E+00 -0.74505805969E-08  0.93827000000E+00  0.93827000000E+00 0. -1.
     999902    2    1    2    0    0  0.19923503243E-01 -0.40215792494E-02 -0.14454505464E-01  0.10189890335E+01  0.10186837579E+01 0.  0.
     999903    2    3    3    0    0  0.34106977995E-01 -0.55210079383E-01 -0.11297373705E+00  0.13189970740E+00  0.20567662388E-01 0.  0.
         14    1    1    2    0    0 -0.19923503243E-01  0.40215792494E-02  0.14454505464E-01  0.24940966487E-01  0.00000000000E+00 0. -1.
     999901    1    3    3    0    0 -0.14183474752E-01  0.51188500133E-01  0.98519231590E-01  0.88708932611E+00  0.88000000000E+00 0.  1.
        -11    1    4    4    0    0  0.88870569437E-02 -0.99606924057E-02 -0.41700025612E-01  0.43787537397E-01  0.51100000000E-03 0.  1.
         11    1    4    4    0    0  0.25219921051E-01 -0.45249386977E-01 -0.71273711442E-01  0.88112170007E-01  0.51100000000E-03 0. -1.
</event>
<event>
 8    1  0.1078274E+005  0.1043930E+01  0.7957747E-01            NaN
         13   -1    0    0    0    0  0.00000000000E+00  0.00000000000E+00  0.74505805969E-08  0.10566000000E+00  0.10566000000E+00 0.  1.
     999900   -1    0    0    0    0 -0.00000000000E+00 -0.00000000000E+00 -0.74505805969E-08  0.93827000000E+00  0.93827000000E+00 0.  1.
     999902    2    1    2    0    0  0.81417658590E-02 -0.49426877364E-02  0.21765583230E-01  0.10201716514E+01  0.10198949648E+01 0.  0.
     999903    2    3    3    0    0  0.82694224686E-01  0.98358127662E-01 -0.10134002517E-01  0.13042634453E+00  0.19891638127E-01 0.  0.
         14    1    1    2    0    0 -0.81417658590E-02  0.49426877364E-02 -0.21765583230E-01  0.23758348568E-01  0.00000000000E+00 0. -1.
     999901    1    3    3    0    0 -0.74552458827E-01 -0.10330081540E+00  0.31899585746E-01  0.88974530690E+00  0.88000000000E+00 0.  1.
        -11    1    4    4    0    0  0.60306074310E-01  0.83750687961E-01 -0.10007739943E-01  0.10368903661E+00  0.51100000000E-03 0. -1.
         11    1    4    4    0    0  0.22388150375E-01  0.14607439701E-01 -0.12626257377E-03  0.26737307925E-01  0.51100000000E-03 0.  1.
</event>
<event>
 8    1  0.1078274E+005  0.1043930E+01  0.7957747E-01            NaN
         13   -1    0    0    0    0  0.00000000000E+00  0.00000000000E+00  0.74505805969E-08  0.10566000000E+00  0.10566000000E+00 0.  1.
     999900   -1    0    0    0    0 -0.00000000000E+00 -0.00000000000E+00 -0.74505805969E-08  0.93827000000E+00  0.93827000000E+00 0. -1.
     999902    2    1    2    0    0  0.10281024206E-02  0.84224234881E-02  0.10306093612E-01  0.10305804765E+01  0.10304940120E+01 0.  0.
     999903    2    3    3    0    0 -0.13552115321E+00 -0.25113543988E-01  0.62300418907E-02  0.13940879017E+00  0.19983100275E-01 0.  0.
         14    1    1    2    0    0 -0.10281024206E-02 -0.84224234881E-02 -0.10306093612E-01  0.13349523495E-01  0.00000000000E+00 0. -1.
     999901    1    3    3    0    0  0.13654925563E+00  0.33535967476E-01  0.40760517212E-02  0.89117168633E+00  0.88000000000E+00 0.  1.
        -11    1    4    4    0    0 -0.80149336903E-01 -0.19584791979E-01  0.12332865274E-01  0.83425661338E-01  0.51100000000E-03 0.  1.
         11    1    4    4    0    0 -0.55371816304E-01 -0.55287520092E-02 -0.61028233837E-02  0.55983128832E-01  0.51100000000E-03 0. -1.
</event>
<event>
 8    1  0.1078274E+005  0.1043930E+01  0.7957747E-01            NaN
         13   -1    0    0    0    0  0.00000000000E+00  0.00000000000E+00  0.74505805969E-08  0.10566000000E+00  0.10566000000E+00 0. -1.
     999900   -1    0    0    0    0 -0.00000000000E+00 -0.00000000000E+00 -0.74505805969E-08  0.93827000000E+00  0.93827000000E+00 0.  1.
     999902    2    1    2    0    0  0.22880289426E-01 -0.17885872136E-02  0.97733748437E-02  0.10189855508E+01  0.10186801889E+01 0.  0.
     999903    2    3    3    0    0 -0.20387317364E-01 -0.79140646983E-01 -0.96544050537E-01  0.12816636498E+00  0.20663462999E-01 0.  0.
         14    1    1    2    0    0 -0.22880289426E-01  0.17885872136E-02 -0.97733748437E-02  0.24944449168E-01  0.00000000000E+00 0. -1.
     999901    1    3    3    0    0  0.43267606790E-01  0.77352059769E-01  0.10631742538E+00  0.89081918586E+00  0.88000000000E+00 0. -1.
        -11    1    4    4    0    0 -0.18952011882E-01 -0.32974791782E-01 -0.46182190062E-01  0.59829519865E-01  0.51100000000E-03 0.  1.
         11    1    4    4    0    0 -0.14353054824E-02 -0.46165855201E-01 -0.50361860476E-01  0.68336845112E-01  0.51100000000E-03 0. -1.
</event>
<event>
 8    1  0.1078274E+005  0.1043930E+01  0.7957747E-01            NaN
         13   -1    0    0    0    0  0.00000000000E+00  0.00000000000E+00  0.74505805969E-08  0.10566000000E+00  0.10566000000E+00 0.  1.
     999900   -1    0    0    0    0 -0.00000000000E+00 -0.00000000000E+00 -0.74505805969E-08  0.93827000000E+00  0.93827000000E+00 0. -1.
     999902    2    1    2    0    0 -0.21926137291E-02 -0.14692863028E-01 -0.18559148451E-01  0.10201575418E+01  0.10198805225E+01 0.  0.
     999903    2    3    3    0    0  0.79642562326E-02  0.12616222274E+00  0.10885894169E-01  0.12841187863E+00  0.19767955320E-01 0.  0.
         14    1    1    2    0    0  0.21926137291E-02  0.14692863028E-01  0.18559148451E-01  0.23772458227E-01  0.00000000000E+00 0.  1.
     999901    1    3    3    0    0 -0.10156869962E-01 -0.14085508577E+00 -0.29445042620E-01  0.89174566314E+00  0.88000000000E+00 0. -1.
        -11    1    4    4    0    0 -0.13312315425E-02  0.41967313967E-01  0.12082989738E-01  0.43695393133E-01  0.51100000000E-03 0.  1.
         11    1    4    4    0    0  0.92954877751E-02  0.84194908774E-01 -0.11970955695E-02  0.84716485499E-01  0.51100000000E-03 0. -1.
</event>
<event>
 8    1  0.1078274E+005  0.1043930E+01  0.7957747E-01            NaN
         13   -1    0    0    0    0  0.00000000000E+00  0.00000000000E+00  0.74505805969E-08  0.10566000000E+00  0.10566000000E+00 0.  1.
     999900   -1    0    0    0    0 -0.00000000000E+00 -0.00000000000E+00 -0.74505805969E-08  0.93827000000E+00  0.93827000000E+00 0. -1.
     999902    2    1    2    0    0  0.18645081599E-02  0.18809304615E-01  0.15220707884E-01  0.10196619906E+01  0.10193731598E+01 0.  0.
     999903    2    3    3    0    0 -0.10808367925E+00  0.67994220322E-01 -0.19260597503E-01  0.13078814115E+00  0.20718868992E-01 0.  0.
         14    1    1    2    0    0 -0.18645081599E-02 -0.18809304615E-01 -0.15220707884E-01  0.24268009380E-01  0.00000000000E+00 0. -1.
     999901    1    3    3    0    0  0.10994818741E+00 -0.49184915706E-01  0.34481305386E-01  0.88887384947E+00  0.88000000000E+00 0. -1.
        -11    1    4    4    0    0 -0.45906101898E-01  0.19401177767E-01 -0.13107391960E-02  0.49857346985E-01  0.51100000000E-03 0.  1.
         11    1    4    4    0    0 -0.62177577353E-01  0.48593042554E-01 -0.17949858307E-01  0.80930794166E-01  0.51100000000E-03 0. -1.
</event>
<event>
 8    1  0.1078274E+005  0.1043930E+01  0.7957747E-01            NaN
         13   -1    0    0    0    0  0.00000000000E+00  0.00000000000E+00  0.74505805969E-08  0.10566000000E+00  0.10566000000E+00 0.  1.
     999900   -1    0    0    0    0 -0.00000000000E+00 -0.00000000000E+00 -0.74505805969E-08  0.93827000000E+00  0.93827000000E+00 0.  1.
     999902    2    1    2    0    0 -0.16758658247E-01  0.57967266602E-02 -0.16038838947E-01  0.10200197716E+01  0.10197394939E+01 0.  0.
     999903    2    3    3    0    0  0.44326358522E-02  0.74751251331E-01 -0.10700813724E+00  0.13239416888E+00  0.21681251827E-01 0.  0.
         14    1    1    2    0    0  0.16758658247E-01 -0.57967266602E-02  0.16038838947E-01  0.23910228376E-01  0.00000000000E+00 0.  1.
     999901    1    3    3    0    0 -0.21191294100E-01 -0.68954524671E-01  0.90969298295E-01  0.88762560275E+00  0.88000000000E+00 0. -1.
        -11    1    4    4    0    0 -0.31303902709E-02  0.37567857529E-01 -0.37350019537E-01  0.53070032438E-01  0.51100000000E-03 0.  1.
         11    1    4    4    0    0  0.75630261231E-02  0.37183393802E-01 -0.69658117704E-01  0.79324136440E-01  0.51100000000E-03 0. -1.
</event>
<event>
 8    1  0.1078274E+005  0.1043930E+01  0.7957747E-01            NaN
         13   -1    0    0    0    0  0.00000000000E+00  0.00000000000E+00  0.74505805969E-08  0.10566000000E+00  0.10566000000E+00 0. -1.
     999900   -1    0    0    0    0 -0.00000000000E+00 -0.00000000000E+00 -0.74505805969E-08  0.93827000000E+00  0.93827000000E+00 0. -1.
     999902    2    1    2    0    0  0.15283001266E-01 -0.13729279643E-01  0.11536029208E-01  0.10203685226E+01  0.10200964556E+01 0.  0.
     999903    2    3    3    0    0 -0.11273203071E+00  0.55846283128E-01  0.15124131997E-01  0.12838114499E+00  0.20631551867E-01 0.  0.
         14    1    1    2    0    0 -0.15283001266E-01  0.13729279643E-01 -0.11536029208E-01  0.23561477396E-01  0.00000000000E+00 0. -1.
     999901    1    3    3    0    0  0.12801503198E+00 -0.69575562771E-01 -0.35881027893E-02  0.89198737762E+00  0.88000000000E+00 0. -1.
        -11    1    4    4    0    0 -0.33406443453E-01  0.22826138379E-01 -0.29673433261E-02  0.40572026137E-01  0.51100000000E-03 0. -1.
         11    1    4    4    0    0 -0.79325587256E-01  0.33020144749E-01  0.18091475323E-01  0.87809118849E-01  0.51100000000E-03 0.  1.
</event>
<event>
 8    1  0.1078274E+005  0.1043930E+01  0.7957747E-01            NaN
         13   -1    0    0    0    0  0.00000000000E+00  0.00000000000E+00  0.74505805969E-08  0.10566000000E+00  0.10566000000E+00 0. -1.
     999900   -1    0    0    0    0 -0.00000000000E+00 -0.00000000000E+00 -0.74505805969E-08  0.93827000000E+00  0.93827000000E+00 0.  1.
     999902    2    1    2    0    0  0.11614255796E-01 -0.19862176763E-01  0.44037181862E-02  0.10205037383E+01  0.10202348211E+01 0.  0.
     999903    2    3    3    0    0 -0.10825168092E-01  0.12529678739E+00 -0.11274838892E-01  0.12819187030E+00  0.22126102772E-01 0.  0.
         14    1    1    2    0    0 -0.11614255796E-01  0.19862176763E-01 -0.44037181862E-02  0.23426261702E-01  0.00000000000E+00 0. -1.
     999901    1    3    3    0    0  0.22439423888E-01 -0.14515896416E+00  0.15678557078E-01  0.89231186800E+00  0.88000000000E+00 0.  1.
        -11    1    4    4    0    0  0.50057508374E-02  0.19398493038E-01 -0.62711536362E-02  0.20998751451E-01  0.51100000000E-03 0. -1.
         11    1    4    4    0    0 -0.15830918929E-01  0.10589829435E+00 -0.50036852557E-02  0.10719311885E+00  0.51100000000E-03 0.  1.
</event>
<event>
 8    1  0.1078274E+005  0.1043930E+01  0.7957747E-01            NaN
         13   -1    0    0    0    0  0.00000000000E+00  0.00000000000E+00  0.74505805969E-08  0.10566000000E+00  0.10566000000E+00 0. -1.
     999900   -1    0    0    0    0 -0.00000000000E+00 -0.00000000000E+00 -0.74505805969E-08  0.93827000000E+00  0.93827000000E+00 0.  1.
     999902    2    1    2    0    0  0.29217359412E-02 -0.26855337578E-01 -0.11607705676E-01  0.10145278822E+01  0.10141017401E+01 0.  0.
     999903    2    3    3    0    0 -0.29537317565E-01  0.92826490192E-02  0.11810072914E+00  0.12369466425E+00  0.19848602930E-01 0.  0.
         14    1    1    2    0    0 -0.29217359412E-02  0.26855337578E-01  0.11607705676E-01  0.29402117754E-01  0.00000000000E+00 0. -1.
     999901    1    3    3    0    0  0.32459053506E-01 -0.36137986598E-01 -0.12970843481E+00  0.89083321800E+00  0.88000000000E+00 0.  1.
        -11    1    4    4    0    0 -0.20249894749E-01  0.68295138782E-02  0.43419315625E-01  0.48396266256E-01  0.51100000000E-03 0. -1.
         11    1    4    4    0    0 -0.92874228157E-02  0.24531351410E-02  0.74681413514E-01  0.75298397991E-01  0.51100000000E-03 0.  1.
</event>
<event>
 8    1  0.1078274E+005  0.1043930E+01  0.7957747E-01            NaN
         13   -1    0    0    0    0  0.00000000000E+00  0.00000000000E+00  0.74505805969E-08  0.10566000000E+00  0.10566000000E+00 0. -1.
     999900   -1    0    0    0    0 -0.00000000000E+00 -0.00000000000E+00 -0.74505805969E-08  0.93827000000E+00  0.93827000000E+00 0.  1.
     999902    2    1    2    0    0 -0.14172920420E-01  0.11938054784E-01 -0.16163981779E-01  0.10193401010E+01  0.10190434625E+01 0.  0.
     999903    2    3    3    0    0 -0.53859511380E-01 -0.10871698873E+00 -0.41952764770E-01  0.12984714075E+00  0.19493970494E-01 0.  0.
         14    1    1    2    0    0  0.14172920420E-01 -0.11938054784E-01  0.16163981779E-01  0.24589898988E-01  0.00000000000E+00 0. -1.
     999901    1    3    3    0    0  0.39686590960E-01  0.12065504351E+00  0.25788782991E-01  0.88949296026E+00  0.88000000000E+00 0.  1.
        -11    1    4    4    0    0 -0.35464206832E-01 -0.55573863075E-01 -0.29599511464E-01  0.72267256923E-01  0.51100000000E-03 0. -1.
         11    1    4    4    0    0 -0.18395304548E-01 -0.53143125651E-01 -0.12353253306E-01  0.57579883828E-01  0.51100000000E-03 0.  1.
</event>
<event>
 8    1  0.1078274E+005  0.1043930E+01  0.7957747E-01            NaN
         13   -1    0    0    0    0  0.00000000000E+00  0.00000000000E+00  0.74505805969E-08  0.10566000000E+00  0.10566000000E+00 0.  1.
     999900   -1    0    0    0    0 -0.00000000000E+00 -0.00000000000E+00 -0.74505805969E-08  0.93827000000E+00  0.93827000000E+00 0.  1.
     999902    2    1    2    0    0 -0.15702291398E-01 -0.23195326793E-02  0.17254590752E-01  0.10204851053E+01  0.10202157551E+01 0.  0.
     999903    2    3    3    0    0 -0.78400079808E-01  0.73282860809E-01  0.76171023804E-01  0.13306306325E+00  0.19667326513E-01 0.  0.
         14    1    1    2    0    0  0.15702291398E-01  0.23195326793E-02 -0.17254590752E-01  0.23444894733E-01  0.00000000000E+00 0. -1.
     999901    1    3    3    0    0  0.62697788410E-01 -0.75602393489E-01 -0.58916433052E-01  0.88742204202E+00  0.88000000000E+00 0.  1.
        -11    1    4    4    0    0 -0.27763150225E-01  0.15286165799E-01  0.27599347470E-01  0.42029090842E-01  0.51100000000E-03 0.  1.
         11    1    4    4    0    0 -0.50636929583E-01  0.57996695010E-01  0.48571676334E-01  0.91033972409E-01  0.51100000000E-03 0. -1.
</event>
<event>
 8    1  0.1078274E+005  0.1043930E+01  0.7957747E-01            NaN
         13   -1    0    0    0    0  0.00000000000E+00  0.00000000000E+00  0.74505805969E-08  0.10566000000E+00  0.10566000000E+00 0.  1.
     999900   -1    0    0    0    0 -0.00000000000E+00 -0.00000000000E+00 -0.74505805969E-08  0.93827000000E+00  0.93827000000E+00 0.  1.
     999902    2    1    2    0    0  0.13339086763E-01 -0.18711115114E-01  0.68238368847E-02  0.10199591466E+01  0.10196774288E+01 0.  0.
     999903    2    3    3    0    0  0.14765514284E-01  0.33196663791E-02 -0.12714141005E+00  0.12954683903E+00  0.19707987110E-01 0.  0.
         14    1    1    2    0    0 -0.13339086763E-01  0.18711115114E-01 -0.68238368847E-02  0.23970853433E-01  0.00000000000E+00 0. -1.
     999901    1    3    3    0    0 -0.14264275210E-02 -0.22030781493E-01  0.13396524694E+00  0.89041230754E+00  0.88000000000E+00 0. -1.
        -11    1    4    4    0    0  0.14306324244E-01  0.55453884488E-02 -0.48517222158E-01  0.50888153959E-01  0.51100000000E-03 0.  1.
         11    1    4    4    0    0  0.45919003974E-03 -0.22257220696E-02 -0.78624187892E-01  0.78658685070E-01  0.51100000000E-03 0. -1.
</event>
<event>
 8    1  0.1078274E+005  0.1043930E+01  0.7957747E-01            NaN
         13   -1    0    0    0    0  0.00000000000E+00  0.00000000000E+00  0.74505805969E-08  0.10566000000E+00  0.10566000000E+00 0.  1.
     999900   -1    0    0    0    0 -0.00000000000E+00 -0.00000000000E+00 -0.74505805969E-08  0.93827000000E+00  0.93827000000E+00 0. -1.
     999902    2    1    2    0    0 -0.35073175710E-02 -0.21061045300E-01 -0.11219651577E-01  0.10198105164E+01  0.10195252522E+01 0.  0.
     999903    2    3    3    0    0 -0.12535671668E-01  0.74270890613E-01 -0.10376566362E+00  0.12979116074E+00  0.20127697395E-01 0.  0.
         14    1    1    2    0    0  0.35073175710E-02  0.21061045300E-01  0.11219651577E-01  0.24119483559E-01  0.00000000000E+00 0.  1.
     999901    1    3    3    0    0  0.90283540971E-02 -0.95331935913E-01  0.92546012043E-01  0.89001935570E+00  0.88000000000E+00 0.  1.
        -11    1    4    4    0    0 -0.17792994839E-01  0.59051593232E-01 -0.78576802821E-01  0.99891222794E-01  0.51100000000E-03 0. -1.
         11    1    4    4    0    0  0.52573231712E-02  0.15219297381E-01 -0.25188860798E-01  0.29899937943E-01  0.51100000000E-03 0.  1.
</event>
<event>
 8    1  0.1078274E+005  0.1043930E+01  0.7957747E-01            NaN
         13   -1    0    0    0    0  0.00000000000E+00  0.00000000000E+00  0.74505805969E-08  0.10566000000E+00  0.10566000000E+00 0.  1.
     999900   -1    0    0    0    0 -0.00000000000E+00 -0.00000000000E+00 -0.74505805969E-08  0.93827000000E+00  0.93827000000E+00 0. -1.
     999902    2    1    2    0    0 -0.22245418152E-01  0.40762046422E-02  0.57977511545E-02  0.10205828804E+01  0.10203157981E+01 0.  0.
     999903    2    3    3    0    0  0.17587778912E-01 -0.12020405604E+00 -0.40891267390E-01  0.12973377356E+00  0.20010277298E-01 0.  0.
         14    1    1    2    0    0  0.22245418152E-01 -0.40762046422E-02 -0.57977511545E-02  0.23347119554E-01  0.00000000000E+00 0. -1.
     999901    1    3    3    0    0 -0.39833197063E-01  0.12428026068E+00  0.46689018545E-01  0.89084910688E+00  0.88000000000E+00 0.  1.
        -11    1    4    4    0    0  0.19291268473E-02 -0.50318346921E-01 -0.82628703956E-02  0.51031301330E-01  0.51100000000E-03 0. -1.
         11    1    4    4    0    0  0.15658652064E-01 -0.69885709122E-01 -0.32628396995E-01  0.78702472231E-01  0.51100000000E-03 0.  1.
</event>
<event>
 8    1  0.1078274E+005  0.1043930E+01  0.7957747E-01            NaN
         13   -1    0    0    0    0  0.00000000000E+00  0.00000000000E+00  0.74505805969E-08  0.10566000000E+00  0.10566000000E+00 0.  1.
     999900   -1    0    0    0    0 -0.00000000000E+00 -0.00000000000E+00 -0.74505805969E-08  0.93827000000E+00  0.93827000000E+00 0. -1.
     999902    2    1    2    0    0 -0.24805783286E-01  0.30283584947E-02  0.26033999478E-02  0.10188048029E+01  0.10184949439E+01 0.  0.
     999903    2    3    3    0    0  0.33920150641E-01  0.29425452647E-01  0.11887551918E+00  0.12882460780E+00  0.21164986004E-01 0.  0.
         14    1    1    2    0    0  0.24805783286E-01 -0.30283584947E-02 -0.26033999478E-02  0.25125197131E-01  0.00000000000E+00 0. -1.
     999901    1    3    3    0    0 -0.58725933927E-01 -0.26397094153E-01 -0.11627211923E+00  0.88998019506E+00  0.88000000000E+00 0. -1.
        -11    1    4    4    0    0  0.12231521043E-01  0.30616107583E-02  0.54648675919E-01  0.56086740573E-01  0.51100000000E-03 0. -1.
         11    1    4    4    0    0  0.21688629598E-01  0.26363841889E-01  0.64226843262E-01  0.72737867232E-01  0.51100000000E-03 0.  1.
</event>
<event>
 8    1  0.1508197E+005  0.1043930E+01  0.7957747E-01            NaN
         13   -1    0    0    0    0  0.00000000000E+00  0.00000000000E+00  0.74505805969E-08  0.10566000000E+00  0.10566000000E+00 0. -1.
     999900   -1    0    0    0    0 -0.00000000000E+00 -0.00000000000E+00 -0.74505805969E-08  0.93827000000E+00  0.93827000000E+00 0.  1.
     999902    2    1    2    0    0 -0.20208669748E-01  0.21800459092E-02 -0.14138105486E-01  0.10191705784E+01  0.10188697850E+01 0.  0.
     999903    2    3    3    0    0  0.62179816840E-01 -0.77094662263E-01  0.76905588635E-01  0.12711604173E+00  0.20835112938E-01 0.  0.
         14    1    1    2    0    0  0.20208669748E-01 -0.21800459092E-02  0.14138105486E-01  0.24759421639E-01  0.00000000000E+00 0. -1.
     999901    1    3    3    0    0 -0.82388486588E-01  0.79274708173E-01 -0.91043694121E-01  0.89205453663E+00  0.88000000000E+00 0.  1.
        -11    1    4    4    0    0  0.23173384466E-01 -0.44835588434E-01  0.35306037409E-01  0.61595561012E-01  0.51100000000E-03 0.  1.
         11    1    4    4    0    0  0.39006432374E-01 -0.32259073829E-01  0.41599551226E-01  0.65520480722E-01  0.51100000000E-03 0. -1.
</event>
<event>
 8    1  0.1078274E+005  0.1043930E+01  0.7957747E-01            NaN
         13   -1    0    0    0    0  0.00000000000E+00  0.00000000000E+00  0.74505805969E-08  0.10566000000E+00  0.10566000000E+00 0.  1.
     999900   -1    0    0    0    0 -0.00000000000E+00 -0.00000000000E+00 -0.74505805969E-08  0.93827000000E+00  0.93827000000E+00 0. -1.
     999902    2    1    2    0    0 -0.13813923770E-01 -0.16260373177E-01  0.94468625785E-02  0.10205961739E+01  0.10203293992E+01 0.  0.
     999903    2    3    3    0    0 -0.74364432744E-01 -0.29508229823E-01  0.10470010337E+00  0.13328842027E+00  0.20072041483E-01 0.  0.
         14    1    1    2    0    0  0.13813923770E-01  0.16260373177E-01 -0.94468625785E-02  0.23333826055E-01  0.00000000000E+00 0. -1.
     999901    1    3    3    0    0  0.60550508974E-01  0.13247856646E-01 -0.95253240790E-01  0.88730775367E+00  0.88000000000E+00 0. -1.
        -11    1    4    4    0    0 -0.47252394349E-01 -0.23819624941E-01  0.54597129038E-01  0.76034669225E-01  0.51100000000E-03 0.  1.
         11    1    4    4    0    0 -0.27112038396E-01 -0.56886048819E-02  0.50102974330E-01  0.57253751049E-01  0.51100000000E-03 0. -1.
</event>
<event>
 8    1  0.1078274E+005  0.1043930E+01  0.7957747E-01            NaN
         13   -1    0    0    0    0  0.00000000000E+00  0.00000000000E+00  0.74505805969E-08  0.10566000000E+00  0.10566000000E+00 0. -1.
     999900   -1    0    0    0    0 -0.00000000000E+00 -0.00000000000E+00 -0.74505805969E-08  0.93827000000E+00  0.93827000000E+00 0.  1.
     999902    2    1    2    0    0  0.13172984892E-01  0.21621731945E-01  0.47925629594E-03  0.10186069569E+01  0.10182921370E+01 0.  0.
     999903    2    3    3    0    0 -0.11641342745E-01  0.94736523567E-01 -0.86871030567E-01  0.13091804959E+00  0.21964289181E-01 0.  0.
         14    1    1    2    0    0 -0.13172984892E-01 -0.21621731945E-01 -0.47925629594E-03  0.25323043060E-01  0.00000000000E+00 0.  1.
     999901    1    3    3    0    0  0.24814327637E-01 -0.73114791623E-01  0.87350286863E-01  0.88768890735E+00  0.88000000000E+00 0. -1.
        -11    1    4    4    0    0  0.52504143860E-02  0.45749836197E-01 -0.43366318360E-01  0.63257513802E-01  0.51100000000E-03 0.  1.
         11    1    4    4    0    0 -0.16891757131E-01  0.48986687370E-01 -0.43504712207E-01  0.67660535792E-01  0.51100000000E-03 0. -1.
</event>
<event>
 8    1  0.1078274E+005  0.1043930E+01  0.7957747E-01            NaN
         13   -1    0    0    0    0  0.00000000000E+00  0.00000000000E+00  0.74505805969E-08  0.10566000000E+00  0.10566000000E+00 0.  1.
     999900   -1    0    0    0    0 -0.00000000000E+00 -0.00000000000E+00 -0.74505805969E-08  0.93827000000E+00  0.93827000000E+00 0. -1.
     999902    2    1    2    0    0 -0.23506475315E-01 -0.19006571857E-02  0.53158308636E-02  0.10197551176E+01  0.10194685258E+01 0.  0.
     999903    2    3    3    0    0  0.45783243293E-01  0.11256977261E+00  0.38447863849E-01  0.12902380236E+00  0.20021095624E-01 0.  0.
         14    1    1    2    0    0  0.23506475315E-01  0.19006571857E-02 -0.53158308636E-02  0.24174882363E-01  0.00000000000E+00 0. -1.
     999901    1    3    3    0    0 -0.69289718608E-01 -0.11447042979E+00 -0.33132032985E-01  0.89073131528E+00  0.88000000000E+00 0. -1.
        -11    1    4    4    0    0  0.18224695763E-01  0.70680372838E-01  0.21543523223E-01  0.76106761552E-01  0.51100000000E-03 0. -1.
         11    1    4    4    0    0  0.27558547529E-01  0.41889399771E-01  0.16904340626E-01  0.52917040810E-01  0.51100000000E-03 0.  1.
</event>
<event>
 8    1  0.1078274E+005  0.1043930E+01  0.7957747E-01            NaN
         13   -1    0    0    0    0  0.00000000000E+00  0.00000000000E+00  0.74505805969E-08  0.10566000000E+00  0.10566000000E+00 0.  1.
     999900   -1    0    0    0    0 -0.00000000000E+00 -0.00000000000E+00 -0.74505805969E-08  0.93827000000E+00  0.93827000000E+00 0.  1.
     999902    2    1    2    0    0  0.73431681853E-03  0.11152985169E-01 -0.21540500672E-01  0.10196622958E+01  0.10193734723E+01 0.  0.
     999903    2    3    3    0    0  0.28442775797E-01  0.92838430349E-01 -0.88363487391E-01  0.13292356187E+00  0.20799080522E-01 0.  0.
         14    1    1    2    0    0 -0.73431681853E-03 -0.11152985169E-01  0.21540500672E-01  0.24267704229E-01  0.00000000000E+00 0.  1.
     999901    1    3    3    0    0 -0.27708458978E-01 -0.81685445180E-01  0.66822986719E-01  0.88673873390E+00  0.88000000000E+00 0. -1.
        -11    1    4    4    0    0  0.68137963307E-02  0.24760340427E-01 -0.36570729172E-01  0.44689838126E-01  0.51100000000E-03 0. -1.
         11    1    4    4    0    0  0.21628979466E-01  0.68078089922E-01 -0.51792758218E-01  0.88233723740E-01  0.51100000000E-03 0.  1.
</event>
<event>
 8    1  0.1078274E+005  0.1043930E+01  0.7957747E-01            NaN
         13   -1    0    0    0    0  0.00000000000E+00  0.00000000000E+00  0.74505805969E-08  0.10566000000E+00  0.10566000000E+00 0. -1.
     999900   -1    0    0    0    0 -0.00000000000E+00 -0.00000000000E+00 -0.74505805969E-08  0.93827000000E+00  0.93827000000E+00 0.  1.
     999902    2    1    2    0    0 -0.44972181500E-02  0.85268861475E-02  0.21507608122E-01  0.10203607411E+01  0.10200884922E+01 0.  0.
     999903    2    3    3    0    0 -0.72074441634E-02  0.44336581024E-01 -0.11897603988E+00  0.12849453199E+00  0.18381159368E-01 0.  0.
         14    1    1    2    0    0  0.44972181500E-02 -0.85268861475E-02 -0.21507608122E-01  0.23569258910E-01  0.00000000000E+00 0.  1.
     999901    1    3    3    0    0  0.27102260134E-02 -0.35809694877E-01  0.14048364800E+00  0.89186620910E+00  0.88000000000E+00 0. -1.
        -11    1    4    4    0    0 -0.13395631481E-01  0.28669855150E-01 -0.79853049579E-01  0.85896299019E-01  0.51100000000E-03 0.  1.
         11    1    4    4    0    0  0.61881873173E-02  0.15666725874E-01 -0.39122990296E-01  0.42598232975E-01  0.51100000000E-03 0. -1.
</event>
<event>
 8    1  0.1078274E+005  0.1043930E+01  0.7957747E-01            NaN
         13   -1    0    0    0    0  0.00000000000E+00  0.00000000000E+00  0.74505805969E-08  0.10566000000E+00  0.10566000000E+00 0. -1.
     999900   -1    0    0    0    0 -0.00000000000E+00 -0.00000000000E+00 -0.74505805969E-08  0.93827000000E+00  0.93827000000E+00 0.  1.
     999902    2    1    2    0    0 -0.19082147547E-01 -0.45068128516E-02  0.12598554977E-01  0.10206241358E+01  0.10203580074E+01 0.  0.
     999903    2    3    3    0    0 -0.25904230630E-01 -0.12033749651E+00 -0.40653604489E-01  0.13141151751E+00  0.21543656740E-01 0.  0.
         14    1    1    2    0    0  0.19082147547E-01  0.45068128516E-02 -0.12598554977E-01  0.23305864168E-01  0.00000000000E+00 0.  1.
     999901    1    3    3    0    0  0.68220830834E-02  0.11583068366E+00  0.53252159466E-01  0.88921261832E+00  0.88000000000E+00 0. -1.
        -11    1    4    4    0    0  0.23771007697E-02 -0.34381279716E-01 -0.10582366766E-01  0.36055105192E-01  0.51100000000E-03 0. -1.
         11    1    4    4    0    0 -0.28281331400E-01 -0.85956216794E-01 -0.30071237722E-01  0.95356412319E-01  0.51100000000E-03 0.  1.
</event>
<event>
 8    1  0.1078274E+005  0.1043930E+01  0.7957747E-01            NaN
         13   -1    0    0    0    0  0.00000000000E+00  0.00000000000E+00  0.74505805969E-08  0.10566000000E+00  0.10566000000E+00 0. -1.
     999900   -1    0    0    0    0 -0.00000000000E+00 -0.00000000000E+00 -0.74505805969E-08  0.93827000000E+00  0.93827000000E+00 0. -1.
     999902    2    1    2    0    0 -0.23136045208E-01 -0.53028047154E-02 -0.42795040066E-02  0.10198113251E+01  0.10195260802E+01 0.  0.
     999903    2    3    3    0    0 -0.84704331429E-03  0.84270519976E-02  0.12655891970E+00  0.12975289908E+00  0.27329873317E-01 0.  0.
         14    1    1    2    0    0  0.23136045208E-01  0.53028047154E-02  0.42795040066E-02  0.24118674927E-01  0.00000000000E+00 0. -1.
     999901    1    3    3    0    0 -0.22289001894E-01 -0.13729856713E-01 -0.13083842371E+00  0.89005842600E+00  0.88000000000E+00 0. -1.
        -11    1    4    4    0    0 -0.83723152293E-02 -0.70587462101E-02  0.38773053499E-01  0.40293080783E-01  0.51100000000E-03 0.  1.
         11    1    4    4    0    0  0.75252719150E-02  0.15485798208E-01  0.87785866199E-01  0.89459818292E-01  0.51100000000E-03 0. -1.
</event>
<event>
 8    1  0.1078274E+005  0.1043930E+01  0.7957747E-01            NaN
         13   -1    0    0    0    0  0.00000000000E+00  0.00000000000E+00  0.74505805969E-08  0.10566000000E+00  0.10566000000E+00 0.  1.
     999900   -1    0    0    0    0 -0.00000000000E+00 -0.00000000000E+00 -0.74505805969E-08  0.93827000000E+00  0.93827000000E+00 0. -1.
     999902    2    1    2    0    0 -0.42765001084E-02  0.19712513649E-01  0.92242083053E-02  0.10217498813E+01  0.10215091102E+01 0.  0.
     999903    2    3    3    0    0 -0.76928499686E-03  0.67498935072E-01 -0.11190970315E+00  0.13216050009E+00  0.19644797969E-01 0.  0.
         14    1    1    2    0    0  0.42765001084E-02 -0.19712513649E-01 -0.92242083053E-02  0.22180118719E-01  0.00000000000E+00 0. -1.
     999901    1    3    3    0    0 -0.35072151116E-02 -0.47786421423E-01  0.12113391146E+00  0.88958938120E+00  0.88000000000E+00 0.  1.
        -11    1    4    4    0    0 -0.94668585741E-02  0.26375158417E-01 -0.50187063800E-01  0.57482805139E-01  0.51100000000E-03 0.  1.
         11    1    4    4    0    0  0.86975735773E-02  0.41123776655E-01 -0.61722639354E-01  0.74677694946E-01  0.51100000000E-03 0. -1.
</event>
<event>
 8    1  0.1078274E+005  0.1043930E+01  0.7957747E-01            NaN
         13   -1    0    0    0    0  0.00000000000E+00  0.00000000000E+00  0.74505805969E-08  0.10566000000E+00  0.10566000000E+00 0. -1.
     999900   -1    0    0    0    0 -0.00000000000E+00 -0.00000000000E+00 -0.74505805969E-08  0.93827000000E+00  0.93827000000E+00 0. -1.
     999902    2    1    2    0    0 -0.61484749459E-02 -0.21891070089E-01  0.10542473006E-01  0.10188667514E+01  0.10185584375E+01 0.  0.
     999903    2    3    3    0    0  0.17547547223E-01  0.98000088614E-01  0.77864199813E-01  0.12787426753E+00  0.19418056054E-01 0.  0.
         14    1    1    2    0    0  0.61484749459E-02  0.21891070089E-01 -0.10542473006E-01  0.25063248610E-01  0.00000000000E+00 0.  1.
     999901    1    3    3    0    0 -0.23696022169E-01 -0.11989115870E+00 -0.67321726806E-01  0.89099248386E+00  0.88000000000E+00 0. -1.
        -11    1    4    4    0    0  0.18679285993E-02  0.51546316624E-01  0.31788981803E-01  0.60591355818E-01  0.51100000000E-03 0. -1.
         11    1    4    4    0    0  0.15679618624E-01  0.46453771990E-01  0.46075218010E-01  0.67282911708E-01  0.51100000000E-03 0.  1.
</event>
<event>
 8    1  0.1078274E+005  0.1043930E+01  0.7957747E-01            NaN
         13   -1    0    0    0    0  0.00000000000E+00  0.00000000000E+00  0.74505805969E-08  0.10566000000E+00  0.10566000000E+00 0.  1.
     999900   -1    0    0    0    0 -0.00000000000E+00 -0.00000000000E+00 -0.74505805969E-08  0.93827000000E+00  0.93827000000E+00 0. -1.
     999902    2    1    2    0    0 -0.14855603215E-01  0.40463647252E-02 -0.17359464274E-01  0.10207262715E+01  0.10204624973E+01 0.  0.
     999903    2    3    3    0    0  0.22290281602E-03 -0.55939223831E-01 -0.11857786501E+00  0.13276749050E+00  0.20910524017E-01 0.  0.
         14    1    1    2    0    0  0.14855603215E-01 -0.40463647252E-02  0.17359464274E-01  0.23203728456E-01  0.00000000000E+00 0. -1.
     999901    1    3    3    0    0 -0.15078506031E-01  0.59985588556E-01  0.10121840074E+00  0.88795878104E+00  0.88000000000E+00 0.  1.
        -11    1    4    4    0    0  0.27043627500E-02 -0.46231455224E-01 -0.75799993762E-01  0.88828830935E-01  0.51100000000E-03 0.  1.
         11    1    4    4    0    0 -0.24814599340E-02 -0.97077686067E-02 -0.42777871253E-01  0.43938659568E-01  0.51100000000E-03 0. -1.
</event>
<event>
 8    1  0.1078274E+005  0.1043930E+01  0.7957747E-01            NaN
         13   -1    0    0    0    0  0.00000000000E+00  0.00000000000E+00  0.74505805969E-08  0.10566000000E+00  0.10566000000E+00 0.  1.
     999900   -1    0    0    0    0 -0.00000000000E+00 -0.00000000000E+00 -0.74505805969E-08  0.93827000000E+00  0.93827000000E+00 0. -1.
     999902    2    1    2    0    0  0.90591365279E-02  0.10454042075E-01 -0.19309832952E-01  0.10201765876E+01  0.10199000173E+01 0.  0.
     999903    2    3    3    0    0  0.97882189799E-01 -0.81771358565E-01  0.17165911368E-01  0.13016223986E+00  0.19495179194E-01 0.  0.
         14    1    1    2    0    0 -0.90591365279E-02 -0.10454042075E-01  0.19309832952E-01  0.23753412365E-01  0.00000000000E+00 0.  1.
     999901    1    3    3    0    0 -0.88823053271E-01  0.92225400640E-01 -0.36475744320E-01  0.89001434777E+00  0.88000000000E+00 0.  1.
        -11    1    4    4    0    0  0.49668925514E-01 -0.54052709671E-01  0.98626595733E-02  0.74069094495E-01  0.51100000000E-03 0.  1.
         11    1    4    4    0    0  0.48213264285E-01 -0.27718648894E-01  0.73032517947E-02  0.56093145368E-01  0.51100000000E-03 0. -1.
</event>
<event>
 8    1  0.1078274E+005  0.1043930E+01  0.7957747E-01            NaN
         13   -1    0    0    0    0  0.00000000000E+00  0.00000000000E+00  0.74505805969E-08  0.10566000000E+00  0.10566000000E+00 0.  1.
     999900   -1    0    0    0    0 -0.00000000000E+00 -0.00000000000E+00 -0.74505805969E-08  0.93827000000E+00  0.93827000000E+00 0. -1.
     999902    2    1    2    0    0  0.72828573136E-02  0.19503640264E-01 -0.18485416343E-01  0.10160886169E+01  0.10157071108E+01 0.  0.
     999903    2    3    3    0    0  0.88696533670E-01  0.89134375511E-01  0.19567630344E-01  0.12877544766E+00  0.19703090613E-01 0.  0.
         14    1    1    2    0    0 -0.72828573136E-02 -0.19503640264E-01  0.18485416343E-01  0.27841383076E-01  0.00000000000E+00 0.  1.
     999901    1    3    3    0    0 -0.81413676356E-01 -0.69630735246E-01 -0.38053046687E-01  0.88731316926E+00  0.88000000000E+00 0. -1.
        -11    1    4    4    0    0  0.29486417370E-01  0.29651691590E-01 -0.28059191656E-02  0.41914268774E-01  0.51100000000E-03 0.  1.
         11    1    4    4    0    0  0.59210116299E-01  0.59482683921E-01  0.22373549509E-01  0.86861178885E-01  0.51100000000E-03 0. -1.
</event>
<event>
 8    1  0.1078274E+005  0.1043930E+01  0.7957747E-01            NaN
         13   -1    0    0    0    0  0.00000000000E+00  0.00000000000E+00  0.74505805969E-08  0.10566000000E+00  0.10566000000E+00 0. -1.
     999900   -1    0    0    0    0 -0.00000000000E+00 -0.00000000000E+00 -0.74505805969E-08  0.93827000000E+00  0.93827000000E+00 0. -1.
     999902    2    1    2    0    0 -0.19682915741E-01  0.27217379591E-02  0.72412764366E-02  0.10227814513E+01  0.10225627785E+01 0.  0.
     999903    2    3    3    0    0  0.33521444072E-01 -0.17088557384E-01 -0.12414056262E+00  0.13121858789E+00  0.19792233659E-01 0.  0.
         14    1    1    2    0    0  0.19682915741E-01 -0.27217379591E-02 -0.72412764366E-02  0.21148548745E-01  0.00000000000E+00 0.  1.
     999901    1    3    3    0    0 -0.53204359813E-01  0.19810295343E-01  0.13138183906E+00  0.89156286337E+00  0.88000000000E+00 0.  1.
        -11    1    4    4    0    0  0.23916253895E-01 -0.20663191223E-01 -0.82945269388E-01  0.88764483363E-01  0.51100000000E-03 0. -1.
         11    1    4    4    0    0  0.96051901761E-02  0.35746338385E-02 -0.41195293232E-01  0.42454104523E-01  0.51100000000E-03 0.  1.
</event>
<event>
 8    1  0.1078274E+005  0.1043930E+01  0.7957747E-01            NaN
         13   -1    0    0    0    0  0.00000000000E+00  0.00000000000E+00  0.74505805969E-08  0.10566000000E+00  0.10566000000E+00 0.  1.
     999900   -1    0    0    0    0 -0.00000000000E+00 -0.00000000000E+00 -0.74505805969E-08  0.93827000000E+00  0.93827000000E+00 0.  1.
     999902    2    1    2    0    0  0.33196149886E-02  0.22589988426E-01  0.48696229658E-02  0.10205838944E+01  0.10203168355E+01 0.  0.
     999903    2    3    3    0    0  0.30367642080E-02 -0.11600407889E+00  0.51436693152E-01  0.12852061884E+00  0.20140700340E-01 0.  0.
         14    1    1    2    0    0 -0.33196149886E-02 -0.22589988426E-01 -0.48696229658E-02  0.23346105641E-01  0.00000000000E+00 0. -1.
     999901    1    3    3    0    0  0.28285078059E-03  0.13859406731E+00 -0.46567070187E-01  0.89206327552E+00  0.88000000000E+00 0. -1.
        -11    1    4    4    0    0 -0.64281609651E-02 -0.66386599144E-01  0.23008990461E-01  0.70556194359E-01  0.51100000000E-03 0.  1.
         11    1    4    4    0    0  0.94649251730E-02 -0.49617479742E-01  0.28427702691E-01  0.57964424484E-01  0.51100000000E-03 0. -1.
</event>
<event>
 8    1  0.1078274E+005  0.1043930E+01  0.7957747E-01            NaN
         13   -1    0    0    0    0  0.00000000000E+00  0.00000000000E+00  0.74505805969E-08  0.10566000000E+00  0.10566000000E+00 0. -1.
     999900   -1    0    0    0    0 -0.00000000000E+00 -0.00000000000E+00 -0.74505805969E-08  0.93827000000E+00  0.93827000000E+00 0. -1.
     999902    2    1    2    0    0 -0.13735317983E-01 -0.19743799552E-01 -0.49371133272E-02  0.10193769621E+01  0.10190812231E+01 0.  0.
     999903    2    3    3    0    0 -0.78915158673E-02 -0.50887562639E-01  0.11829920299E+00  0.13022496519E+00  0.17664090034E-01 0.  0.
         14    1    1    2    0    0  0.13735317983E-01  0.19743799552E-01  0.49371133272E-02  0.24553037874E-01  0.00000000000E+00 0.  1.
     999901    1    3    3    0    0 -0.58438021159E-02  0.31143763086E-01 -0.12323631631E+00  0.88915199694E+00  0.88000000000E+00 0. -1.
        -11    1    4    4    0    0  0.24048654437E-02 -0.45817542893E-02  0.25256933708E-01  0.25786618070E-01  0.51100000000E-03 0. -1.
         11    1    4    4    0    0 -0.10296381311E-01 -0.46305808349E-01  0.93042269278E-01  0.10443834712E+00  0.51100000000E-03 0.  1.
</event>
<event>
 8    1  0.1078274E+005  0.1043930E+01  0.7957747E-01            NaN
         13   -1    0    0    0    0  0.00000000000E+00  0.00000000000E+00  0.74505805969E-08  0.10566000000E+00  0.10566000000E+00 0.  1.
     999900   -1    0    0    0    0 -0.00000000000E+00 -0.00000000000E+00 -0.74505805969E-08  0.93827000000E+00  0.93827000000E+00 0. -1.
     999902    2    1    2    0    0  0.15507727696E-01  0.10365357414E-01 -0.70472341850E-02  0.10239902467E+01  0.10237960888E+01 0.  0.
     999903    2    3    3    0    0  0.91308092228E-01 -0.76168350038E-01  0.58712210490E-01  0.13406997927E+00  0.19719290743E-01 0.  0.
         14    1    1    2    0    0 -0.15507727696E-01 -0.10365357414E-01  0.70472341850E-02  0.19939753315E-01  0.00000000000E+00 0. -1.
     999901    1    3    3    0    0 -0.75800364532E-01  0.86533707452E-01 -0.65759444675E-01  0.88992026741E+00  0.88000000000E+00 0.  1.
        -11    1    4    4    0    0  0.52719503391E-01 -0.56267996073E-01  0.37236631584E-01  0.85628624142E-01  0.51100000000E-03 0. -1.
         11    1    4    4    0    0  0.38588588837E-01 -0.19900353966E-01  0.21475578907E-01  0.48441355130E-01  0.51100000000E-03 0.  1.
</event>
<event>
 8    1  0.1078274E+005  0.1043930E+01  0.7957747E-01            NaN
         13   -1    0    0    0    0  0.00000000000E+00  0.00000000000E+00  0.74505805969E-08  0.10566000000E+00  0.10566000000E+00 0. -1.
     999900   -1    0    0    0    0 -0.00000000000E+00 -0.00000000000E+00 -0.74505805969E-08  0.93827000000E+00  0.93827000000E+00 0.  1.
     999902    2    1    2    0    0  0.20514358386E-01 -0.96318974849E-03  0.11751884636E-01  0.10202683554E+01  0.10199939429E+01 0.  0.
     999903    2    3    3    0    0 -0.49316501032E-01 -0.53641133911E-01 -0.10398646726E+00  0.12839017936E+00  0.19009583415E-01 0.  0.
         14    1    1    2    0    0 -0.20514358386E-01  0.96318974849E-03 -0.11751884636E-01  0.23661644638E-01  0.00000000000E+00 0.  1.
     999901    1    3    3    0    0  0.69830859417E-01  0.52677944162E-01  0.11573835190E+00  0.89187817600E+00  0.88000000000E+00 0. -1.
        -11    1    4    4    0    0 -0.28150339007E-01 -0.33894223780E-01 -0.46716004213E-01  0.64217646815E-01  0.51100000000E-03 0. -1.
         11    1    4    4    0    0 -0.21166162025E-01 -0.19746910131E-01 -0.57270463048E-01  0.64172532545E-01  0.51100000000E-03 0.  1.
</event>
<event>
 8    1  0.1078274E+005  0.1043930E+01  0.7957747E-01            NaN
         13   -1    0    0    0    0  0.00000000000E+00  0.00000000000E+00  0.74505805969E-08  0.10566000000E+00  0.10566000000E+00 0. -1.
     999900   -1    0    0    0    0 -0.00000000000E+00 -0.00000000000E+00 -0.74505805969E-08  0.93827000000E+00  0.93827000000E+00 0. -1.
     999902    2    1    2    0    0  0.29746352820E-01 -0.65348251056E-02  0.14856367613E-01  0.10100439984E+01  0.10094754170E+01 0.  0.
     999903    2    3    3    0    0 -0.32128002534E-01 -0.11687436042E-01 -0.11199086063E+00  0.11878354009E+00  0.19969271947E-01 0.  0.
         14    1    1    2    0    0 -0.29746352820E-01  0.65348251056E-02 -0.14856367613E-01  0.33886001592E-01  0.00000000000E+00 0.  1.
     999901    1    3    3    0    0  0.61874355354E-01  0.51526109365E-02  0.12684722825E+00  0.89126045832E+00  0.88000000000E+00 0.  1.
        -11    1    4    4    0    0 -0.21266749266E-01 -0.16110110726E-01 -0.63240180923E-01  0.68639579662E-01  0.51100000000E-03 0. -1.
         11    1    4    4    0    0 -0.10861253269E-01  0.44226746835E-02 -0.48750679712E-01  0.50143960427E-01  0.51100000000E-03 0.  1.
</event>
<event>
 8    1  0.1078274E+005  0.1043930E+01  0.7957747E-01            NaN
         13   -1    0    0    0    0  0.00000000000E+00  0.00000000000E+00  0.74505805969E-08  0.10566000000E+00  0.10566000000E+00 0.  1.
     999900   -1    0    0    0    0 -0.00000000000E+00 -0.00000000000E+00 -0.74505805969E-08  0.93827000000E+00  0.93827000000E+00 0.  1.
     999902    2    1    2    0    0 -0.15207051593E-01 -0.18395797554E-01 -0.29295064736E-02  0.10198833413E+01  0.10195998176E+01 0.  0.
     999903    2    3    3    0    0  0.23218720652E-01  0.12021836815E+00  0.29672376984E-01  0.12760910672E+00  0.20299486055E-01 0.  0.
         14    1    1    2    0    0  0.15207051593E-01  0.18395797554E-01  0.29295064736E-02  0.24046658686E-01  0.00000000000E+00 0. -1.
     999901    1    3    3    0    0 -0.38425772245E-01 -0.13861416570E+00 -0.32601883457E-01  0.89227423459E+00  0.88000000000E+00 0.  1.
        -11    1    4    4    0    0  0.20837495214E-01  0.63700270570E-01  0.21877912500E-01  0.70504112319E-01  0.51100000000E-03 0.  1.
         11    1    4    4    0    0  0.23812254384E-02  0.56518097579E-01  0.77944644835E-02  0.57104994406E-01  0.51100000000E-03 0. -1.
</event>
<event>
 8    1  0.1078274E+005  0.1043930E+01  0.7957747E-01            NaN
         13   -1    0    0    0    0  0.00000000000E+00  0.00000000000E+00  0.74505805969E-08  0.10566000000E+00  0.10566000000E+00 0.  1.
     999900   -1    0    0    0    0 -0.00000000000E+00 -0.00000000000E+00 -0.74505805969E-08  0.93827000000E+00  0.93827000000E+00 0.  1.
     999902    2    1    2    0    0 -0.20445019646E-01 -0.36833912239E-03 -0.12066604570E-01  0.10201868442E+01  0.10199105155E+01 0.  0.
     999903    2    3    3    0    0 -0.53059066681E-01 -0.54074325076E-01  0.10420345404E+00  0.13031790130E+00  0.19623923558E-01 0.  0.
         14    1    1    2    0    0  0.20445019646E-01  0.36833912239E-03  0.12066604570E-01  0.23743155811E-01  0.00000000000E+00 0. -1.
     999901    1    3    3    0    0  0.32614047036E-01  0.53705985954E-01 -0.11627005861E+00  0.88986894289E+00  0.88000000000E+00 0. -1.
        -11    1    4    4    0    0 -0.54499518036E-01 -0.50682846561E-01  0.10060557291E+00  0.12514268186E+00  0.51100000000E-03 0.  1.
         11    1    4    4    0    0  0.14404513547E-02 -0.33914785146E-02  0.35978811319E-02  0.51752194408E-02  0.51100000000E-03 0. -1.
</event>
<event>
 8    1  0.1078274E+005  0.1043930E+01  0.7957747E-01            NaN
         13   -1    0    0    0    0  0.00000000000E+00  0.00000000000E+00  0.74505805969E-08  0.10566000000E+00  0.10566000000E+00 0.  1.
     999900   -1    0    0    0    0 -0.00000000000E+00 -0.00000000000E+00 -0.74505805969E-08  0.93827000000E+00  0.93827000000E+00 0. -1.
     999902    2    1    2    0    0 -0.17567743775E-01  0.15621487186E-01 -0.51240861936E-02  0.10198693944E+01  0.10195855378E+01 0.  0.
     999903    2    3    3    0    0 -0.27844711174E-01  0.12517957950E+00 -0.27523671684E-01  0.13273336587E+00  0.20379863795E-01 0.  0.
         14    1    1    2    0    0  0.17567743775E-01 -0.15621487186E-01  0.51240861936E-02  0.24060605615E-01  0.00000000000E+00 0.  1.
     999901    1    3    3    0    0  0.10276967399E-01 -0.10955809232E+00  0.22399585490E-01  0.88713602851E+00  0.88000000000E+00 0.  1.
        -11    1    4    4    0    0 -0.22111769664E-01  0.12018939149E+00 -0.26493011675E-01  0.12504623534E+00  0.51100000000E-03 0. -1.
         11    1    4    4    0    0 -0.57329415099E-02  0.49901880112E-02 -0.10306600090E-02  0.76871305307E-02  0.51100000000E-03 0.  1.
</event>
<event>
 8    1  0.1078274E+005  0.1043930E+01  0.7957747E-01            NaN
         13   -1    0    0    0    0  0.00000000000E+00  0.00000000000E+00  0.74505805969E-08  0.10566000000E+00  0.10566000000E+00 0. -1.
     999900   -1    0    0    0    0 -0.00000000000E+00 -0.00000000000E+00 -0.74505805969E-08  0.93827000000E+00  0.93827000000E+00 0. -1.
     999902    2    1    2    0    0 -0.75718302345E-02 -0.20714277669E-01 -0.10032132395E-01  0.10197007286E+01  0.10194128302E+01 0.  0.
     999903    2    3    3    0    0 -0.43592976081E-01 -0.11190122680E+00 -0.53895734571E-01  0.13317007586E+00  0.20181347235E-01 0.  0.
         14    1    1    2    0    0  0.75718302345E-02  0.20714277669E-01  0.10032132395E-01  0.24229271406E-01  0.00000000000E+00 0.  1.
     999901    1    3    3    0    0  0.36021145847E-01  0.91186949133E-01  0.43863602177E-01  0.88653065273E+00  0.88000000000E+00 0.  1.
        -11    1    4    4    0    0 -0.36676677569E-02 -0.25833128932E-01 -0.18116735732E-01  0.31769160703E-01  0.51100000000E-03 0. -1.
         11    1    4    4    0    0 -0.39925308324E-01 -0.86068097871E-01 -0.35778998839E-01  0.10140091516E+00  0.51100000000E-03 0.  1.
</event>
<event>
 8    1  0.1078274E+005  0.1043930E+01  0.7957747E-01            NaN
         13   -1    0    0    0    0  0.00000000000E+00  0.00000000000E+00  0.74505805969E-08  0.10566000000E+00  0.10566000000E+00 0. -1.
     999900   -1    0    0    0    0 -0.00000000000E+00 -0.00000000000E+00 -0.74505805969E-08  0.93827000000E+00  0.93827000000E+00 0. -1.
     999902    2    1    2    0    0  0.20567292917E-01  0.11948632522E-01  0.44437943557E-03  0.10201396484E+01  0.10198622070E+01 0.  0.
     999903    2    3    3    0    0 -0.54018805768E-01 -0.11259783284E+00 -0.15563087148E-01  0.12810201065E+00  0.23908410943E-01 0.  0.
         14    1    1    2    0    0 -0.20567292917E-01 -0.11948632522E-01 -0.44437943557E-03  0.23790351619E-01  0.00000000000E+00 0.  1.
     999901    1    3    3    0    0  0.74586098685E-01  0.12454646536E+00  0.16007466584E-01  0.89203763774E+00  0.88000000000E+00 0.  1.
        -11    1    4    4    0    0 -0.12935167682E-01 -0.15541187603E-01  0.47275021292E-02  0.20771554406E-01  0.51100000000E-03 0.  1.
         11    1    4    4    0    0 -0.41083638086E-01 -0.97056645233E-01 -0.20290589277E-01  0.10733045624E+00  0.51100000000E-03 0. -1.
</event>
<event>
 8    1  0.1078274E+005  0.1043930E+01  0.7957747E-01            NaN
         13   -1    0    0    0    0  0.00000000000E+00  0.00000000000E+00  0.74505805969E-08  0.10566000000E+00  0.10566000000E+00 0. -1.
     999900   -1    0    0    0    0 -0.00000000000E+00 -0.00000000000E+00 -0.74505805969E-08  0.93827000000E+00  0.93827000000E+00 0.  1.
     999902    2    1    2    0    0  0.64643178315E-02 -0.24101181978E-02 -0.23087505791E-01  0.10198337555E+01  0.10195490473E+01 0.  0.
     999903    2    3    3    0    0 -0.11619843837E+00 -0.33847233425E-01 -0.44390152733E-01  0.13051477633E+00  0.20393844390E-01 0.  0.
         14    1    1    2    0    0 -0.64643178315E-02  0.24101181978E-02  0.23087505791E-01  0.24096244487E-01  0.00000000000E+00 0. -1.
     999901    1    3    3    0    0  0.12266275620E+00  0.31437115227E-01  0.21302646943E-01  0.88931897919E+00  0.88000000000E+00 0. -1.
        -11    1    4    4    0    0 -0.12138306850E-01 -0.10047853853E-01 -0.31502746764E-02  0.16077413093E-01  0.51100000000E-03 0.  1.
         11    1    4    4    0    0 -0.10406013152E+00 -0.23799379572E-01 -0.41239878057E-01  0.11443736323E+00  0.51100000000E-03 0. -1.
</event>
<event>
 8    1  0.1078274E+005  0.1043930E+01  0.7957747E-01            NaN
         13   -1    0    0    0    0  0.00000000000E+00  0.00000000000E+00  0.74505805969E-08  0.10566000000E+00  0.10566000000E+00 0. -1.
     999900   -1    0    0    0    0 -0.00000000000E+00 -0.00000000000E+00 -0.74505805969E-08  0.93827000000E+00  0.93827000000E+00 0. -1.
     999902    2    1    2    0    0  0.18061421154E-01  0.11219125788E-01 -0.12363908768E-01  0.10193342695E+01  0.10190374886E+01 0.  0.
     999903    2    3    3    0    0  0.16382700767E-01 -0.69535275743E-01  0.10440684230E+00  0.12795359901E+00  0.19177782036E-01 0.  0.
         14    1    1    2    0    0 -0.18061421154E-01 -0.11219125788E-01  0.12363908768E-01  0.24595730474E-01  0.00000000000E+00 0. -1.
     999901    1    3    3    0    0  0.16787203863E-02  0.80754401532E-01 -0.11677075106E+00  0.89138067052E+00  0.88000000000E+00 0. -1.
        -11    1    4    4    0    0  0.82514679189E-02 -0.62773506746E-01  0.91266845373E-01  0.11107879211E+00  0.51100000000E-03 0.  1.
         11    1    4    4    0    0  0.81312328484E-02 -0.67617689975E-02  0.13139996922E-01  0.16874806894E-01  0.51100000000E-03 0. -1.
</event>
<event>
 7    1  0.1162239E+005  0.1043930E+01  0.7957747E-01            NaN
         13   -1    0    0    0    0  0.00000000000E+00  0.00000000000E+00  0.74505805969E-08  0.10566000000E+00  0.10566000000E+00 0.  1.
     999900   -1    0    0    0    0 -0.00000000000E+00 -0.00000000000E+00 -0.74505805969E-08  0.93827000000E+00  0.93827000000E+00 0.  1.
     999903    2    1    2    0    0  0.56530207890E-01  0.53602090525E-01  0.79081879864E-01  0.11271065115E+00  0.19516624865E-01 0.  0.
         14    1    1    2    0    0  0.37890424582E-01 -0.13125236899E-01  0.82841491990E-02  0.40946101726E-01  0.00000000000E+00 0. -1.
     999901    1    1    2    0    0 -0.94420632472E-01 -0.40476853626E-01 -0.87366029063E-01  0.89027324713E+00  0.88000000000E+00 0.  1.
        -11    1    3    3    0    0  0.34522746480E-01  0.19409618097E-01  0.37329524525E-01  0.54427087204E-01  0.51100000000E-03 0.  1.
         11    1    3    3    0    0  0.22007461411E-01  0.34192472428E-01  0.41752355339E-01  0.58283563943E-01  0.51100000000E-03 0. -1.
</event>
<event>
 8    1  0.1078274E+005  0.1043930E+01  0.7957747E-01            NaN
         13   -1    0    0    0    0  0.00000000000E+00  0.00000000000E+00  0.74505805969E-08  0.10566000000E+00  0.10566000000E+00 0. -1.
     999900   -1    0    0    0    0 -0.00000000000E+00 -0.00000000000E+00 -0.74505805969E-08  0.93827000000E+00  0.93827000000E+00 0. -1.
     999902    2    1    2    0    0 -0.23476704397E-01 -0.35114863694E-02 -0.37558306181E-02  0.10198968469E+01  0.10196136454E+01 0.  0.
     999903    2    3    3    0    0 -0.68957676258E-01 -0.10212160183E+00  0.42744188423E-01  0.13200342678E+00  0.20343459917E-01 0.  0.
         14    1    1    2    0    0  0.23476704397E-01  0.35114863694E-02  0.37558306181E-02  0.24033153132E-01  0.00000000000E+00 0. -1.
     999901    1    3    3    0    0  0.45480971861E-01  0.98610115460E-01 -0.46500019041E-01  0.88789342009E+00  0.88000000000E+00 0. -1.
        -11    1    4    4    0    0 -0.62318059574E-01 -0.97730159478E-01  0.43897857677E-01  0.12394356639E+00  0.51100000000E-03 0.  1.
         11    1    4    4    0    0 -0.66396166836E-02 -0.43914423518E-02 -0.11536692538E-02  0.80598603823E-02  0.51100000000E-03 0. -1.
</event>
<event>
 8    1  0.1078274E+005  0.1043930E+01  0.7957747E-01            NaN
         13   -1    0    0    0    0  0.00000000000E+00  0.00000000000E+00  0.74505805969E-08  0.10566000000E+00  0.10566000000E+00 0. -1.
     999900   -1    0    0    0    0 -0.00000000000E+00 -0.00000000000E+00 -0.74505805969E-08  0.93827000000E+00  0.93827000000E+00 0. -1.
     999902    2    1    2    0    0 -0.88804725161E-03  0.22771555798E-01 -0.10312124029E-01  0.10189165579E+01  0.10186094834E+01 0.  0.
     999903    2    3    3    0    0 -0.10279106370E+00  0.28038564666E-01  0.70468965188E-01  0.12934500348E+00  0.20300024267E-01 0.  0.
         14    1    1    2    0    0  0.88804725161E-03 -0.22771555798E-01  0.10312124029E-01  0.25013442054E-01  0.00000000000E+00 0. -1.
     999901    1    3    3    0    0  0.10190301645E+00 -0.52670088679E-02 -0.80781089217E-01  0.88957155447E+00  0.88000000000E+00 0.  1.
        -11    1    4    4    0    0 -0.33418797338E-01  0.16533825496E-01  0.32297753487E-01  0.49331424086E-01  0.51100000000E-03 0.  1.
         11    1    4    4    0    0 -0.69372266362E-01  0.11504739170E-01  0.38171211701E-01  0.80013579393E-01  0.51100000000E-03 0. -1.
</event>
<event>
 8    1  0.1078274E+005  0.1043930E+01  0.7957747E-01            NaN
         13   -1    0    0    0    0  0.00000000000E+00  0.00000000000E+00  0.74505805969E-08  0.10566000000E+00  0.10566000000E+00 0. -1.
     999900   -1    0    0    0    0 -0.00000000000E+00 -0.00000000000E+00 -0.74505805969E-08  0.93827000000E+00  0.93827000000E+00 0.  1.
     999902    2    1    2    0    0 -0.91481501193E-02  0.11925605078E-01  0.18835230931E-01  0.10198328086E+01  0.10195480778E+01 0.  0.
     999903    2    3    3    0    0 -0.30312980114E-01  0.77372413042E-01 -0.97368844878E-01  0.12953250990E+00  0.19814441847E-01 0.  0.
         14    1    1    2    0    0  0.91481501193E-02 -0.11925605078E-01 -0.18835230931E-01  0.24097191357E-01  0.00000000000E+00 0.  1.
     999901    1    3    3    0    0  0.21164829995E-01 -0.65446807964E-01  0.11620407581E+00  0.89030029874E+00  0.88000000000E+00 0. -1.
        -11    1    4    4    0    0 -0.84933220263E-02  0.46177382688E-01 -0.59959125153E-01  0.76156713434E-01  0.51100000000E-03 0.  1.
         11    1    4    4    0    0 -0.21819658088E-01  0.31195030354E-01 -0.37409719725E-01  0.53375796469E-01  0.51100000000E-03 0. -1.
</event>
<event>
 8    1  0.1078274E+005  0.1043930E+01  0.7957747E-01            NaN
         13   -1    0    0    0    0  0.00000000000E+00  0.00000000000E+00  0.74505805969E-08  0.10566000000E+00  0.10566000000E+00 0. -1.
     999900   -1    0    0    0    0 -0.00000000000E+00 -0.00000000000E+00 -0.74505805969E-08  0.93827000000E+00  0.93827000000E+00 0.  1.
     999902    2    1    2    0    0 -0.20225784396E-01  0.68030004999E-02 -0.83401380156E-02  0.10210188439E+01  0.10207617541E+01 0.  0.
     999903    2    3    3    0    0  0.16870764744E-01 -0.12529998098E+00 -0.24212979817E-01  0.13024429401E+00  0.19814131181E-01 0.  0.
         14    1    1    2    0    0  0.20225784396E-01 -0.68030004999E-02  0.83401380156E-02  0.22911156068E-01  0.00000000000E+00 0.  1.
     999901    1    3    3    0    0 -0.37096549141E-01  0.13210298148E+00  0.15872841801E-01  0.89077454992E+00  0.88000000000E+00 0. -1.
        -11    1    4    4    0    0  0.20558343102E-01 -0.89300729648E-01 -0.14556584572E-01  0.92786966015E-01  0.51100000000E-03 0.  1.
         11    1    4    4    0    0 -0.36875783575E-02 -0.35999251334E-01 -0.96563952445E-02  0.37457328000E-01  0.51100000000E-03 0. -1.
</event>
<event>
 8    1  0.1078274E+005  0.1043930E+01  0.7957747E-01            NaN
         13   -1    0    0    0    0  0.00000000000E+00  0.00000000000E+00  0.74505805969E-08  0.10566000000E+00  0.10566000000E+00 0. -1.
     999900   -1    0    0    0    0 -0.00000000000E+00 -0.00000000000E+00 -0.74505805969E-08  0.93827000000E+00  0.93827000000E+00 0. -1.
     999902    2    1    2    0    0 -0.72177641708E-02 -0.91158662960E-03  0.23230520045E-01  0.10195869482E+01  0.10192963067E+01 0.  0.
     999903    2    3    3    0    0  0.33734214213E-02  0.12742123809E+00 -0.12398875098E-01  0.12950215397E+00  0.19223004146E-01 0.  0.
         14    1    1    2    0    0  0.72177641708E-02  0.91158662960E-03 -0.23230520045E-01  0.24343051809E-01  0.00000000000E+00 0.  1.
     999901    1    3    3    0    0 -0.10591185592E-01 -0.12833282472E+00  0.35629395143E-01  0.89008479423E+00  0.88000000000E+00 0.  1.
        -11    1    4    4    0    0 -0.12144652004E-02  0.23849934745E-01  0.49300130162E-02  0.24389761426E-01  0.51100000000E-03 0. -1.
         11    1    4    4    0    0  0.45878866217E-02  0.10357130335E+00 -0.17328888115E-01  0.10511239254E+00  0.51100000000E-03 0.  1.
</event>
<event>
 8    1  0.1078274E+005  0.1043930E+01  0.7957747E-01            NaN
         13   -1    0    0    0    0  0.00000000000E+00  0.00000000000E+00  0.74505805969E-08  0.10566000000E+00  0.10566000000E+00 0.  1.
     999900   -1    0    0    0    0 -0.00000000000E+00 -0.00000000000E+00 -0.74505805969E-08  0.93827000000E+00  0.93827000000E+00 0.  1.
     999902    2    1    2    0    0  0.75220300029E-02 -0.65090328347E-02  0.19921677476E-01  0.10216629464E+01  0.10214202633E+01 0.  0.
     999903    2    3    3    0    0  0.12937651391E+00 -0.13670573734E-01  0.20792221848E-01  0.13323705708E+00  0.19865295195E-01 0.  0.
         14    1    1    2    0    0 -0.75220300029E-02  0.65090328347E-02 -0.19921677476E-01  0.22267053628E-01  0.00000000000E+00 0. -1.
     999901    1    3    3    0    0 -0.12185448390E+00  0.71615408996E-02 -0.87054437154E-03  0.88842588929E+00  0.88000000000E+00 0.  1.
        -11    1    4    4    0    0  0.11728492366E+00 -0.17238205557E-01  0.15501013822E-01  0.11955522406E+00  0.51100000000E-03 0.  1.
         11    1    4    4    0    0  0.12091590247E-01  0.35676318223E-02  0.52912080260E-02  0.13681833024E-01  0.51100000000E-03 0. -1.
</event>
<event>
 8    1  0.1078274E+005  0.1043930E+01  0.7957747E-01            NaN
         13   -1    0    0    0    0  0.00000000000E+00  0.00000000000E+00  0.74505805969E-08  0.10566000000E+00  0.10566000000E+00 0. -1.
     999900   -1    0    0    0    0 -0.00000000000E+00 -0.00000000000E+00 -0.74505805969E-08  0.93827000000E+00  0.93827000000E+00 0.  1.
     999902    2    1    2    0    0 -0.10006133735E-01  0.20239209601E-01  0.11018685721E-01  0.10188071070E+01  0.10184973056E+01 0.  0.
     999903    2    3    3    0    0  0.37194778150E-01  0.12444337681E+00 -0.13770826734E-02  0.13131621149E+00  0.19298846814E-01 0.  0.
         14    1    1    2    0    0  0.10006133735E-01 -0.20239209601E-01 -0.11018685721E-01  0.25122892998E-01  0.00000000000E+00 0.  1.
     999901    1    3    3    0    0 -0.47200911885E-01 -0.10420416721E+00  0.12395768394E-01  0.88749089551E+00  0.88000000000E+00 0. -1.
        -11    1    4    4    0    0 -0.11374864535E-02  0.16032877263E-01 -0.27738396112E-02  0.16318772501E-01  0.51100000000E-03 0.  1.
         11    1    4    4    0    0  0.38332264603E-01  0.10841049955E+00  0.13967569379E-02  0.11499743899E+00  0.51100000000E-03 0. -1.
</event>
<event>
 8    1  0.1078274E+005  0.1043930E+01  0.7957747E-01            NaN
         13   -1    0    0    0    0  0.00000000000E+00  0.00000000000E+00  0.74505805969E-08  0.10566000000E+00  0.10566000000E+00 0.  1.
     999900   -1    0    0    0    0 -0.00000000000E+00 -0.00000000000E+00 -0.74505805969E-08  0.93827000000E+00  0.93827000000E+00 0. -1.
     999902    2    1    2    0    0  0.77119155122E-02 -0.22963828170E-01  0.10618936137E-02  0.10196825535E+01  0.10193942178E+01 0.  0.
     999903    2    3    3    0    0  0.61802554813E-01  0.10318428634E+00  0.38240436140E-01  0.12826716877E+00  0.22881933937E-01 0.  0.
         14    1    1    2    0    0 -0.77119155122E-02  0.22963828170E-01 -0.10618936137E-02  0.24247446528E-01  0.00000000000E+00 0. -1.
     999901    1    3    3    0    0 -0.54090639301E-01 -0.12614811451E+00 -0.37178542526E-01  0.89141538470E+00  0.88000000000E+00 0.  1.
        -11    1    4    4    0    0  0.48309693827E-01  0.94907361581E-01  0.31522482601E-01  0.11106377371E+00  0.51100000000E-03 0.  1.
         11    1    4    4    0    0  0.13492860987E-01  0.82769247545E-02  0.67179535389E-02  0.17203395064E-01  0.51100000000E-03 0. -1.
</event>
<event>
 8    1  0.1078274E+005  0.1043930E+01  0.7957747E-01            NaN
         13   -1    0    0    0    0  0.00000000000E+00  0.00000000000E+00  0.74505805969E-08  0.10566000000E+00  0.10566000000E+00 0.  1.
     999900   -1    0    0    0    0 -0.00000000000E+00 -0.00000000000E+00 -0.74505805969E-08  0.93827000000E+00  0.93827000000E+00 0.  1.
     999902    2    1    2    0    0 -0.12807150859E-01 -0.11601855658E-01  0.14879248223E-01  0.10211260925E+01  0.10208714310E+01 0.  0.
     999903    2    3    3    0    0 -0.12562874910E+00 -0.89835472614E-02 -0.37905437953E-01  0.13235064752E+00  0.14716825461E-01 0.  0.
         14    1    1    2    0    0  0.12807150859E-01  0.11601855658E-01 -0.14879248223E-01  0.22803907461E-01  0.00000000000E+00 0.  1.
     999901    1    3    3    0    0  0.11282159824E+00 -0.26183083964E-02  0.52784686176E-01  0.88877544502E+00  0.88000000000E+00 0.  1.
        -11    1    4    4    0    0 -0.10481754407E+00 -0.12494758102E-01 -0.29292072608E-01  0.10954963790E+00  0.51100000000E-03 0. -1.
         11    1    4    4    0    0 -0.20811205027E-01  0.35112108410E-02 -0.86133653450E-02  0.22801009623E-01  0.51100000000E-03 0.  1.
</event>
<event>
 7    1  0.1078274E+005  0.1043930E+01  0.7957747E-01            NaN
         13   -1    0    0    0    0  0.00000000000E+00  0.00000000000E+00  0.74505805969E-08  0.10566000000E+00  0.10566000000E+00 0. -1.
     999900   -1    0    0    0    0 -0.00000000000E+00 -0.00000000000E+00 -0.74505805969E-08  0.93827000000E+00  0.93827000000E+00 0. -1.
     999903    2    1    2    0    0 -0.11564263638E-01  0.90947950887E-01  0.56193976678E-01  0.10944632083E+00  0.20383134335E-01 0.  0.
         14    1    1    2    0    0 -0.43923828915E-01 -0.17682419513E-01  0.48318095941E-02  0.47595347360E-01  0.00000000000E+00 0.  1.
     999901    1    1    2    0    0  0.55488092553E-01 -0.73265531374E-01 -0.61025786272E-01  0.88688833181E+00  0.88000000000E+00 0. -1.
        -11    1    3    3    0    0 -0.89667981005E-02  0.60026419605E-01  0.47909395335E-01  0.77324936477E-01  0.51100000000E-03 0.  1.
         11    1    3    3    0    0 -0.25974655375E-02  0.30921531282E-01  0.82845813429E-02  0.32121384358E-01  0.51100000000E-03 0. -1.
</event>
<event>
 8    1  0.1078274E+005  0.1043930E+01  0.7957747E-01            NaN
         13   -1    0    0    0    0  0.00000000000E+00  0.00000000000E+00  0.74505805969E-08  0.10566000000E+00  0.10566000000E+00 0. -1.
     999900   -1    0    0    0    0 -0.00000000000E+00 -0.00000000000E+00 -0.74505805969E-08  0.93827000000E+00  0.93827000000E+00 0. -1.
     999902    2    1    2    0    0 -0.11962633248E-01 -0.16767953250E-01  0.99604300521E-02  0.10210503362E+01  0.10207939606E+01 0.  0.
     999903    2    3    3    0    0  0.83340960975E-01  0.68227326726E-01  0.69901100932E-01  0.12981531850E+00  0.19109398643E-01 0.  0.
         14    1    1    2    0    0  0.11962633248E-01  0.16767953250E-01 -0.99604300521E-02  0.22879663836E-01  0.00000000000E+00 0. -1.
     999901    1    3    3    0    0 -0.95303594223E-01 -0.84995279976E-01 -0.59940670880E-01  0.89123501767E+00  0.88000000000E+00 0.  1.
        -11    1    4    4    0    0  0.63916689728E-01  0.41688667973E-01  0.52260500317E-01  0.92491671395E-01  0.51100000000E-03 0.  1.
         11    1    4    4    0    0  0.19424271248E-01  0.26538658753E-01  0.17640600615E-01  0.37323647102E-01  0.51100000000E-03 0. -1.
</event>
<event>
 8    1  0.1078274E+005  0.1043930E+01  0.7957747E-01            NaN
         13   -1    0    0    0    0  0.00000000000E+00  0.00000000000E+00  0.74505805969E-08  0.10566000000E+00  0.10566000000E+00 0.  1.
     999900   -1    0    0    0    0 -0.00000000000E+00 -0.00000000000E+00 -0.74505805969E-08  0.93827000000E+00  0.93827000000E+00 0. -1.
     999902    2    1    2    0    0  0.65093947257E-02 -0.11838678006E-01  0.19826332812E-01  0.10199381266E+01  0.10196559087E+01 0.  0.
     999903    2    3    3    0    0 -0.45498011548E-01  0.29614451900E-02 -0.11750210866E+00  0.12764730249E+00  0.20205174582E-01 0.  0.
         14    1    1    2    0    0 -0.65093947257E-02  0.11838678006E-01 -0.19826332812E-01  0.23991873403E-01  0.00000000000E+00 0. -1.
     999901    1    3    3    0    0  0.52007406274E-01 -0.14800123196E-01  0.13732844147E+00  0.89229082411E+00  0.88000000000E+00 0.  1.
        -11    1    4    4    0    0 -0.11364103699E-02  0.52942691379E-02 -0.13442716977E-01  0.14501326662E-01  0.51100000000E-03 0.  1.
         11    1    4    4    0    0 -0.44361601178E-01 -0.23328239479E-02 -0.10405939168E+00  0.11314597583E+00  0.51100000000E-03 0. -1.
</event>
<event>
 8    1  0.1078274E+005  0.1043930E+01  0.7957747E-01            NaN
         13   -1    0    0    0    0  0.00000000000E+00  0.00000000000E+00  0.74505805969E-08  0.10566000000E+00  0.10566000000E+00 0. -1.
     999900   -1    0    0    0    0 -0.00000000000E+00 -0.00000000000E+00 -0.74505805969E-08  0.93827000000E+00  0.93827000000E+00 0.  1.
     999902    2    1    2    0    0 -0.14224767118E-01 -0.13327426533E-01 -0.13341394257E-01  0.10203088845E+01  0.10200354223E+01 0.  0.
     999903    2    3    3    0    0  0.47556457356E-01  0.11097221837E+00  0.38226774116E-01  0.12793755067E+00  0.18173627187E-01 0.  0.
         14    1    1    2    0    0  0.14224767118E-01  0.13327426533E-01  0.13341394257E-01  0.23621115517E-01  0.00000000000E+00 0. -1.
     999901    1    3    3    0    0 -0.61781224474E-01 -0.12429964491E+00 -0.51568168373E-01  0.89237133381E+00  0.88000000000E+00 0.  1.
        -11    1    4    4    0    0  0.11576521781E-01  0.16053206859E-01  0.10265385366E-02  0.19825140841E-01  0.51100000000E-03 0.  1.
         11    1    4    4    0    0  0.35979935575E-01  0.94919011514E-01  0.37200235579E-01  0.10811240983E+00  0.51100000000E-03 0. -1.
</event>
<event>
 8    1  0.1078274E+005  0.1043930E+01  0.7957747E-01            NaN
         13   -1    0    0    0    0  0.00000000000E+00  0.00000000000E+00  0.74505805969E-08  0.10566000000E+00  0.10566000000E+00 0.  1.
     999900   -1    0    0    0    0 -0.00000000000E+00 -0.00000000000E+00 -0.74505805969E-08  0.93827000000E+00  0.93827000000E+00 0.  1.
     999902    2    1    2    0    0 -0.18996107638E-01  0.12614844537E-01 -0.84506727680E-03  0.10211111362E+01  0.10208561367E+01 0.  0.
     999903    2    3    3    0    0 -0.11945181726E+00 -0.55896498690E-01 -0.57184735081E-02  0.13273683226E+00  0.13900017477E-01 0.  0.
         14    1    1    2    0    0  0.18996107638E-01 -0.12614844537E-01  0.84506727680E-03  0.22818863836E-01  0.00000000000E+00 0.  1.
     999901    1    3    3    0    0  0.10045570963E+00  0.68511343227E-01  0.48734062313E-02  0.88837430390E+00  0.88000000000E+00 0.  1.
        -11    1    4    4    0    0 -0.16652918861E-01 -0.10887970400E-01  0.32126601380E-02  0.20160602972E-01  0.51100000000E-03 0.  1.
         11    1    4    4    0    0 -0.10279889840E+00 -0.45008528290E-01 -0.89311336460E-02  0.11257622929E+00  0.51100000000E-03 0. -1.
</event>
<event>
 8    1  0.1078274E+005  0.1043930E+01  0.7957747E-01            NaN
         13   -1    0    0    0    0  0.00000000000E+00  0.00000000000E+00  0.74505805969E-08  0.10566000000E+00  0.10566000000E+00 0. -1.
     999900   -1    0    0    0    0 -0.00000000000E+00 -0.00000000000E+00 -0.74505805969E-08  0.93827000000E+00  0.93827000000E+00 0. -1.
     999902    2    1    2    0    0 -0.66970609824E-02 -0.20355962750E-01 -0.93685806229E-02  0.10205422650E+01  0.10202742418E+01 0.  0.
     999903    2    3    3    0    0  0.13850994025E-01 -0.32602078221E-01  0.12379450176E+00  0.13020266889E+00  0.19310897918E-01 0.  0.
         14    1    1    2    0    0  0.66970609824E-02  0.20355962750E-01  0.93685806229E-02  0.23387734994E-01  0.00000000000E+00 0. -1.
     999901    1    3    3    0    0 -0.20548055007E-01  0.12246115472E-01 -0.13316308239E+00  0.89033959612E+00  0.88000000000E+00 0. -1.
        -11    1    4    4    0    0  0.58025495668E-02 -0.12434711215E-01  0.81586578957E-01  0.82734047473E-01  0.51100000000E-03 0. -1.
         11    1    4    4    0    0  0.80484444579E-02 -0.20167367006E-01  0.42207922806E-01  0.47468621412E-01  0.51100000000E-03 0.  1.
</event>
<event>
 8    1  0.1078274E+005  0.1043930E+01  0.7957747E-01            NaN
         13   -1    0    0    0    0  0.00000000000E+00  0.00000000000E+00  0.74505805969E-08  0.10566000000E+00  0.10566000000E+00 0. -1.
     999900   -1    0    0    0    0 -0.00000000000E+00 -0.00000000000E+00 -0.74505805969E-08  0.93827000000E+00  0.93827000000E+00 0.  1.
     999902    2    1    2    0    0 -0.17836305032E-01 -0.13982137632E-02 -0.16030866379E-01  0.10199075635E+01  0.10196246175E+01 0.  0.
     999903    2    3    3    0    0 -0.12577641741E+00 -0.34505842356E-01  0.10370389367E-01  0.13230167728E+00  0.19642517698E-01 0.  0.
         14    1    1    2    0    0  0.17836305032E-01  0.13982137632E-02  0.16030866379E-01  0.24022436509E-01  0.00000000000E+00 0.  1.
     999901    1    3    3    0    0  0.10794011238E+00  0.33107628593E-01 -0.26401255747E-01  0.88760588621E+00  0.88000000000E+00 0.  1.
        -11    1    4    4    0    0 -0.11861150848E+00 -0.33543999726E-01  0.51538367887E-02  0.12337225384E+00  0.51100000000E-03 0. -1.
         11    1    4    4    0    0 -0.71649089316E-02 -0.96184263055E-03  0.52165525788E-02  0.89294234445E-02  0.51100000000E-03 0.  1.
</event>
<event>
 8    1  0.1078274E+005  0.1043930E+01  0.7957747E-01            NaN
         13   -1    0    0    0    0  0.00000000000E+00  0.00000000000E+00  0.74505805969E-08  0.10566000000E+00  0.10566000000E+00 0. -1.
     999900   -1    0    0    0    0 -0.00000000000E+00 -0.00000000000E+00 -0.74505805969E-08  0.93827000000E+00  0.93827000000E+00 0. -1.
     999902    2    1    2    0    0  0.17213422558E-01 -0.67163421328E-02 -0.15428385463E-01  0.10198583103E+01  0.10195741890E+01 0.  0.
     999903    2    3    3    0    0 -0.83463389355E-01  0.74582254898E-01  0.57607918543E-01  0.12740126144E+00  0.19589768452E-01 0.  0.
         14    1    1    2    0    0 -0.17213422558E-01  0.67163421328E-02  0.15428385463E-01  0.24071689717E-01  0.00000000000E+00 0. -1.
     999901    1    3    3    0    0  0.10067681191E+00 -0.81298597031E-01 -0.73036304006E-01  0.89245704885E+00  0.88000000000E+00 0. -1.
        -11    1    4    4    0    0 -0.12204031703E-01  0.12291528600E-01  0.17430499669E-01  0.24578517141E-01  0.51100000000E-03 0. -1.
         11    1    4    4    0    0 -0.71259357652E-01  0.62290726299E-01  0.40177418874E-01  0.10282274429E+00  0.51100000000E-03 0.  1.
</event>
<event>
 8    1  0.1078274E+005  0.1043930E+01  0.7957747E-01            NaN
         13   -1    0    0    0    0  0.00000000000E+00  0.00000000000E+00  0.74505805969E-08  0.10566000000E+00  0.10566000000E+00 0. -1.
     999900   -1    0    0    0    0 -0.00000000000E+00 -0.00000000000E+00 -0.74505805969E-08  0.93827000000E+00  0.93827000000E+00 0.  1.
     999902    2    1    2    0    0  0.12627751176E-01  0.20528070377E-01 -0.28663114596E-02  0.10196590809E+01  0.10193701799E+01 0.  0.
     999903    2    3    3    0    0 -0.27603768385E-01 -0.83373967636E-01 -0.91515051891E-01  0.12821485501E+00  0.18731198958E-01 0.  0.
         14    1    1    2    0    0 -0.12627751176E-01 -0.20528070377E-01  0.28663114596E-02  0.24270919112E-01  0.00000000000E+00 0. -1.
     999901    1    3    3    0    0  0.40231519560E-01  0.10390203801E+00  0.88648740432E-01  0.89144422588E+00  0.88000000000E+00 0. -1.
        -11    1    4    4    0    0 -0.18858041485E-01 -0.48741437385E-01 -0.41422840841E-01  0.66689326817E-01  0.51100000000E-03 0. -1.
         11    1    4    4    0    0 -0.87457269000E-02 -0.34632530250E-01 -0.50092211050E-01  0.61525528193E-01  0.51100000000E-03 0.  1.
</event>
<event>
 8    1  0.1078274E+005  0.1043930E+01  0.7957747E-01            NaN
         13   -1    0    0    0    0  0.00000000000E+00  0.00000000000E+00  0.74505805969E-08  0.10566000000E+00  0.10566000000E+00 0.  1.
     999900   -1    0    0    0    0 -0.00000000000E+00 -0.00000000000E+00 -0.74505805969E-08  0.93827000000E+00  0.93827000000E+00 0.  1.
     999902    2    1    2    0    0 -0.83027561955E-02 -0.96368319641E-02  0.18782822852E-01  0.10212452314E+01  0.10209932536E+01 0.  0.
     999903    2    3    3    0    0  0.29221841498E-02  0.10381724232E-01  0.13174342198E+00  0.13372799845E+00  0.20261514707E-01 0.  0.
         14    1    1    2    0    0  0.83027561955E-02  0.96368319641E-02 -0.18782822852E-01  0.22684768569E-01  0.00000000000E+00 0. -1.
     999901    1    3    3    0    0 -0.11224940345E-01 -0.20018556196E-01 -0.11296059912E+00  0.88751723298E+00  0.88000000000E+00 0.  1.
        -11    1    4    4    0    0  0.57651044180E-02 -0.46389246772E-02  0.52555492223E-01  0.53076331212E-01  0.51100000000E-03 0. -1.
         11    1    4    4    0    0 -0.28429202682E-02  0.15020648909E-01  0.79187929753E-01  0.80651667241E-01  0.51100000000E-03 0.  1.
</event>
<event>
 8    1  0.1078274E+005  0.1043930E+01  0.7957747E-01            NaN
         13   -1    0    0    0    0  0.00000000000E+00  0.00000000000E+00  0.74505805969E-08  0.10566000000E+00  0.10566000000E+00 0. -1.
     999900   -1    0    0    0    0 -0.00000000000E+00 -0.00000000000E+00 -0.74505805969E-08  0.93827000000E+00  0.93827000000E+00 0. -1.
     999902    2    1    2    0    0  0.10517193860E-01 -0.15144613919E-01  0.15417797289E-01  0.10198950427E+01  0.10196117982E+01 0.  0.
     999903    2    3    3    0    0 -0.18250152695E-01 -0.28860739617E-01  0.12637225804E+00  0.13235541844E+00  0.19544790177E-01 0.  0.
         14    1    1    2    0    0 -0.10517193860E-01  0.15144613919E-01 -0.15417797289E-01  0.24034957264E-01  0.00000000000E+00 0.  1.
     999901    1    3    3    0    0  0.28767346555E-01  0.13716125698E-01 -0.11095446076E+00  0.88753962429E+00  0.88000000000E+00 0. -1.
        -11    1    4    4    0    0 -0.15129160909E-01 -0.80215622683E-02  0.72734189981E-01  0.74724564129E-01  0.51100000000E-03 0. -1.
         11    1    4    4    0    0 -0.31209917860E-02 -0.20839177348E-01  0.53638068063E-01  0.57630854313E-01  0.51100000000E-03 0.  1.
</event>
<event>
 8    1  0.1078274E+005  0.1043930E+01  0.7957747E-01            NaN
         13   -1    0    0    0    0  0.00000000000E+00  0.00000000000E+00  0.74505805969E-08  0.10566000000E+00  0.10566000000E+00 0. -1.
     999900   -1    0    0    0    0 -0.00000000000E+00 -0.00000000000E+00 -0.74505805969E-08  0.93827000000E+00  0.93827000000E+00 0. -1.
     999902    2    1    2    0    0 -0.74927316869E-02 -0.22214540940E-01  0.20724990901E-02  0.10203944501E+01  0.10201229885E+01 0.  0.
     999903    2    3    3    0    0  0.42423721450E-01 -0.47886283654E-01  0.11312243937E+00  0.13164095226E+00  0.20971068625E-01 0.  0.
         14    1    1    2    0    0  0.74927316869E-02  0.22214540940E-01 -0.20724990901E-02  0.23535549914E-01  0.00000000000E+00 0. -1.
     999901    1    3    3    0    0 -0.49916453137E-01  0.25671742714E-01 -0.11104994028E+00  0.88875349783E+00  0.88000000000E+00 0. -1.
        -11    1    4    4    0    0  0.23165383127E-01 -0.13238823602E-01  0.34771488263E-01  0.43831711612E-01  0.51100000000E-03 0.  1.
         11    1    4    4    0    0  0.19258338323E-01 -0.34647460051E-01  0.78350951103E-01  0.87809240645E-01  0.51100000000E-03 0. -1.
</event>
<event>
 8    1  0.1078274E+005  0.1043930E+01  0.7957747E-01            NaN
         13   -1    0    0    0    0  0.00000000000E+00  0.00000000000E+00  0.74505805969E-08  0.10566000000E+00  0.10566000000E+00 0.  1.
     999900   -1    0    0    0    0 -0.00000000000E+00 -0.00000000000E+00 -0.74505805969E-08  0.93827000000E+00  0.93827000000E+00 0. -1.
     999902    2    1    2    0    0 -0.28219789755E-02 -0.92005635145E-02 -0.21508968077E-01  0.10203662643E+01  0.10200941445E+01 0.  0.
     999903    2    3    3    0    0 -0.82160047626E-02 -0.12791821257E+00 -0.24593067992E-01  0.13237274661E+00  0.22071547509E-01 0.  0.
         14    1    1    2    0    0  0.28219789755E-02  0.92005635145E-02  0.21508968077E-01  0.23563735741E-01  0.00000000000E+00 0.  1.
     999901    1    3    3    0    0  0.53940257871E-02  0.11871764906E+00  0.30840999144E-02  0.88799351765E+00  0.88000000000E+00 0.  1.
        -11    1    4    4    0    0 -0.73706629538E-03 -0.38942439841E-01  0.25814109453E-02  0.39038208091E-01  0.51100000000E-03 0.  1.
         11    1    4    4    0    0 -0.74789384672E-02 -0.88975772734E-01 -0.27174478937E-01  0.93334538520E-01  0.51100000000E-03 0. -1.
</event>
<event>
 8    1  0.1078274E+005  0.1043930E+01  0.7957747E-01            NaN
         13   -1    0    0    0    0  0.00000000000E+00  0.00000000000E+00  0.74505805969E-08  0.10566000000E+00  0.10566000000E+00 0. -1.
     999900   -1    0    0    0    0 -0.00000000000E+00 -0.00000000000E+00 -0.74505805969E-08  0.93827000000E+00  0.93827000000E+00 0. -1.
     999902    2    1    2    0    0  0.18775444206E-01 -0.11215516860E-01 -0.96529067094E-02  0.10200242741E+01  0.10197441032E+01 0.  0.
     999903    2    3    3    0    0  0.65682072148E-01 -0.51622372200E-01  0.99840083737E-01  0.13108014724E+00  0.15328364733E-01 0.  0.
         14    1    1    2    0    0 -0.18775444206E-01  0.11215516860E-01  0.96529067094E-02  0.23905725915E-01  0.00000000000E+00 0. -1.
     999901    1    3    3    0    0 -0.46906627942E-01  0.40406855340E-01 -0.10949299045E+00  0.88894412685E+00  0.88000000000E+00 0. -1.
        -11    1    4    4    0    0  0.39955252617E-01 -0.30982232470E-01  0.71615383441E-01  0.87666100671E-01  0.51100000000E-03 0. -1.
         11    1    4    4    0    0  0.25726819531E-01 -0.20640139730E-01  0.28224700296E-01  0.43414046564E-01  0.51100000000E-03 0.  1.
</event>
<event>
 8    1  0.1078274E+005  0.1043930E+01  0.7957747E-01            NaN
         13   -1    0    0    0    0  0.00000000000E+00  0.00000000000E+00  0.74505805969E-08  0.10566000000E+00  0.10566000000E+00 0. -1.
     999900   -1    0    0    0    0 -0.00000000000E+00 -0.00000000000E+00 -0.74505805969E-08  0.93827000000E+00  0.93827000000E+00 0.  1.
     999902    2    1    2    0    0 -0.23935208266E-01  0.20094163575E-01  0.54390951610E-02  0.10122085032E+01  0.10117113227E+01 0.  0.
     999903    2    3    3    0    0 -0.31245453694E-01  0.58221891400E-01 -0.10373079495E+00  0.12461330928E+00  0.20058215629E-01 0.  0.
         14    1    1    2    0    0  0.23935208266E-01 -0.20094163575E-01 -0.54390951610E-02  0.31721496823E-01  0.00000000000E+00 0. -1.
     999901    1    3    3    0    0  0.73102454279E-02 -0.38127727824E-01  0.10916989011E+00  0.88759519389E+00  0.88000000000E+00 0. -1.
        -11    1    4    4    0    0 -0.23871801683E-01  0.46116373275E-01 -0.63951819152E-01  0.82381303058E-01  0.51100000000E-03 0. -1.
         11    1    4    4    0    0 -0.73736520112E-02  0.12105518124E-01 -0.39778975800E-01  0.42232006224E-01  0.51100000000E-03 0.  1.
</event>
<event>
 8    1  0.1078274E+005  0.1043930E+01  0.7957747E-01            NaN
         13   -1    0    0    0    0  0.00000000000E+00  0.00000000000E+00  0.74505805969E-08  0.10566000000E+00  0.10566000000E+00 0. -1.
     999900   -1    0    0    0    0 -0.00000000000E+00 -0.00000000000E+00 -0.74505805969E-08  0.93827000000E+00  0.93827000000E+00 0. -1.
     999902    2    1    2    0    0 -0.76322323240E-02 -0.21051222996E-01 -0.27268543844E-02  0.10213725025E+01  0.10211233756E+01 0.  0.
     999903    2    3    3    0    0 -0.75308452899E-01  0.36134131391E-01 -0.99682283586E-01  0.13162501535E+00  0.20286657585E-01 0.  0.
         14    1    1    2    0    0  0.76322323240E-02  0.21051222996E-01  0.27268543844E-02  0.22557497527E-01  0.00000000000E+00 0. -1.
     999901    1    3    3    0    0  0.67676220575E-01 -0.57185354386E-01  0.96955429201E-01  0.88974748712E+00  0.88000000000E+00 0.  1.
        -11    1    4    4    0    0 -0.37924381328E-01  0.29136249565E-01 -0.58550317919E-01  0.75601458896E-01  0.51100000000E-03 0.  1.
         11    1    4    4    0    0 -0.37384071571E-01  0.69978818259E-02 -0.41131965667E-01  0.56023556455E-01  0.51100000000E-03 0. -1.
</event>
<event>
 8    1  0.1078274E+005  0.1043930E+01  0.7957747E-01            NaN
         13   -1    0    0    0    0  0.00000000000E+00  0.00000000000E+00  0.74505805969E-08  0.10566000000E+00  0.10566000000E+00 0. -1.
     999900   -1    0    0    0    0 -0.00000000000E+00 -0.00000000000E+00 -0.74505805969E-08  0.93827000000E+00  0.93827000000E+00 0.  1.
     999902    2    1    2    0    0  0.11525994586E-01 -0.13671868200E-01  0.42097334522E-02  0.10255590886E+01  0.10253945357E+01 0.  0.
     999903    2    3    3    0    0 -0.41664381090E-01 -0.92971265738E-01  0.88376388422E-01  0.13640126437E+00  0.20379940796E-01 0.  0.
         14    1    1    2    0    0 -0.11525994586E-01  0.13671868200E-01 -0.42097334522E-02  0.18370911437E-01  0.00000000000E+00 0.  1.
     999901    1    3    3    0    0  0.53190375676E-01  0.79299397538E-01 -0.84166654970E-01  0.88915782419E+00  0.88000000000E+00 0.  1.
        -11    1    4    4    0    0 -0.43086701829E-01 -0.80358515693E-01  0.76846156333E-01  0.11924574535E+00  0.51100000000E-03 0. -1.
         11    1    4    4    0    0  0.14223207396E-02 -0.12612750046E-01  0.11530232089E-01  0.17155519025E-01  0.51100000000E-03 0.  1.
</event>
<event>
 8    1  0.1078274E+005  0.1043930E+01  0.7957747E-01            NaN
         13   -1    0    0    0    0  0.00000000000E+00  0.00000000000E+00  0.74505805969E-08  0.10566000000E+00  0.10566000000E+00 0. -1.
     999900   -1    0    0    0    0 -0.00000000000E+00 -0.00000000000E+00 -0.74505805969E-08  0.93827000000E+00  0.93827000000E+00 0.  1.
     999902    2    1    2    0    0  0.48753582047E-02 -0.34155966323E-01 -0.14853257081E-01  0.10063664752E+01  0.10056651848E+01 0.  0.
     999903    2    3    3    0    0  0.95548127764E-02 -0.83591547614E-01  0.82651610600E-01  0.11958974270E+00  0.19788293132E-01 0.  0.
         14    1    1    2    0    0 -0.48753582047E-02  0.34155966323E-01  0.14853257081E-01  0.37563524848E-01  0.00000000000E+00 0.  1.
     999901    1    3    3    0    0 -0.46794545717E-02  0.49435581292E-01 -0.97504867682E-01  0.88677673245E+00  0.88000000000E+00 0.  1.
        -11    1    4    4    0    0  0.64711163664E-02 -0.21601194482E-01  0.12010405542E-01  0.25553823830E-01  0.51100000000E-03 0.  1.
         11    1    4    4    0    0  0.30836964100E-02 -0.61990353132E-01  0.70641205058E-01  0.94035918872E-01  0.51100000000E-03 0. -1.
</event>
<event>
 8    1  0.1078274E+005  0.1043930E+01  0.7957747E-01            NaN
         13   -1    0    0    0    0  0.00000000000E+00  0.00000000000E+00  0.74505805969E-08  0.10566000000E+00  0.10566000000E+00 0. -1.
     999900   -1    0    0    0    0 -0.00000000000E+00 -0.00000000000E+00 -0.74505805969E-08  0.93827000000E+00  0.93827000000E+00 0. -1.
     999902    2    1    2    0    0  0.72031695227E-02  0.49774676123E-02 -0.22010429236E-01  0.10202420320E+01  0.10199670014E+01 0.  0.
     999903    2    3    3    0    0  0.12317755635E-01  0.12720282087E+00 -0.25320170039E-01  0.13177360238E+00  0.19770850547E-01 0.  0.
         14    1    1    2    0    0 -0.72031695227E-02 -0.49774676123E-02  0.22010429236E-01  0.23687968046E-01  0.00000000000E+00 0. -1.
     999901    1    3    3    0    0 -0.51145861122E-02 -0.12222535326E+00  0.33097408029E-02  0.88846842958E+00  0.88000000000E+00 0.  1.
        -11    1    4    4    0    0  0.69154927225E-02  0.30067227489E-01 -0.13817292893E-01  0.33808888068E-01  0.51100000000E-03 0. -1.
         11    1    4    4    0    0  0.54022629124E-02  0.97135593381E-01 -0.11502877146E-01  0.97964714309E-01  0.51100000000E-03 0.  1.
</event>
<event>
 8    1  0.1078274E+005  0.1043930E+01  0.7957747E-01            NaN
         13   -1    0    0    0    0  0.00000000000E+00  0.00000000000E+00  0.74505805969E-08  0.10566000000E+00  0.10566000000E+00 0.  1.
     999900   -1    0    0    0    0 -0.00000000000E+00 -0.00000000000E+00 -0.74505805969E-08  0.93827000000E+00  0.93827000000E+00 0.  1.
     999902    2    1    2    0    0  0.19530251985E-01 -0.12601427127E-01  0.24080148588E-02  0.10205628169E+01  0.10202952701E+01 0.  0.
     999903    2    3    3    0    0  0.35161874738E-01  0.11806291655E+00 -0.36352229580E-01  0.12993389597E+00  0.19650013373E-01 0.  0.
         14    1    1    2    0    0 -0.19530251985E-01  0.12601427127E-01 -0.24080148588E-02  0.23367183053E-01  0.00000000000E+00 0.  1.
     999901    1    3    3    0    0 -0.15631622752E-01 -0.13066434368E+00  0.38760244439E-01  0.89062892098E+00  0.88000000000E+00 0. -1.
        -11    1    4    4    0    0  0.12048553037E-01  0.47343991880E-01 -0.24288732483E-01  0.54560286327E-01  0.51100000000E-03 0. -1.
         11    1    4    4    0    0  0.23113321701E-01  0.70718924672E-01 -0.12063497097E-01  0.75373609640E-01  0.51100000000E-03 0.  1.
</event>
<event>
 7    1  0.1078274E+005  0.1043930E+01  0.7957747E-01            NaN
         13   -1    0    0    0    0  0.00000000000E+00  0.00000000000E+00  0.74505805969E-08  0.10566000000E+00  0.10566000000E+00 0. -1.
     999900   -1    0    0    0    0 -0.00000000000E+00 -0.00000000000E+00 -0.74505805969E-08  0.93827000000E+00  0.93827000000E+00 0. -1.
     999903    2    1    2    0    0  0.12116291317E-01 -0.65597297605E-01 -0.53117605979E-01  0.87638869865E-01  0.20230706311E-01 0.  0.
         14    1    1    2    0    0 -0.58378505999E-01  0.20406273811E-01  0.40319807906E-01  0.73825150749E-01  0.00000000000E+00 0. -1.
     999901    1    1    2    0    0  0.46262214682E-01  0.45191023794E-01  0.12797798073E-01  0.88246597939E+00  0.88000000000E+00 0. -1.
        -11    1    3    3    0    0  0.71728018367E-02 -0.47409381753E-01 -0.25815979698E-01  0.54459383885E-01  0.51100000000E-03 0.  1.
         11    1    3    3    0    0  0.49434894802E-02 -0.18187915852E-01 -0.27301626280E-01  0.33179485979E-01  0.51100000000E-03 0. -1.
</event>
<event>
 8    1  0.1078274E+005  0.1043930E+01  0.7957747E-01            NaN
         13   -1    0    0    0    0  0.00000000000E+00  0.00000000000E+00  0.74505805969E-08  0.10566000000E+00  0.10566000000E+00 0.  1.
     999900   -1    0    0    0    0 -0.00000000000E+00 -0.00000000000E+00 -0.74505805969E-08  0.93827000000E+00  0.93827000000E+00 0.  1.
     999902    2    1    2    0    0 -0.13818128496E-01  0.11147150798E-01  0.16617065693E-01  0.10196127938E+01  0.10193227765E+01 0.  0.
     999903    2    3    3    0    0  0.64527052191E-01 -0.86362515705E-01 -0.64451159607E-01  0.12707811123E+00  0.19304657380E-01 0.  0.
         14    1    1    2    0    0  0.13818128496E-01 -0.11147150798E-01 -0.16617065693E-01  0.24317206219E-01  0.00000000000E+00 0. -1.
     999901    1    3    3    0    0 -0.78345180687E-01  0.97509666503E-01  0.81068225299E-01  0.89253468255E+00  0.88000000000E+00 0. -1.
        -11    1    4    4    0    0  0.15154085652E-02  0.57989466455E-03 -0.27581461114E-02  0.32405604319E-02  0.51100000000E-03 0.  1.
         11    1    4    4    0    0  0.63011643626E-01 -0.86942410369E-01 -0.61693013495E-01  0.12383755080E+00  0.51100000000E-03 0. -1.
</event>
<event>
 8    1  0.1078274E+005  0.1043930E+01  0.7957747E-01            NaN
         13   -1    0    0    0    0  0.00000000000E+00  0.00000000000E+00  0.74505805969E-08  0.10566000000E+00  0.10566000000E+00 0. -1.
     999900   -1    0    0    0    0 -0.00000000000E+00 -0.00000000000E+00 -0.74505805969E-08  0.93827000000E+00  0.93827000000E+00 0. -1.
     999902    2    1    2    0    0 -0.66678717001E-02 -0.16700579309E-01  0.14591198528E-01  0.10207724324E+01  0.10205097186E+01 0.  0.
     999903    2    3    3    0    0 -0.47316907207E-01  0.77088822355E-01 -0.89385147231E-01  0.12877474383E+00  0.20289254868E-01 0.  0.
         14    1    1    2    0    0  0.66678717001E-02  0.16700579309E-01 -0.14591198528E-01  0.23157567592E-01  0.00000000000E+00 0.  1.
     999901    1    3    3    0    0  0.40649035507E-01 -0.93789401664E-01  0.10397634576E+00  0.89199768858E+00  0.88000000000E+00 0.  1.
        -11    1    4    4    0    0 -0.18156858481E-01  0.32364205981E-01 -0.23322468506E-01  0.43832773091E-01  0.51100000000E-03 0. -1.
         11    1    4    4    0    0 -0.29160048726E-01  0.44724616374E-01 -0.66062678725E-01  0.84941970739E-01  0.51100000000E-03 0.  1.
</event>
<event>
 8    1  0.1078274E+005  0.1043930E+01  0.7957747E-01            NaN
         13   -1    0    0    0    0  0.00000000000E+00  0.00000000000E+00  0.74505805969E-08  0.10566000000E+00  0.10566000000E+00 0.  1.
     999900   -1    0    0    0    0 -0.00000000000E+00 -0.00000000000E+00 -0.74505805969E-08  0.93827000000E+00  0.93827000000E+00 0.  1.
     999902    2    1    2    0    0 -0.10610614971E-01  0.12671893462E-01 -0.87728434236E-02  0.10252183775E+01  0.10250476071E+01 0.  0.
     999903    2    3    3    0    0  0.38491455599E-01 -0.54660006842E-01  0.11341920327E+00  0.13287567743E+00  0.17964450454E-01 0.  0.
         14    1    1    2    0    0  0.10610614971E-01 -0.12671893462E-01  0.87728434236E-02  0.18711622477E-01  0.00000000000E+00 0. -1.
     999901    1    3    3    0    0 -0.49102070570E-01  0.67331900304E-01 -0.12219204669E+00  0.89234270009E+00  0.88000000000E+00 0.  1.
        -11    1    4    4    0    0  0.39269690457E-01 -0.49146281338E-01  0.10854309958E+00  0.12545649104E+00  0.51100000000E-03 0.  1.
         11    1    4    4    0    0 -0.77823485771E-03 -0.55137255041E-02  0.48761036910E-02  0.74191863862E-02  0.51100000000E-03 0. -1.
</event>
<event>
 8    1  0.1078274E+005  0.1043930E+01  0.7957747E-01            NaN
         13   -1    0    0    0    0  0.00000000000E+00  0.00000000000E+00  0.74505805969E-08  0.10566000000E+00  0.10566000000E+00 0. -1.
     999900   -1    0    0    0    0 -0.00000000000E+00 -0.00000000000E+00 -0.74505805969E-08  0.93827000000E+00  0.93827000000E+00 0.  1.
     999902    2    1    2    0    0  0.15921762197E-01 -0.16977361125E-01 -0.81765106324E-03  0.10206404776E+01  0.10203747265E+01 0.  0.
     999903    2    3    3    0    0  0.69363977107E-03 -0.91454654412E-01  0.93412699950E-01  0.13235104163E+00  0.20650199989E-01 0.  0.
         14    1    1    2    0    0 -0.15921762197E-01  0.16977361125E-01  0.81765106324E-03  0.23289522440E-01  0.00000000000E+00 0.  1.
     999901    1    3    3    0    0  0.15228122426E-01  0.74477293287E-01 -0.94230351013E-01  0.88828943593E+00  0.88000000000E+00 0.  1.
        -11    1    4    4    0    0 -0.90657745329E-02 -0.54271882991E-01  0.60039649248E-01  0.81441059387E-01  0.51100000000E-03 0. -1.
         11    1    4    4    0    0  0.97594143039E-02 -0.37182771422E-01  0.33373050702E-01  0.50909982246E-01  0.51100000000E-03 0.  1.
</event>
<event>
 7    1  0.1078274E+005  0.1043930E+01  0.7957747E-01            NaN
         13   -1    0    0    0    0  0.00000000000E+00  0.00000000000E+00  0.74505805969E-08  0.10566000000E+00  0.10566000000E+00 0.  1.
     999900   -1    0    0    0    0 -0.00000000000E+00 -0.00000000000E+00 -0.74505805969E-08  0.93827000000E+00  0.93827000000E+00 0.  1.
     999902    2    1    2    0    0  0.88332345759E-02 -0.12009985295E-01  0.23724027783E-01  0.10159104484E+01  0.10155239750E+01 0.  0.
         14    1    1    2    0    0 -0.88332345759E-02  0.12009985295E-01 -0.23724027783E-01  0.28019551641E-01  0.00000000000E+00 0. -1.
     999901    1    3    3    0    0 -0.20232514977E-01  0.53796490916E-01 -0.75761214367E-01  0.88512325622E+00  0.88000000000E+00 0.  1.
        -11    1    3    3    0    0 -0.10688318181E-01 -0.25798048720E-01  0.26060758699E-01  0.38199525236E-01  0.51100000000E-03 0.  1.
         11    1    3    3    0    0  0.39754067735E-01 -0.40008427492E-01  0.73424483451E-01  0.92587666905E-01  0.51100000000E-03 0. -1.
</event>
<event>
 8    1  0.1078274E+005  0.1043930E+01  0.7957747E-01            NaN
         13   -1    0    0    0    0  0.00000000000E+00  0.00000000000E+00  0.74505805969E-08  0.10566000000E+00  0.10566000000E+00 0.  1.
     999900   -1    0    0    0    0 -0.00000000000E+00 -0.00000000000E+00 -0.74505805969E-08  0.93827000000E+00  0.93827000000E+00 0. -1.
     999902    2    1    2    0    0  0.67747128310E-02  0.21856830437E-01  0.33548244811E-02  0.10208026868E+01  0.10205406668E+01 0.  0.
     999903    2    3    3    0    0  0.69547877373E-01  0.32899793695E-01  0.10615576992E+00  0.13252882605E+00  0.19378817676E-01 0.  0.
         14    1    1    2    0    0 -0.67747128310E-02 -0.21856830437E-01 -0.33548244811E-02  0.23127313246E-01  0.00000000000E+00 0.  1.
     999901    1    3    3    0    0 -0.62773164543E-01 -0.11042963258E-01 -0.10280094544E+00  0.88827386070E+00  0.88000000000E+00 0. -1.
        -11    1    4    4    0    0  0.40166702337E-01  0.26009560439E-01  0.53050667456E-01  0.71445753193E-01  0.51100000000E-03 0. -1.
         11    1    4    4    0    0  0.29381175037E-01  0.68902332560E-02  0.53105102467E-01  0.61083072858E-01  0.51100000000E-03 0.  1.
</event>
<event>
 8    1  0.1078274E+005  0.1043930E+01  0.7957747E-01            NaN
         13   -1    0    0    0    0  0.00000000000E+00  0.00000000000E+00  0.74505805969E-08  0.10566000000E+00  0.10566000000E+00 0. -1.
     999900   -1    0    0    0    0 -0.00000000000E+00 -0.00000000000E+00 -0.74505805969E-08  0.93827000000E+00  0.93827000000E+00 0.  1.
     999902    2    1    2    0    0  0.12163024477E-01 -0.11243700812E-01  0.17450061597E-01  0.10198703944E+01  0.10195865617E+01 0.  0.
     999903    2    3    3    0    0 -0.21053229609E-02 -0.14775609501E-01  0.12994890661E+00  0.13258687136E+00  0.21675080286E-01 0.  0.
         14    1    1    2    0    0 -0.12163024477E-01  0.11243700812E-01 -0.17450061597E-01  0.24059605610E-01  0.00000000000E+00 0.  1.
     999901    1    3    3    0    0  0.14268347438E-01  0.35319086890E-02 -0.11249884501E+00  0.88728352303E+00  0.88000000000E+00 0.  1.
        -11    1    4    4    0    0 -0.61854935371E-02  0.35758023213E-02  0.46230578390E-01  0.46782199518E-01  0.51100000000E-03 0. -1.
         11    1    4    4    0    0  0.40801705763E-02 -0.18351411822E-01  0.83718328222E-01  0.85804671838E-01  0.51100000000E-03 0.  1.
</event>
<event>
 8    1  0.1078274E+005  0.1043930E+01  0.7957747E-01            NaN
         13   -1    0    0    0    0  0.00000000000E+00  0.00000000000E+00  0.74505805969E-08  0.10566000000E+00  0.10566000000E+00 0.  1.
     999900   -1    0    0    0    0 -0.00000000000E+00 -0.00000000000E+00 -0.74505805969E-08  0.93827000000E+00  0.93827000000E+00 0. -1.
     999902    2    1    2    0    0  0.62420843146E-02  0.20897514698E-01 -0.10536222510E-01  0.10197084864E+01  0.10194207745E+01 0.  0.
     999903    2    3    3    0    0  0.60464107342E-01  0.79386129923E-01 -0.85584085377E-01  0.13292039015E+00  0.19624692305E-01 0.  0.
         14    1    1    2    0    0 -0.62420843146E-02 -0.20897514698E-01  0.10536222510E-01  0.24221513617E-01  0.00000000000E+00 0.  1.
     999901    1    3    3    0    0 -0.54222023028E-01 -0.58488615225E-01  0.75047862867E-01  0.88678809623E+00  0.88000000000E+00 0.  1.
        -11    1    4    4    0    0  0.34607405382E-01  0.43619234673E-01 -0.60202243827E-01  0.82005374358E-01  0.51100000000E-03 0. -1.
         11    1    4    4    0    0  0.25856701960E-01  0.35766895250E-01 -0.25381841550E-01  0.50915015796E-01  0.51100000000E-03 0.  1.
</event>
<event>
 8    1  0.1078274E+005  0.1043930E+01  0.7957747E-01            NaN
         13   -1    0    0    0    0  0.00000000000E+00  0.00000000000E+00  0.74505805969E-08  0.10566000000E+00  0.10566000000E+00 0. -1.
     999900   -1    0    0    0    0 -0.00000000000E+00 -0.00000000000E+00 -0.74505805969E-08  0.93827000000E+00  0.93827000000E+00 0. -1.
     999902    2    1    2    0    0 -0.19040641063E-02 -0.20875641776E-01  0.71729287512E-02  0.10217744412E+01  0.10215342089E+01 0.  0.
     999903    2    3    3    0    0 -0.46027658690E-01  0.57026342945E-01  0.10869310762E+00  0.13142509540E+00  0.93709605966E-02 0.  0.
         14    1    1    2    0    0  0.19040641063E-02  0.20875641776E-01 -0.71729287512E-02  0.22155558818E-01  0.00000000000E+00 0.  1.
     999901    1    3    3    0    0  0.44123594584E-01 -0.77901984721E-01 -0.10152017887E+00  0.89034934578E+00  0.88000000000E+00 0. -1.
        -11    1    4    4    0    0 -0.77240871528E-03  0.42765667382E-02  0.62930580532E-02  0.76648117361E-02  0.51100000000E-03 0. -1.
         11    1    4    4    0    0 -0.45255249975E-01  0.52749776207E-01  0.10240004956E+00  0.12376028366E+00  0.51100000000E-03 0.  1.
</event>
<event>
 8    1  0.1078274E+005  0.1043930E+01  0.7957747E-01            NaN
         13   -1    0    0    0    0  0.00000000000E+00  0.00000000000E+00  0.74505805969E-08  0.10566000000E+00  0.10566000000E+00 0. -1.
     999900   -1    0    0    0    0 -0.00000000000E+00 -0.00000000000E+00 -0.74505805969E-08  0.93827000000E+00  0.93827000000E+00 0.  1.
     999902    2    1    2    0    0 -0.16827102223E-01 -0.64316528999E-02  0.10888411076E-01  0.10228806526E+01  0.10226640477E+01 0.  0.
     999903    2    3    3    0    0  0.70849336835E-02 -0.62262818682E-02  0.13230943673E+00  0.13422161054E+00  0.20510748812E-01 0.  0.
         14    1    1    2    0    0  0.16827102223E-01  0.64316528999E-02 -0.10888411076E-01  0.21049347354E-01  0.00000000000E+00 0.  1.
     999901    1    3    3    0    0 -0.23912035907E-01 -0.20537103173E-03 -0.12142102566E+00  0.88865904210E+00  0.88000000000E+00 0.  1.
        -11    1    4    4    0    0 -0.19977728866E-03 -0.12116281361E-01  0.53606895934E-01  0.54961846745E-01  0.51100000000E-03 0.  1.
         11    1    4    4    0    0  0.72847109721E-02  0.58899994925E-02  0.78702540800E-01  0.79259763799E-01  0.51100000000E-03 0. -1.
</event>
<event>
 8    1  0.1078274E+005  0.1043930E+01  0.7957747E-01            NaN
         13   -1    0    0    0    0  0.00000000000E+00  0.00000000000E+00  0.74505805969E-08  0.10566000000E+00  0.10566000000E+00 0. -1.
     999900   -1    0    0    0    0 -0.00000000000E+00 -0.00000000000E+00 -0.74505805969E-08  0.93827000000E+00  0.93827000000E+00 0.  1.
     999902    2    1    2    0    0 -0.95978189263E-02 -0.12709546618E-01 -0.15749522398E-01  0.10215313804E+01  0.10212857891E+01 0.  0.
     999903    2    3    3    0    0  0.12110125947E+00  0.38099592384E-01 -0.24576641693E-01  0.13038507608E+00  0.16708164585E-01 0.  0.
         14    1    1    2    0    0  0.95978189263E-02  0.12709546618E-01  0.15749522398E-01  0.22398619581E-01  0.00000000000E+00 0. -1.
     999901    1    3    3    0    0 -0.13069907839E+00 -0.50809139002E-01  0.88271192948E-02  0.89114630434E+00  0.88000000000E+00 0.  1.
        -11    1    4    4    0    0  0.10830494192E+00  0.35040035826E-01 -0.27013202626E-01  0.11699461010E+00  0.51100000000E-03 0. -1.
         11    1    4    4    0    0  0.12796317544E-01  0.30595565585E-02  0.24365609325E-02  0.13390465981E-01  0.51100000000E-03 0.  1.
</event>
<event>
 8    1  0.1078274E+005  0.1043930E+01  0.7957747E-01            NaN
         13   -1    0    0    0    0  0.00000000000E+00  0.00000000000E+00  0.74505805969E-08  0.10566000000E+00  0.10566000000E+00 0. -1.
     999900   -1    0    0    0    0 -0.00000000000E+00 -0.00000000000E+00 -0.74505805969E-08  0.93827000000E+00  0.93827000000E+00 0.  1.
     999902    2    1    2    0    0  0.46096874655E-02  0.19151700563E-01  0.12674507447E-01  0.10205060808E+01  0.10202372180E+01 0.  0.
     999903    2    3    3    0    0 -0.35204706641E-01 -0.71070690329E-01 -0.98524488848E-01  0.12804292603E+00  0.19937442411E-01 0.  0.
         14    1    1    2    0    0 -0.46096874655E-02 -0.19151700563E-01 -0.12674507447E-01  0.23423919228E-01  0.00000000000E+00 0.  1.
     999901    1    3    3    0    0  0.39814394107E-01  0.90222390891E-01  0.11119899630E+00  0.89246315474E+00  0.88000000000E+00 0. -1.
        -11    1    4    4    0    0 -0.33594123435E-01 -0.58682379785E-01 -0.72318720806E-01  0.99007299361E-01  0.51100000000E-03 0. -1.
         11    1    4    4    0    0 -0.16105832060E-02 -0.12388310543E-01 -0.26205768042E-01  0.29035626669E-01  0.51100000000E-03 0.  1.
</event>
<event>
 8    1  0.1078274E+005  0.1043930E+01  0.7957747E-01            NaN
         13   -1    0    0    0    0  0.00000000000E+00  0.00000000000E+00  0.74505805969E-08  0.10566000000E+00  0.10566000000E+00 0. -1.
     999900   -1    0    0    0    0 -0.00000000000E+00 -0.00000000000E+00 -0.74505805969E-08  0.93827000000E+00  0.93827000000E+00 0. -1.
     999902    2    1    2    0    0 -0.73832987710E-02  0.22715064487E-01 -0.54573739740E-03  0.10200388911E+01  0.10197590668E+01 0.  0.
     999903    2    3    3    0    0 -0.12341700770E+00 -0.37079944997E-01  0.14879987597E-02  0.13040784350E+00  0.19932671530E-01 0.  0.
         14    1    1    2    0    0  0.73832987710E-02 -0.22715064487E-01  0.54573739740E-03  0.23891108904E-01  0.00000000000E+00 0. -1.
     999901    1    3    3    0    0  0.11603370893E+00  0.59795009484E-01 -0.20337361571E-02  0.88963104760E+00  0.88000000000E+00 0.  1.
        -11    1    4    4    0    0 -0.28127066682E-01 -0.14609432136E-01  0.65639826780E-02  0.32371505635E-01  0.51100000000E-03 0. -1.
         11    1    4    4    0    0 -0.95289941020E-01 -0.22470512861E-01 -0.50759839182E-02  0.98036337863E-01  0.51100000000E-03 0.  1.
</event>
<event>
 8    1  0.1078274E+005  0.1043930E+01  0.7957747E-01            NaN
         13   -1    0    0    0    0  0.00000000000E+00  0.00000000000E+00  0.74505805969E-08  0.10566000000E+00  0.10566000000E+00 0. -1.
     999900   -1    0    0    0    0 -0.00000000000E+00 -0.00000000000E+00 -0.74505805969E-08  0.93827000000E+00  0.93827000000E+00 0. -1.
     999902    2    1    2    0    0  0.11199844605E-01  0.19906775996E-01  0.15844720775E-02  0.10210340003E+01  0.10207772544E+01 0.  0.
     999903    2    3    3    0    0  0.76347929115E-01 -0.89586153076E-01 -0.51107482742E-01  0.13029867681E+00  0.22607195406E-01 0.  0.
         14    1    1    2    0    0 -0.11199844605E-01 -0.19906775996E-01 -0.15844720775E-02  0.22895999684E-01  0.00000000000E+00 0. -1.
     999901    1    3    3    0    0 -0.65148084509E-01  0.10949292907E+00  0.52691954819E-01  0.89073532350E+00  0.88000000000E+00 0. -1.
        -11    1    4    4    0    0  0.60865289481E-01 -0.57582034800E-01 -0.30283239588E-01  0.89093265268E-01  0.51100000000E-03 0. -1.
         11    1    4    4    0    0  0.15482639634E-01 -0.32004118277E-01 -0.20824243154E-01  0.41205411545E-01  0.51100000000E-03 0.  1.
</event>
<event>
 8    1  0.1078274E+005  0.1043930E+01  0.7957747E-01            NaN
         13   -1    0    0    0    0  0.00000000000E+00  0.00000000000E+00  0.74505805969E-08  0.10566000000E+00  0.10566000000E+00 0.  1.
     999900   -1    0    0    0    0 -0.00000000000E+00 -0.00000000000E+00 -0.74505805969E-08  0.93827000000E+00  0.93827000000E+00 0. -1.
     999902    2    1    2    0    0  0.18217311801E-01  0.39286533592E-02 -0.15930366411E-01  0.10194130397E+01  0.10191181797E+01 0.  0.
     999903    2    3    3    0    0  0.44072299726E-01  0.72158654300E-01  0.95580336782E-01  0.12938020307E+00  0.21316593830E-01 0.  0.
         14    1    1    2    0    0 -0.18217311801E-01 -0.39286533592E-02  0.15930366411E-01  0.24516960261E-01  0.00000000000E+00 0. -1.
     999901    1    3    3    0    0 -0.25854987925E-01 -0.68230000941E-01 -0.11151070319E+00  0.89003283667E+00  0.88000000000E+00 0. -1.
        -11    1    4    4    0    0  0.14315170613E-01  0.39296554539E-01  0.36487472205E-01  0.55504414754E-01  0.51100000000E-03 0. -1.
         11    1    4    4    0    0  0.29757129113E-01  0.32862099761E-01  0.59092864577E-01  0.73875788312E-01  0.51100000000E-03 0.  1.
</event>
<event>
 8    1  0.1078274E+005  0.1043930E+01  0.7957747E-01            NaN
         13   -1    0    0    0    0  0.00000000000E+00  0.00000000000E+00  0.74505805969E-08  0.10566000000E+00  0.10566000000E+00 0.  1.
     999900   -1    0    0    0    0 -0.00000000000E+00 -0.00000000000E+00 -0.74505805969E-08  0.93827000000E+00  0.93827000000E+00 0. -1.
     999902    2    1    2    0    0  0.10402628085E-01 -0.17151083596E-01 -0.12896588025E-01  0.10200826454E+01  0.10198038572E+01 0.  0.
     999903    2    3    3    0    0 -0.41765794587E-01  0.57320410536E-01 -0.10748827554E+00  0.13035508309E+00  0.20216509247E-01 0.  0.
         14    1    1    2    0    0 -0.10402628085E-01  0.17151083596E-01  0.12896588025E-01  0.23847354618E-01  0.00000000000E+00 0. -1.
     999901    1    3    3    0    0  0.52168422672E-01 -0.74471494132E-01  0.94591687516E-01  0.88972756230E+00  0.88000000000E+00 0.  1.
        -11    1    4    4    0    0 -0.29172036081E-01  0.39512215254E-01 -0.56316170123E-01  0.74726133191E-01  0.51100000000E-03 0.  1.
         11    1    4    4    0    0 -0.12593758506E-01  0.17808195282E-01 -0.51172105418E-01  0.55628949895E-01  0.51100000000E-03 0. -1.
</event>
<event>
 8    1  0.1078274E+005  0.1043930E+01  0.7957747E-01            NaN
         13   -1    0    0    0    0  0.00000000000E+00  0.00000000000E+00  0.74505805969E-08  0.10566000000E+00  0.10566000000E+00 0.  1.
     999900   -1    0    0    0    0 -0.00000000000E+00 -0.00000000000E+00 -0.74505805969E-08  0.93827000000E+00  0.93827000000E+00 0.  1.
     999902    2    1    2    0    0  0.67218944920E-02  0.18933240899E-01 -0.12391522111E-01  0.10203248883E+01  0.10200518009E+01 0.  0.
     999903    2    3    3    0    0 -0.95546905587E-01 -0.68107495502E-01 -0.50454662093E-01  0.12932331713E+00  0.20273266041E-01 0.  0.
         14    1    1    2    0    0 -0.67218944920E-02 -0.18933240899E-01  0.12391522111E-01  0.23605111665E-01  0.00000000000E+00 0.  1.
     999901    1    3    3    0    0  0.10226880008E+00  0.87040736401E-01  0.38063139982E-01  0.89100157120E+00  0.88000000000E+00 0. -1.
        -11    1    4    4    0    0 -0.65642236206E-01 -0.57278570852E-01 -0.34103321626E-01  0.93557658799E-01  0.51100000000E-03 0.  1.
         11    1    4    4    0    0 -0.29904669381E-01 -0.10828924650E-01 -0.16351340467E-01  0.35765658332E-01  0.51100000000E-03 0. -1.
</event>
<event>
 8    1  0.1078274E+005  0.1043930E+01  0.7957747E-01            NaN
         13   -1    0    0    0    0  0.00000000000E+00  0.00000000000E+00  0.74505805969E-08  0.10566000000E+00  0.10566000000E+00 0. -1.
     999900   -1    0    0    0    0 -0.00000000000E+00 -0.00000000000E+00 -0.74505805969E-08  0.93827000000E+00  0.93827000000E+00 0.  1.
     999902    2    1    2    0    0 -0.23740169246E-01 -0.37119933530E-02 -0.50919242663E-02  0.10193677887E+01  0.10190718260E+01 0.  0.
     999903    2    3    3    0    0 -0.65448616298E-01  0.11145976693E+00 -0.36613149158E-02  0.13088246212E+00  0.20248768956E-01 0.  0.
         14    1    1    2    0    0  0.23740169246E-01  0.37119933530E-02  0.50919242663E-02  0.24562211286E-01  0.00000000000E+00 0.  1.
     999901    1    3    3    0    0  0.41708447052E-01 -0.11517176029E+00 -0.14306093505E-02  0.88848532659E+00  0.88000000000E+00 0.  1.
        -11    1    4    4    0    0 -0.37267734480E-01  0.77609997633E-01 -0.87608097643E-02  0.86540214205E-01  0.51100000000E-03 0. -1.
         11    1    4    4    0    0 -0.28180881818E-01  0.33849769302E-01  0.50994948485E-02  0.44342247919E-01  0.51100000000E-03 0.  1.
</event>
<event>
 8    1  0.1078274E+005  0.1043930E+01  0.7957747E-01            NaN
         13   -1    0    0    0    0  0.00000000000E+00  0.00000000000E+00  0.74505805969E-08  0.10566000000E+00  0.10566000000E+00 0. -1.
     999900   -1    0    0    0    0 -0.00000000000E+00 -0.00000000000E+00 -0.74505805969E-08  0.93827000000E+00  0.93827000000E+00 0.  1.
     999902    2    1    2    0    0 -0.66313668450E-03  0.18136371118E-01  0.15595435673E-01  0.10200012449E+01  0.10197205275E+01 0.  0.
     999903    2    3    3    0    0  0.10568133085E+00  0.75549563695E-01  0.65252012600E-02  0.13169516610E+00  0.20609664170E-01 0.  0.
         14    1    1    2    0    0  0.66313668450E-03 -0.18136371118E-01 -0.15595435673E-01  0.23928755116E-01  0.00000000000E+00 0.  1.
     999901    1    3    3    0    0 -0.10634446753E+00 -0.57413192577E-01  0.90702344130E-02  0.88830607879E+00  0.88000000000E+00 0. -1.
        -11    1    4    4    0    0  0.31668292728E-01  0.33318884608E-01  0.68586884263E-02  0.46479367076E-01  0.51100000000E-03 0. -1.
         11    1    4    4    0    0  0.74013038122E-01  0.42230679086E-01 -0.33348716629E-03  0.85215799021E-01  0.51100000000E-03 0.  1.
</event>
<event>
 8    1  0.1078274E+005  0.1043930E+01  0.7957747E-01            NaN
         13   -1    0    0    0    0  0.00000000000E+00  0.00000000000E+00  0.74505805969E-08  0.10566000000E+00  0.10566000000E+00 0.  1.
     999900   -1    0    0    0    0 -0.00000000000E+00 -0.00000000000E+00 -0.74505805969E-08  0.93827000000E+00  0.93827000000E+00 0. -1.
     999902    2    1    2    0    0 -0.15553935006E-01  0.16473497955E-01  0.62123929290E-02  0.10204375575E+01  0.10201671010E+01 0.  0.
     999903    2    3    3    0    0  0.84245017025E-02  0.12125611495E+00 -0.48106193338E-01  0.13223438757E+00  0.19942662243E-01 0.  0.
         14    1    1    2    0    0  0.15553935006E-01 -0.16473497955E-01 -0.62123929290E-02  0.23492442507E-01  0.00000000000E+00 0. -1.
     999901    1    3    3    0    0 -0.23978436708E-01 -0.10478261699E+00  0.54318586267E-01  0.88820316992E+00  0.88000000000E+00 0.  1.
        -11    1    4    4    0    0  0.14303481282E-01  0.10294072316E+00 -0.40559218924E-01  0.11156474991E+00  0.51100000000E-03 0.  1.
         11    1    4    4    0    0 -0.58789795795E-02  0.18315391789E-01 -0.75469744136E-02  0.20669637662E-01  0.51100000000E-03 0. -1.
</event>
<event>
 8    1  0.1078274E+005  0.1043930E+01  0.7957747E-01            NaN
         13   -1    0    0    0    0  0.00000000000E+00  0.00000000000E+00  0.74505805969E-08  0.10566000000E+00  0.10566000000E+00 0. -1.
     999900   -1    0    0    0    0 -0.00000000000E+00 -0.00000000000E+00 -0.74505805969E-08  0.93827000000E+00  0.93827000000E+00 0. -1.
     999902    2    1    2    0    0 -0.19602333346E-01  0.96268645642E-02 -0.58938950004E-02  0.10213099648E+01  0.10210594391E+01 0.  0.
     999903    2    3    3    0    0  0.78644876775E-01 -0.35640327385E-01 -0.95296522954E-01  0.13019018450E+00  0.20317659175E-01 0.  0.
         14    1    1    2    0    0  0.19602333346E-01 -0.96268645642E-02  0.58938950004E-02  0.22620035195E-01  0.00000000000E+00 0. -1.
     999901    1    3    3    0    0 -0.98247210121E-01  0.45267191949E-01  0.89402627954E-01  0.89111978030E+00  0.88000000000E+00 0.  1.
        -11    1    4    4    0    0  0.73950210559E-01 -0.28794403212E-01 -0.79460354758E-01  0.11230298481E+00  0.51100000000E-03 0. -1.
         11    1    4    4    0    0  0.46946662161E-02 -0.68459241724E-02 -0.15836168196E-01  0.17887199691E-01  0.51100000000E-03 0.  1.
</event>
<event>
 8    1  0.1078274E+005  0.1043930E+01  0.7957747E-01            NaN
         13   -1    0    0    0    0  0.00000000000E+00  0.00000000000E+00  0.74505805969E-08  0.10566000000E+00  0.10566000000E+00 0.  1.
     999900   -1    0    0    0    0 -0.00000000000E+00 -0.00000000000E+00 -0.74505805969E-08  0.93827000000E+00  0.93827000000E+00 0. -1.
     999902    2    1    2    0    0 -0.14130188410E-01  0.16159810620E-01  0.99951853622E-02  0.10202507805E+01  0.10199759555E+01 0.  0.
     999903    2    3    3    0    0 -0.65896302648E-01  0.11397587939E+00 -0.22081874716E-02  0.13323520221E+00  0.20345005055E-01 0.  0.
         14    1    1    2    0    0  0.14130188410E-01 -0.16159810620E-01 -0.99951853622E-02  0.23679219460E-01  0.00000000000E+00 0.  1.
     999901    1    3    3    0    0  0.51766114238E-01 -0.97816068769E-01  0.12203372834E-01  0.88701557833E+00  0.88000000000E+00 0.  1.
        -11    1    4    4    0    0 -0.33575563184E-01  0.38374462851E-01 -0.12727398680E-02  0.51007831066E-01  0.51100000000E-03 0. -1.
         11    1    4    4    0    0 -0.32320739464E-01  0.75601416538E-01 -0.93544760356E-03  0.82227371144E-01  0.51100000000E-03 0.  1.
</event>
<event>
 8    1  0.1078274E+005  0.1043930E+01  0.7957747E-01            NaN
         13   -1    0    0    0    0  0.00000000000E+00  0.00000000000E+00  0.74505805969E-08  0.10566000000E+00  0.10566000000E+00 0.  1.
     999900   -1    0    0    0    0 -0.00000000000E+00 -0.00000000000E+00 -0.74505805969E-08  0.93827000000E+00  0.93827000000E+00 0.  1.
     999902    2    1    2    0    0 -0.17450634937E-01 -0.87105979462E-02 -0.35737352981E-02  0.10241014660E+01  0.10239094891E+01 0.  0.
     999903    2    3    3    0    0  0.51255080703E-01 -0.11834042709E+00  0.31080203167E-01  0.13396660530E+00  0.18695783636E-01 0.  0.
         14    1    1    2    0    0  0.17450634937E-01  0.87105979462E-02  0.35737352981E-02  0.19828533992E-01  0.00000000000E+00 0. -1.
     999901    1    3    3    0    0 -0.68705715640E-01  0.10962982914E+00 -0.34653938465E-01  0.89013486071E+00  0.88000000000E+00 0.  1.
        -11    1    4    4    0    0  0.26324495357E-01 -0.55583308275E-01  0.24175921030E-01  0.66084941502E-01  0.51100000000E-03 0. -1.
         11    1    4    4    0    0  0.24930585347E-01 -0.62757118810E-01  0.69042821366E-02  0.67881663797E-01  0.51100000000E-03 0.  1.
</event>
<event>
 8    1  0.1078274E+005  0.1043930E+01  0.7957747E-01            NaN
         13   -1    0    0    0    0  0.00000000000E+00  0.00000000000E+00  0.74505805969E-08  0.10566000000E+00  0.10566000000E+00 0.  1.
     999900   -1    0    0    0    0 -0.00000000000E+00 -0.00000000000E+00 -0.74505805969E-08  0.93827000000E+00  0.93827000000E+00 0. -1.
     999902    2    1    2    0    0 -0.18173663839E-01  0.69679440400E-02 -0.13591660346E-01  0.10201904227E+01  0.10199141782E+01 0.  0.
     999903    2    3    3    0    0  0.55930444004E-01 -0.65440697581E-01  0.92343447523E-01  0.12780223512E+00  0.19884655745E-01 0.  0.
         14    1    1    2    0    0  0.18173663839E-01 -0.69679440400E-02  0.13591660346E-01  0.23739577343E-01  0.00000000000E+00 0. -1.
     999901    1    3    3    0    0 -0.74104107844E-01  0.72408641621E-01 -0.10593510787E+00  0.89238818754E+00  0.88000000000E+00 0. -1.
        -11    1    4    4    0    0  0.30992784216E-01 -0.23784219935E-01  0.33115453536E-01  0.51216561533E-01  0.51100000000E-03 0. -1.
         11    1    4    4    0    0  0.24937659788E-01 -0.41656477646E-01  0.59227993987E-01  0.76585673584E-01  0.51100000000E-03 0.  1.
</event>
<event>
 8    1  0.1078274E+005  0.1043930E+01  0.7957747E-01            NaN
         13   -1    0    0    0    0  0.00000000000E+00  0.00000000000E+00  0.74505805969E-08  0.10566000000E+00  0.10566000000E+00 0. -1.
     999900   -1    0    0    0    0 -0.00000000000E+00 -0.00000000000E+00 -0.74505805969E-08  0.93827000000E+00  0.93827000000E+00 0. -1.
     999902    2    1    2    0    0 -0.22190118507E-01  0.56215098377E-02  0.86390460438E-02  0.10194629640E+01  0.10191693182E+01 0.  0.
     999903    2    3    3    0    0  0.38052867139E-01  0.12077733244E+00  0.19828767888E-01  0.12984771536E+00  0.20786159337E-01 0.  0.
         14    1    1    2    0    0  0.22190118507E-01 -0.56215098377E-02 -0.86390460438E-02  0.24467035962E-01  0.00000000000E+00 0. -1.
     999901    1    3    3    0    0 -0.60242985646E-01 -0.11515582260E+00 -0.11189721844E-01  0.88961524867E+00  0.88000000000E+00 0.  1.
        -11    1    4    4    0    0  0.33847791731E-01  0.79554072930E-01  0.84215665337E-02  0.86866031501E-01  0.51100000000E-03 0. -1.
         11    1    4    4    0    0  0.42050754081E-02  0.41223259512E-01  0.11407201354E-01  0.42981683863E-01  0.51100000000E-03 0.  1.
</event>
<event>
 8    1  0.1078274E+005  0.1043930E+01  0.7957747E-01            NaN
         13   -1    0    0    0    0  0.00000000000E+00  0.00000000000E+00  0.74505805969E-08  0.10566000000E+00  0.10566000000E+00 0. -1.
     999900   -1    0    0    0    0 -0.00000000000E+00 -0.00000000000E+00 -0.74505805969E-08  0.93827000000E+00  0.93827000000E+00 0.  1.
     999902    2    1    2    0    0  0.68076164748E-02  0.19525662709E-01  0.11298945740E-01  0.10203660164E+01  0.10200938909E+01 0.  0.
     999903    2    3    3    0    0  0.16441089326E-01 -0.11760073710E+00  0.46298679114E-01  0.12900669795E+00  0.19972922747E-01 0.  0.
         14    1    1    2    0    0 -0.68076164748E-02 -0.19525662709E-01 -0.11298945740E-01  0.23563983558E-01  0.00000000000E+00 0. -1.
     999901    1    3    3    0    0 -0.96334728509E-02  0.13712639981E+00 -0.34999733374E-01  0.89135931849E+00  0.88000000000E+00 0. -1.
        -11    1    4    4    0    0  0.29573297200E-02 -0.80740026941E-01  0.35814808138E-01  0.88377934760E-01  0.51100000000E-03 0. -1.
         11    1    4    4    0    0  0.13483759606E-01 -0.36860710163E-01  0.10483870976E-01  0.40628763191E-01  0.51100000000E-03 0.  1.
</event>
<event>
 8    1  0.1078274E+005  0.1043930E+01  0.7957747E-01            NaN
         13   -1    0    0    0    0  0.00000000000E+00  0.00000000000E+00  0.74505805969E-08  0.10566000000E+00  0.10566000000E+00 0.  1.
     999900   -1    0    0    0    0 -0.00000000000E+00 -0.00000000000E+00 -0.74505805969E-08  0.93827000000E+00  0.93827000000E+00 0. -1.
     999902    2    1    2    0    0  0.22089950235E-01  0.33939395233E-02 -0.10693064239E-01  0.10191544808E+01  0.10188532914E+01 0.  0.
     999903    2    3    3    0    0 -0.10043277111E+00  0.49578883420E-01  0.56585329831E-01  0.12692623168E+00  0.19067289860E-01 0.  0.
         14    1    1    2    0    0 -0.22089950235E-01 -0.33939395233E-02  0.10693064239E-01  0.24775519161E-01  0.00000000000E+00 0.  1.
     999901    1    3    3    0    0  0.12252272134E+00 -0.46184943897E-01 -0.67278394070E-01  0.89222824916E+00  0.88000000000E+00 0. -1.
        -11    1    4    4    0    0 -0.90645352586E-01  0.50040634764E-01  0.54012241630E-01  0.11678282596E+00  0.51100000000E-03 0.  1.
         11    1    4    4    0    0 -0.97874185234E-02 -0.46175134386E-03  0.25730882010E-02  0.10143405717E-01  0.51100000000E-03 0. -1.
</event>
<event>
 8    1  0.1078274E+005  0.1043930E+01  0.7957747E-01            NaN
         13   -1    0    0    0    0  0.00000000000E+00  0.00000000000E+00  0.74505805969E-08  0.10566000000E+00  0.10566000000E+00 0.  1.
     999900   -1    0    0    0    0 -0.00000000000E+00 -0.00000000000E+00 -0.74505805969E-08  0.93827000000E+00  0.93827000000E+00 0. -1.
     999902    2    1    2    0    0 -0.17551512206E-01 -0.15541783021E-01 -0.27228497338E-02  0.10203288028E+01  0.10200558069E+01 0.  0.
     999903    2    3    3    0    0 -0.11197504682E+00  0.22835718971E-01  0.63094900118E-01  0.13200419276E+00  0.19602533380E-01 0.  0.
         14    1    1    2    0    0  0.17551512206E-01  0.15541783021E-01  0.27228497338E-02  0.23601197234E-01  0.00000000000E+00 0. -1.
     999901    1    3    3    0    0  0.94423534610E-01 -0.38377501992E-01 -0.65817749852E-01  0.88832461001E+00  0.88000000000E+00 0.  1.
        -11    1    4    4    0    0 -0.29796701853E-01  0.81080390532E-02  0.77665114729E-02  0.31845934749E-01  0.51100000000E-03 0.  1.
         11    1    4    4    0    0 -0.82178344963E-01  0.14727679918E-01  0.55328388645E-01  0.10015825801E+00  0.51100000000E-03 0. -1.
</event>
<event>
 8    1  0.1078274E+005  0.1043930E+01  0.7957747E-01            NaN
         13   -1    0    0    0    0  0.00000000000E+00  0.00000000000E+00  0.74505805969E-08  0.10566000000E+00  0.10566000000E+00 0.  1.
     999900   -1    0    0    0    0 -0.00000000000E+00 -0.00000000000E+00 -0.74505805969E-08  0.93827000000E+00  0.93827000000E+00 0.  1.
     999902    2    1    2    0    0 -0.14796528554E-01  0.12338596268E-02 -0.19132200862E-01  0.10197122219E+01  0.10194245998E+01 0.  0.
     999903    2    3    3    0    0 -0.12486856696E+00 -0.32753975574E-01  0.15291058071E-01  0.13153657072E+00  0.20076629398E-01 0.  0.
         14    1    1    2    0    0  0.14796528554E-01 -0.12338596268E-02  0.19132200862E-01  0.24217778111E-01  0.00000000000E+00 0.  1.
     999901    1    3    3    0    0  0.11007203841E+00  0.33987835201E-01 -0.34423258933E-01  0.88817565117E+00  0.88000000000E+00 0.  1.
        -11    1    4    4    0    0 -0.38824097405E-01 -0.18367083967E-01 -0.78449541600E-04  0.42952620270E-01  0.51100000000E-03 0. -1.
         11    1    4    4    0    0 -0.86044469556E-01 -0.14386891607E-01  0.15369507612E-01  0.88583950446E-01  0.51100000000E-03 0.  1.
</event>
<event>
 8    1  0.1078274E+005  0.1043930E+01  0.7957747E-01            NaN
         13   -1    0    0    0    0  0.00000000000E+00  0.00000000000E+00  0.74505805969E-08  0.10566000000E+00  0.10566000000E+00 0. -1.
     999900   -1    0    0    0    0 -0.00000000000E+00 -0.00000000000E+00 -0.74505805969E-08  0.93827000000E+00  0.93827000000E+00 0. -1.
     999902    2    1    2    0    0  0.96000774468E-03  0.24844178177E-01  0.72236111142E-02  0.10180391645E+01  0.10177098826E+01 0.  0.
     999903    2    3    3    0    0  0.29519966967E-01 -0.50599603815E-01 -0.11045426330E+00  0.12654854896E+00  0.19561252689E-01 0.  0.
         14    1    1    2    0    0 -0.96000774468E-03 -0.24844178177E-01 -0.72236111142E-02  0.25890835477E-01  0.00000000000E+00 0.  1.
     999901    1    3    3    0    0 -0.28559959222E-01  0.75443781992E-01  0.11767787441E+00  0.89149061556E+00  0.88000000000E+00 0.  1.
        -11    1    4    4    0    0  0.32180064388E-01 -0.45113854713E-01 -0.95896981298E-01  0.11075788267E+00  0.51100000000E-03 0.  1.
         11    1    4    4    0    0 -0.26600974216E-02 -0.54857491022E-02 -0.14557282002E-01  0.15790666287E-01  0.51100000000E-03 0. -1.
</event>
<event>
 8    1  0.1078274E+005  0.1043930E+01  0.7957747E-01            NaN
         13   -1    0    0    0    0  0.00000000000E+00  0.00000000000E+00  0.74505805969E-08  0.10566000000E+00  0.10566000000E+00 0. -1.
     999900   -1    0    0    0    0 -0.00000000000E+00 -0.00000000000E+00 -0.74505805969E-08  0.93827000000E+00  0.93827000000E+00 0. -1.
     999902    2    1    2    0    0 -0.18790122281E-01 -0.11047145906E-01  0.19541554625E-01  0.10146557710E+01  0.10142333820E+01 0.  0.
     999903    2    3    3    0    0 -0.67337414217E-01 -0.24861983843E-01 -0.10040835298E+00  0.12508527369E+00  0.20298836228E-01 0.  0.
         14    1    1    2    0    0  0.18790122281E-01  0.11047145906E-01 -0.19541554625E-01  0.29274229028E-01  0.00000000000E+00 0.  1.
     999901    1    3    3    0    0  0.48547291935E-01  0.13814837937E-01  0.11994990760E+00  0.88957049728E+00  0.88000000000E+00 0.  1.
        -11    1    4    4    0    0 -0.20793315952E-01  0.15754961604E-02 -0.24106075766E-01  0.31878020426E-01  0.51100000000E-03 0.  1.
         11    1    4    4    0    0 -0.46544098265E-01 -0.26437480003E-01 -0.76302277213E-01  0.93207253264E-01  0.51100000000E-03 0. -1.
</event>
<event>
 8    1  0.1078274E+005  0.1043930E+01  0.7957747E-01            NaN
         13   -1    0    0    0    0  0.00000000000E+00  0.00000000000E+00  0.74505805969E-08  0.10566000000E+00  0.10566000000E+00 0. -1.
     999900   -1    0    0    0    0 -0.00000000000E+00 -0.00000000000E+00 -0.74505805969E-08  0.93827000000E+00  0.93827000000E+00 0.  1.
     999902    2    1    2    0    0  0.21754911321E-02  0.18229741255E-01  0.14450014094E-01  0.10205663715E+01  0.10202989070E+01 0.  0.
     999903    2    3    3    0    0 -0.95646207882E-01 -0.50343633825E-01  0.70677896855E-01  0.13071640251E+00  0.20217176673E-01 0.  0.
         14    1    1    2    0    0 -0.21754911321E-02 -0.18229741255E-01 -0.14450014094E-01  0.23363628468E-01  0.00000000000E+00 0. -1.
     999901    1    3    3    0    0  0.97821699014E-01  0.68573375079E-01 -0.56227882761E-01  0.88984996902E+00  0.88000000000E+00 0.  1.
        -11    1    4    4    0    0 -0.18992990344E-01 -0.19555653797E-01  0.15302430002E-01  0.31266319940E-01  0.51100000000E-03 0. -1.
         11    1    4    4    0    0 -0.76653217538E-01 -0.30787980028E-01  0.55375466853E-01  0.99450082571E-01  0.51100000000E-03 0.  1.
</event>
<event>
 8    1  0.1078274E+005  0.1043930E+01  0.7957747E-01            NaN
         13   -1    0    0    0    0  0.00000000000E+00  0.00000000000E+00  0.74505805969E-08  0.10566000000E+00  0.10566000000E+00 0. -1.
     999900   -1    0    0    0    0 -0.00000000000E+00 -0.00000000000E+00 -0.74505805969E-08  0.93827000000E+00  0.93827000000E+00 0. -1.
     999902    2    1    2    0    0 -0.20253721001E-01  0.96699841239E-02 -0.80441321104E-02  0.10200882327E+01  0.10198095766E+01 0.  0.
     999903    2    3    3    0    0 -0.11050477854E+00 -0.12828952665E-01 -0.70217450262E-01  0.13300482227E+00  0.19593476428E-01 0.  0.
         14    1    1    2    0    0  0.20253721001E-01 -0.96699841239E-02  0.80441321104E-02  0.23841767316E-01  0.00000000000E+00 0. -1.
     999901    1    3    3    0    0  0.90251057541E-01  0.22498936789E-01  0.62173318152E-01  0.88708341042E+00  0.88000000000E+00 0.  1.
        -11    1    4    4    0    0 -0.10466373792E+00 -0.12746525684E-01 -0.60244637284E-01  0.12143578300E+00  0.51100000000E-03 0.  1.
         11    1    4    4    0    0 -0.58410406258E-02 -0.82426980955E-04 -0.99728129785E-02  0.11569039264E-01  0.51100000000E-03 0. -1.
</event>
<event>
 8    1  0.1078274E+005  0.1043930E+01  0.7957747E-01            NaN
         13   -1    0    0    0    0  0.00000000000E+00  0.00000000000E+00  0.74505805969E-08  0.10566000000E+00  0.10566000000E+00 0. -1.
     999900   -1    0    0    0    0 -0.00000000000E+00 -0.00000000000E+00 -0.74505805969E-08  0.93827000000E+00  0.93827000000E+00 0. -1.
     999902    2    1    2    0    0  0.19689777243E-01 -0.91535131742E-02  0.14496144336E-01  0.10178222936E+01  0.10174874000E+01 0.  0.
     999903    2    3    3    0    0  0.32556842858E-01  0.64939396196E-01  0.10600759948E+00  0.12988667264E+00  0.18864341684E-01 0.  0.
         14    1    1    2    0    0 -0.19689777243E-01  0.91535131742E-02 -0.14496144336E-01  0.26107706370E-01  0.00000000000E+00 0.  1.
     999901    1    3    3    0    0 -0.12867065615E-01 -0.74092909370E-01 -0.91511455144E-01  0.88793562099E+00  0.88000000000E+00 0.  1.
        -11    1    4    4    0    0  0.63550438967E-02  0.33345105221E-01  0.45517373210E-01  0.56783580462E-01  0.51100000000E-03 0. -1.
         11    1    4    4    0    0  0.26201798962E-01  0.31594290975E-01  0.60490226270E-01  0.73103092180E-01  0.51100000000E-03 0.  1.
</event>
<event>
 8    1  0.1078274E+005  0.1043930E+01  0.7957747E-01            NaN
         13   -1    0    0    0    0  0.00000000000E+00  0.00000000000E+00  0.74505805969E-08  0.10566000000E+00  0.10566000000E+00 0.  1.
     999900   -1    0    0    0    0 -0.00000000000E+00 -0.00000000000E+00 -0.74505805969E-08  0.93827000000E+00  0.93827000000E+00 0.  1.
     999902    2    1    2    0    0  0.20164909564E-01 -0.96871025933E-02 -0.82258404873E-02  0.10200945645E+01  0.10198160582E+01 0.  0.
     999903    2    3    3    0    0 -0.71031179159E-01 -0.10517429276E+00 -0.21359032910E-01  0.13014680713E+00  0.19362924617E-01 0.  0.
         14    1    1    2    0    0 -0.20164909564E-01  0.96871025933E-02  0.82258404873E-02  0.23835435513E-01  0.00000000000E+00 0.  1.
     999901    1    3    3    0    0  0.91196088723E-01  0.95487190162E-01  0.13133192423E-01  0.88994775736E+00  0.88000000000E+00 0. -1.
        -11    1    4    4    0    0 -0.39014115226E-01 -0.52904292833E-01 -0.20443101512E-01  0.68841462124E-01  0.51100000000E-03 0. -1.
         11    1    4    4    0    0 -0.32017063933E-01 -0.52269999923E-01 -0.91593139789E-03  0.61305345005E-01  0.51100000000E-03 0.  1.
</event>
<event>
 8    1  0.1078274E+005  0.1043930E+01  0.7957747E-01            NaN
         13   -1    0    0    0    0  0.00000000000E+00  0.00000000000E+00  0.74505805969E-08  0.10566000000E+00  0.10566000000E+00 0. -1.
     999900   -1    0    0    0    0 -0.00000000000E+00 -0.00000000000E+00 -0.74505805969E-08  0.93827000000E+00  0.93827000000E+00 0. -1.
     999902    2    1    2    0    0  0.13972099297E-01 -0.18878477984E-01  0.41673457567E-03  0.10204397859E+01  0.10201693813E+01 0.  0.
     999903    2    3    3    0    0 -0.12864124172E-01  0.93234603717E-01 -0.86224252080E-01  0.12870205175E+00  0.16474812798E-01 0.  0.
         14    1    1    2    0    0 -0.13972099297E-01  0.18878477984E-01 -0.41673457567E-03  0.23490214078E-01  0.00000000000E+00 0. -1.
     999901    1    3    3    0    0  0.26836223468E-01 -0.11211308170E+00  0.86640986656E-01  0.89173773417E+00  0.88000000000E+00 0.  1.
        -11    1    4    4    0    0 -0.15899776846E-01  0.60552646727E-01 -0.59530996759E-01  0.86392283368E-01  0.51100000000E-03 0.  1.
         11    1    4    4    0    0  0.30356526737E-02  0.32681956990E-01 -0.26693255321E-01  0.42309768381E-01  0.51100000000E-03 0. -1.
</event>
<event>
 8    1  0.1078274E+005  0.1043930E+01  0.7957747E-01            NaN
         13   -1    0    0    0    0  0.00000000000E+00  0.00000000000E+00  0.74505805969E-08  0.10566000000E+00  0.10566000000E+00 0.  1.
     999900   -1    0    0    0    0 -0.00000000000E+00 -0.00000000000E+00 -0.74505805969E-08  0.93827000000E+00  0.93827000000E+00 0.  1.
     999902    2    1    2    0    0  0.24846024324E-03  0.83479620097E-02  0.21876696822E-01  0.10205133379E+01  0.10202446435E+01 0.  0.
     999903    2    3    3    0    0 -0.11681832320E+00  0.53740926255E-01  0.19096089425E-01  0.13159664616E+00  0.20455044838E-01 0.  0.
         14    1    1    2    0    0 -0.24846024324E-03 -0.83479620097E-02 -0.21876696822E-01  0.23416662145E-01  0.00000000000E+00 0. -1.
     999901    1    3    3    0    0  0.11706678345E+00 -0.45392964245E-01  0.27806073966E-02  0.88891669169E+00  0.88000000000E+00 0.  1.
        -11    1    4    4    0    0 -0.65032737722E-01  0.29800448211E-01  0.20856202104E-01  0.74515541844E-01  0.51100000000E-03 0. -1.
         11    1    4    4    0    0 -0.51785585482E-01  0.23940478044E-01 -0.17601126786E-02  0.57081104319E-01  0.51100000000E-03 0.  1.
</event>
<event>
 7    1  0.1078274E+005  0.1043930E+01  0.7957747E-01            NaN
         13   -1    0    0    0    0  0.00000000000E+00  0.00000000000E+00  0.74505805969E-08  0.10566000000E+00  0.10566000000E+00 0.  1.
     999900   -1    0    0    0    0 -0.00000000000E+00 -0.00000000000E+00 -0.74505805969E-08  0.93827000000E+00  0.93827000000E+00 0. -1.
     999902    2    1    2    0    0  0.12227553989E-01 -0.19931827565E-01 -0.49662650139E-02  0.10200248831E+01  0.10197447266E+01 0.  0.
         14    1    1    2    0    0 -0.12227553989E-01  0.19931827565E-01  0.49662650139E-02  0.23905116917E-01  0.00000000000E+00 0.  1.
     999901    1    3    3    0    0  0.90731012304E-01 -0.24006372364E-03 -0.86396734298E-01  0.88887376490E+00  0.88000000000E+00 0. -1.
        -11    1    3    3    0    0 -0.20103044758E-01 -0.32868364261E-01  0.51205324739E-01  0.64083603054E-01  0.51100000000E-03 0. -1.
         11    1    3    3    0    0 -0.58400413557E-01  0.13176600420E-01  0.30225144545E-01  0.67067515132E-01  0.51100000000E-03 0.  1.
</event>
<event>
 8    1  0.1078274E+005  0.1043930E+01  0.7957747E-01            NaN
         13   -1    0    0    0    0  0.00000000000E+00  0.00000000000E+00  0.74505805969E-08  0.10566000000E+00  0.10566000000E+00 0.  1.
     999900   -1    0    0    0    0 -0.00000000000E+00 -0.00000000000E+00 -0.74505805969E-08  0.93827000000E+00  0.93827000000E+00 0. -1.
     999902    2    1    2    0    0  0.20293563698E-01  0.96575830962E-02  0.75942059637E-02  0.10202072345E+01  0.10199313858E+01 0.  0.
     999903    2    3    3    0    0 -0.10869196291E-01 -0.40802818726E-01  0.12207549845E+00  0.13081230754E+00  0.20650013076E-01 0.  0.
         14    1    1    2    0    0 -0.20293563698E-01 -0.96575830962E-02 -0.75942059637E-02  0.23722765502E-01  0.00000000000E+00 0. -1.
     999901    1    3    3    0    0  0.31162759989E-01  0.50460401822E-01 -0.11448129248E+00  0.88939492695E+00  0.88000000000E+00 0. -1.
        -11    1    4    4    0    0  0.44617936092E-03 -0.63539922461E-02  0.47056756631E-01  0.47488648740E-01  0.51100000000E-03 0.  1.
         11    1    4    4    0    0 -0.11315375652E-01 -0.34448826480E-01  0.75018741816E-01  0.83323658805E-01  0.51100000000E-03 0. -1.
</event>
<event>
 8    1  0.1078274E+005  0.1043930E+01  0.7957747E-01            NaN
         13   -1    0    0    0    0  0.00000000000E+00  0.00000000000E+00  0.74505805969E-08  0.10566000000E+00  0.10566000000E+00 0.  1.
     999900   -1    0    0    0    0 -0.00000000000E+00 -0.00000000000E+00 -0.74505805969E-08  0.93827000000E+00  0.93827000000E+00 0.  1.
     999902    2    1    2    0    0  0.21599530870E-01 -0.20040620204E-02 -0.95039772075E-02  0.10202470614E+01  0.10199721490E+01 0.  0.
     999903    2    3    3    0    0  0.84897886896E-01  0.13267675875E-01 -0.99845076549E-01  0.13322878532E+00  0.19929563574E-01 0.  0.
         14    1    1    2    0    0 -0.21599530870E-01  0.20040620204E-02  0.95039772075E-02  0.23682938609E-01  0.00000000000E+00 0.  1.
     999901    1    3    3    0    0 -0.63298356026E-01 -0.15271737895E-01  0.90341099341E-01  0.88701827607E+00  0.88000000000E+00 0.  1.
        -11    1    4    4    0    0  0.52645891062E-01  0.58736332650E-02 -0.46687793393E-01  0.70612326023E-01  0.51100000000E-03 0. -1.
         11    1    4    4    0    0  0.32251995834E-01  0.73940426098E-02 -0.53157283155E-01  0.62616459297E-01  0.51100000000E-03 0.  1.
</event>
<event>
 8    1  0.1078274E+005  0.1043930E+01  0.7957747E-01            NaN
         13   -1    0    0    0    0  0.00000000000E+00  0.00000000000E+00  0.74505805969E-08  0.10566000000E+00  0.10566000000E+00 0.  1.
     999900   -1    0    0    0    0 -0.00000000000E+00 -0.00000000000E+00 -0.74505805969E-08  0.93827000000E+00  0.93827000000E+00 0.  1.
     999902    2    1    2    0    0  0.16318011388E-01  0.17827976478E-01  0.12321975668E-01  0.10168016878E+01  0.10164397311E+01 0.  0.
     999903    2    3    3    0    0  0.10010594506E+00 -0.72314179310E-01 -0.23063955276E-01  0.12753334232E+00  0.21960569332E-01 0.  0.
         14    1    1    2    0    0 -0.16318011388E-01 -0.17827976478E-01 -0.12321975668E-01  0.27128312246E-01  0.00000000000E+00 0. -1.
     999901    1    3    3    0    0 -0.83787933671E-01  0.90142155788E-01  0.35385930945E-01  0.88926834543E+00  0.88000000000E+00 0. -1.
        -11    1    4    4    0    0  0.65556166884E-01 -0.59475110635E-01 -0.17956559647E-01  0.90319427351E-01  0.51100000000E-03 0.  1.
         11    1    4    4    0    0  0.34549778175E-01 -0.12839068675E-01 -0.51073956289E-02  0.37213914971E-01  0.51100000000E-03 0. -1.
</event>
<event>
 8    1  0.1078274E+005  0.1043930E+01  0.7957747E-01            NaN
         13   -1    0    0    0    0  0.00000000000E+00  0.00000000000E+00  0.74505805969E-08  0.10566000000E+00  0.10566000000E+00 0.  1.
     999900   -1    0    0    0    0 -0.00000000000E+00 -0.00000000000E+00 -0.74505805969E-08  0.93827000000E+00  0.93827000000E+00 0.  1.
     999902    2    1    2    0    0 -0.16772360157E-01 -0.50880616746E-02  0.14594527258E-01  0.10211220921E+01  0.10208673402E+01 0.  0.
     999903    2    3    3    0    0  0.15967997062E-01 -0.11980436357E+00 -0.46682244895E-01  0.13096109334E+00  0.19066030479E-01 0.  0.
         14    1    1    2    0    0  0.16772360157E-01  0.50880616746E-02 -0.14594527258E-01  0.22807907899E-01  0.00000000000E+00 0. -1.
     999901    1    3    3    0    0 -0.32740357219E-01  0.11471630190E+00  0.61276772153E-01  0.89016099876E+00  0.88000000000E+00 0.  1.
        -11    1    4    4    0    0  0.38362109315E-02 -0.82783122580E-01 -0.26036166313E-01  0.86867168571E-01  0.51100000000E-03 0. -1.
         11    1    4    4    0    0  0.12131786131E-01 -0.37021240995E-01 -0.20646078582E-01  0.44093924767E-01  0.51100000000E-03 0.  1.
</event>
<event>
 8    1  0.1205614E+005  0.1043930E+01  0.7957747E-01            NaN
         13   -1    0    0    0    0  0.00000000000E+00  0.00000000000E+00  0.74505805969E-08  0.10566000000E+00  0.10566000000E+00 0. -1.
     999900   -1    0    0    0    0 -0.00000000000E+00 -0.00000000000E+00 -0.74505805969E-08  0.93827000000E+00  0.93827000000E+00 0.  1.
     999902    2    1    2    0    0  0.24151712885E-01  0.16821784143E-01 -0.18855817359E-01  0.10089754652E+01  0.10083698081E+01 0.  0.
     999903    2    3    3    0    0  0.15258226809E-01  0.69806102549E-01  0.94447316464E-01  0.12008625260E+00  0.19867235263E-01 0.  0.
         14    1    1    2    0    0 -0.24151712885E-01 -0.16821784143E-01  0.18855817359E-01  0.34954534832E-01  0.00000000000E+00 0. -1.
     999901    1    3    3    0    0  0.88934860753E-02 -0.52984318406E-01 -0.11330313382E+00  0.88888921257E+00  0.88000000000E+00 0.  1.
        -11    1    4    4    0    0  0.17154423302E-01  0.35918056334E-01  0.44633282563E-01  0.59806120447E-01  0.51100000000E-03 0.  1.
         11    1    4    4    0    0 -0.18961964930E-02  0.33888046215E-01  0.49814033902E-01  0.60280132150E-01  0.51100000000E-03 0. -1.
</event>
<event>
 8    1  0.1909814E+005  0.1043930E+01  0.7957747E-01            NaN
         13   -1    0    0    0    0  0.00000000000E+00  0.00000000000E+00  0.74505805969E-08  0.10566000000E+00  0.10566000000E+00 0. -1.
     999900   -1    0    0    0    0 -0.00000000000E+00 -0.00000000000E+00 -0.74505805969E-08  0.93827000000E+00  0.93827000000E+00 0.  1.
     999902    2    1    2    0    0  0.13475396946E-01 -0.11742082084E-02  0.17686021497E-01  0.10216643214E+01  0.10214216686E+01 0.  0.
     999903    2    3    3    0    0  0.13178946938E+00  0.28533455095E-02  0.99400316425E-02  0.13370348819E+00  0.20030294669E-01 0.  0.
         14    1    1    2    0    0 -0.13475396946E-01  0.11742082084E-02 -0.17686021497E-01  0.22265678615E-01  0.00000000000E+00 0.  1.
     999901    1    3    3    0    0 -0.11831407244E+00 -0.40275537179E-02  0.77459898544E-02  0.88796083319E+00  0.88000000000E+00 0.  1.
        -11    1    4    4    0    0  0.42388913139E-01 -0.80532660620E-02  0.58524434389E-03  0.43154127071E-01  0.51100000000E-03 0.  1.
         11    1    4    4    0    0  0.89400556246E-01  0.10906611571E-01  0.93547872987E-02  0.90549361121E-01  0.51100000000E-03 0. -1.
</event>
<event>
 8    1  0.1078274E+005  0.1043930E+01  0.7957747E-01            NaN
         13   -1    0    0    0    0  0.00000000000E+00  0.00000000000E+00  0.74505805969E-08  0.10566000000E+00  0.10566000000E+00 0.  1.
     999900   -1    0    0    0    0 -0.00000000000E+00 -0.00000000000E+00 -0.74505805969E-08  0.93827000000E+00  0.93827000000E+00 0. -1.
     999902    2    1    2    0    0 -0.76992742716E-02  0.16262370488E-01  0.16202863592E-01  0.10197168567E+01  0.10194293461E+01 0.  0.
     999903    2    3    3    0    0  0.11607932666E+00 -0.40202245962E-01 -0.31538135715E-01  0.12798337751E+00  0.17159844281E-01 0.  0.
         14    1    1    2    0    0  0.76992742716E-02 -0.16262370488E-01 -0.16202863592E-01  0.24213143265E-01  0.00000000000E+00 0. -1.
     999901    1    3    3    0    0 -0.12377860093E+00  0.56464616450E-01  0.47740999307E-01  0.89173347923E+00  0.88000000000E+00 0.  1.
        -11    1    4    4    0    0  0.19258523331E-01 -0.31980368593E-02  0.36464312949E-03  0.19532338474E-01  0.51100000000E-03 0.  1.
         11    1    4    4    0    0  0.96820803328E-01 -0.37004209103E-01 -0.31902778845E-01  0.10845103903E+00  0.51100000000E-03 0. -1.
</event>
<event>
 8    1  0.1078274E+005  0.1043930E+01  0.7957747E-01            NaN
         13   -1    0    0    0    0  0.00000000000E+00  0.00000000000E+00  0.74505805969E-08  0.10566000000E+00  0.10566000000E+00 0.  1.
     999900   -1    0    0    0    0 -0.00000000000E+00 -0.00000000000E+00 -0.74505805969E-08  0.93827000000E+00  0.93827000000E+00 0.  1.
     999902    2    1    2    0    0  0.92543133634E-02 -0.60487188509E-02  0.21508527859E-01  0.10197464087E+01  0.10194596079E+01 0.  0.
     999903    2    3    3    0    0  0.19365673347E-01 -0.95799978388E-01 -0.81962555652E-01  0.12909283225E+00  0.19860353629E-01 0.  0.
         14    1    1    2    0    0 -0.92543133634E-02  0.60487188509E-02 -0.21508527859E-01  0.24183591260E-01  0.00000000000E+00 0.  1.
     999901    1    3    3    0    0 -0.10111359984E-01  0.89751259537E-01  0.10347108351E+00  0.89065357649E+00  0.88000000000E+00 0. -1.
        -11    1    4    4    0    0  0.55287031983E-03 -0.47481520225E-01 -0.33471711759E-01  0.58098339370E-01  0.51100000000E-03 0.  1.
         11    1    4    4    0    0  0.18812803027E-01 -0.48318458163E-01 -0.48490843893E-01  0.70994492881E-01  0.51100000000E-03 0. -1.
</event>
<event>
 8    1  0.1078274E+005  0.1043930E+01  0.7957747E-01            NaN
         13   -1    0    0    0    0  0.00000000000E+00  0.00000000000E+00  0.74505805969E-08  0.10566000000E+00  0.10566000000E+00 0. -1.
     999900   -1    0    0    0    0 -0.00000000000E+00 -0.00000000000E+00 -0.74505805969E-08  0.93827000000E+00  0.93827000000E+00 0.  1.
     999902    2    1    2    0    0  0.76143715928E-02  0.20861657402E-01 -0.65718801621E-02  0.10207701854E+01  0.10205074200E+01 0.  0.
     999903    2    3    3    0    0  0.52817129964E-01  0.11115289828E+00 -0.49412082509E-01  0.13396069035E+00  0.18955121955E-01 0.  0.
         14    1    1    2    0    0 -0.76143715928E-02 -0.20861657402E-01  0.65718801621E-02  0.23159814618E-01  0.00000000000E+00 0. -1.
     999901    1    3    3    0    0 -0.45202758371E-01 -0.90291240874E-01  0.42840202347E-01  0.88680949503E+00  0.88000000000E+00 0. -1.
        -11    1    4    4    0    0  0.42575791900E-02  0.11984245996E-01 -0.11668819305E-01  0.17267645978E-01  0.51100000000E-03 0. -1.
         11    1    4    4    0    0  0.48559550774E-01  0.99168652279E-01 -0.37743263204E-01  0.11669304437E+00  0.51100000000E-03 0.  1.
</event>
<event>
 8    1  0.1078274E+005  0.1043930E+01  0.7957747E-01            NaN
         13   -1    0    0    0    0  0.00000000000E+00  0.00000000000E+00  0.74505805969E-08  0.10566000000E+00  0.10566000000E+00 0.  1.
     999900   -1    0    0    0    0 -0.00000000000E+00 -0.00000000000E+00 -0.74505805969E-08  0.93827000000E+00  0.93827000000E+00 0. -1.
     999902    2    1    2    0    0 -0.82282418030E-03  0.86097029898E-02 -0.22092497456E-01  0.10202048558E+01  0.10199289511E+01 0.  0.
     999903    2    3    3    0    0  0.95471704955E-01 -0.85478590516E-01 -0.79612216634E-02  0.12985383719E+00  0.19421691468E-01 0.  0.
         14    1    1    2    0    0  0.82282418030E-03 -0.86097029898E-02  0.22092497456E-01  0.23725144237E-01  0.00000000000E+00 0.  1.
     999901    1    3    3    0    0 -0.96294529135E-01  0.94088293505E-01 -0.14131275793E-01  0.89035101857E+00  0.88000000000E+00 0. -1.
        -11    1    4    4    0    0  0.43372487780E-01 -0.49668803801E-01  0.13147385149E-02  0.65955685317E-01  0.51100000000E-03 0. -1.
         11    1    4    4    0    0  0.52099217174E-01 -0.35809786714E-01 -0.92759601783E-02  0.63898151874E-01  0.51100000000E-03 0.  1.
</event>
<event>
 8    1  0.1078274E+005  0.1043930E+01  0.7957747E-01            NaN
         13   -1    0    0    0    0  0.00000000000E+00  0.00000000000E+00  0.74505805969E-08  0.10566000000E+00  0.10566000000E+00 0.  1.
     999900   -1    0    0    0    0 -0.00000000000E+00 -0.00000000000E+00 -0.74505805969E-08  0.93827000000E+00  0.93827000000E+00 0.  1.
     999902    2    1    2    0    0 -0.15602390346E-01  0.92975765109E-02 -0.16813289661E-01  0.10191799248E+01  0.10188793613E+01 0.  0.
     999903    2    3    3    0    0 -0.11902645758E+00  0.14740675327E-02 -0.53739499251E-01  0.13231956942E+00  0.21238271890E-01 0.  0.
         14    1    1    2    0    0  0.15602390346E-01 -0.92975765109E-02  0.16813289661E-01  0.24750075206E-01  0.00000000000E+00 0.  1.
     999901    1    3    3    0    0  0.10342406723E+00  0.78235089782E-02  0.36926209590E-01  0.88686035537E+00  0.88000000000E+00 0. -1.
        -11    1    4    4    0    0 -0.57491100859E-01 -0.93088155432E-03 -0.14515597427E-01  0.59304779809E-01  0.51100000000E-03 0.  1.
         11    1    4    4    0    0 -0.61535356721E-01  0.24049490870E-02 -0.39223901824E-01  0.73014789613E-01  0.51100000000E-03 0. -1.
</event>
<event>
 8    1  0.1078274E+005  0.1043930E+01  0.7957747E-01            NaN
         13   -1    0    0    0    0  0.00000000000E+00  0.00000000000E+00  0.74505805969E-08  0.10566000000E+00  0.10566000000E+00 0. -1.
     999900   -1    0    0    0    0 -0.00000000000E+00 -0.00000000000E+00 -0.74505805969E-08  0.93827000000E+00  0.93827000000E+00 0. -1.
     999902    2    1    2    0    0 -0.15050940845E-01 -0.57010143085E-02  0.18273303818E-01  0.10195795171E+01  0.10192886960E+01 0.  0.
     999903    2    3    3    0    0  0.20849478035E-01 -0.67571350070E-01 -0.10490794370E+00  0.12812542505E+00  0.20244994631E-01 0.  0.
         14    1    1    2    0    0  0.15050940845E-01  0.57010143085E-02 -0.18273303818E-01  0.24350482888E-01  0.00000000000E+00 0. -1.
     999901    1    3    3    0    0 -0.35900418880E-01  0.61870335761E-01  0.12318124752E+00  0.89145409207E+00  0.88000000000E+00 0.  1.
        -11    1    4    4    0    0  0.14168697353E-01 -0.35319084063E-01 -0.72678305492E-01  0.82040154156E-01  0.51100000000E-03 0. -1.
         11    1    4    4    0    0  0.66807806822E-02 -0.32252266007E-01 -0.32229638205E-01  0.46085270889E-01  0.51100000000E-03 0.  1.
</event>
<event>
 8    1  0.1078274E+005  0.1043930E+01  0.7957747E-01            NaN
         13   -1    0    0    0    0  0.00000000000E+00  0.00000000000E+00  0.74505805969E-08  0.10566000000E+00  0.10566000000E+00 0.  1.
     999900   -1    0    0    0    0 -0.00000000000E+00 -0.00000000000E+00 -0.74505805969E-08  0.93827000000E+00  0.93827000000E+00 0.  1.
     999902    2    1    2    0    0 -0.14668351088E-01  0.12815090059E-01  0.13138660643E-01  0.10204350759E+01  0.10201645615E+01 0.  0.
     999903    2    3    3    0    0  0.11373971665E-01 -0.64473241705E-01 -0.10850004984E+00  0.12833213074E+00  0.20265952691E-01 0.  0.
         14    1    1    2    0    0  0.14668351088E-01 -0.12815090059E-01 -0.13138660643E-01  0.23494924140E-01  0.00000000000E+00 0. -1.
     999901    1    3    3    0    0 -0.26042322752E-01  0.77288331763E-01  0.12163871048E+00  0.89210294512E+00  0.88000000000E+00 0. -1.
        -11    1    4    4    0    0  0.89182886383E-02 -0.24159204239E-01 -0.59458630365E-01  0.64798093086E-01  0.51100000000E-03 0. -1.
         11    1    4    4    0    0  0.24556830263E-02 -0.40314037465E-01 -0.49041419474E-01  0.63534037656E-01  0.51100000000E-03 0.  1.
</event>
<event>
 8    1  0.1078274E+005  0.1043930E+01  0.7957747E-01            NaN
         13   -1    0    0    0    0  0.00000000000E+00  0.00000000000E+00  0.74505805969E-08  0.10566000000E+00  0.10566000000E+00 0.  1.
     999900   -1    0    0    0    0 -0.00000000000E+00 -0.00000000000E+00 -0.74505805969E-08  0.93827000000E+00  0.93827000000E+00 0. -1.
     999902    2    1    2    0    0  0.77396988803E-02 -0.10467699847E-01 -0.19690595263E-01  0.10203250170E+01  0.10200519326E+01 0.  0.
     999903    2    3    3    0    0  0.10325294260E+00 -0.70311646789E-01  0.35408143510E-01  0.13142685148E+00  0.20356395430E-01 0.  0.
         14    1    1    2    0    0 -0.77396988803E-02  0.10467699847E-01  0.19690595263E-01  0.23604982963E-01  0.00000000000E+00 0.  1.
     999901    1    3    3    0    0 -0.95513243717E-01  0.59843946942E-01 -0.55098738773E-01  0.88889816555E+00  0.88000000000E+00 0. -1.
        -11    1    4    4    0    0  0.89901217609E-01 -0.68447558444E-01  0.33081799497E-01  0.11773684115E+00  0.51100000000E-03 0.  1.
         11    1    4    4    0    0  0.13351724988E-01 -0.18640883443E-02  0.23263440131E-02  0.13690010335E-01  0.51100000000E-03 0. -1.
</event>
<event>
 8    1  0.1078274E+005  0.1043930E+01  0.7957747E-01            NaN
         13   -1    0    0    0    0  0.00000000000E+00  0.00000000000E+00  0.74505805969E-08  0.10566000000E+00  0.10566000000E+00 0. -1.
     999900   -1    0    0    0    0 -0.00000000000E+00 -0.00000000000E+00 -0.74505805969E-08  0.93827000000E+00  0.93827000000E+00 0. -1.
     999902    2    1    2    0    0  0.18649457239E-02 -0.10788316705E-01  0.20490621936E-01  0.10206978803E+01  0.10204334527E+01 0.  0.
     999903    2    3    3    0    0  0.59379771367E-01 -0.92522342274E-02 -0.11182772905E+00  0.12894765699E+00  0.22594162333E-01 0.  0.
         14    1    1    2    0    0 -0.18649457239E-02  0.10788316705E-01 -0.20490621936E-01  0.23232119731E-01  0.00000000000E+00 0. -1.
     999901    1    3    3    0    0 -0.57514825643E-01 -0.15360824776E-02  0.13231835099E+00  0.89175022328E+00  0.88000000000E+00 0.  1.
        -11    1    4    4    0    0  0.19910762491E-03 -0.19473654242E-03  0.10350847786E-02  0.11874711222E-02  0.51100000000E-03 0. -1.
         11    1    4    4    0    0  0.59180663742E-01 -0.90574976850E-02 -0.11286281383E+00  0.12776018586E+00  0.51100000000E-03 0.  1.
</event>
<event>
 8    1  0.1078274E+005  0.1043930E+01  0.7957747E-01            NaN
         13   -1    0    0    0    0  0.00000000000E+00  0.00000000000E+00  0.74505805969E-08  0.10566000000E+00  0.10566000000E+00 0.  1.
     999900   -1    0    0    0    0 -0.00000000000E+00 -0.00000000000E+00 -0.74505805969E-08  0.93827000000E+00  0.93827000000E+00 0.  1.
     999902    2    1    2    0    0 -0.94026894496E-02  0.10258212553E-01 -0.19055722279E-01  0.10203341943E+01  0.10200613247E+01 0.  0.
     999903    2    3    3    0    0  0.11428179969E+00 -0.12835570149E-02 -0.60048064446E-01  0.13066490891E+00  0.20138796336E-01 0.  0.
         14    1    1    2    0    0  0.94026894496E-02 -0.10258212553E-01  0.19055722279E-01  0.23595805670E-01  0.00000000000E+00 0.  1.
     999901    1    3    3    0    0 -0.12368448914E+00  0.11541769568E-01  0.40992342167E-01  0.88966928542E+00  0.88000000000E+00 0. -1.
        -11    1    4    4    0    0  0.51094433759E-01 -0.18241294797E-02 -0.38122888543E-01  0.63777616460E-01  0.51100000000E-03 0.  1.
         11    1    4    4    0    0  0.63187365933E-01  0.54057246471E-03 -0.21925175903E-01  0.66887292452E-01  0.51100000000E-03 0. -1.
</event>
<event>
 7    1  0.1078274E+005  0.1043930E+01  0.7957747E-01            NaN
         13   -1    0    0    0    0  0.00000000000E+00  0.00000000000E+00  0.74505805969E-08  0.10566000000E+00  0.10566000000E+00 0.  1.
     999900   -1    0    0    0    0 -0.00000000000E+00 -0.00000000000E+00 -0.74505805969E-08  0.93827000000E+00  0.93827000000E+00 0.  1.
     999902    2    1    2    0    0 -0.30459330046E-02  0.21768131926E-01 -0.58542424641E-02  0.10211835403E+01  0.10209301746E+01 0.  0.
         14    1    1    2    0    0  0.30459330046E-02 -0.21768131926E-01  0.58542424641E-02  0.22746459730E-01  0.00000000000E+00 0.  1.
     999901    1    3    3    0    0 -0.61359672209E-02  0.67818295874E-01 -0.12165512816E+00  0.89097527550E+00  0.88000000000E+00 0.  1.
        -11    1    3    3    0    0 -0.15490489837E-01 -0.30701365730E-01  0.79646698131E-01  0.86754750747E-01  0.51100000000E-03 0.  1.
         11    1    3    3    0    0  0.18580524053E-01 -0.15348798219E-01  0.36154187570E-01  0.43453514020E-01  0.51100000000E-03 0. -1.
</event>
<event>
 8    1  0.1078274E+005  0.1043930E+01  0.7957747E-01            NaN
         13   -1    0    0    0    0  0.00000000000E+00  0.00000000000E+00  0.74505805969E-08  0.10566000000E+00  0.10566000000E+00 0.  1.
     999900   -1    0    0    0    0 -0.00000000000E+00 -0.00000000000E+00 -0.74505805969E-08  0.93827000000E+00  0.93827000000E+00 0.  1.
     999902    2    1    2    0    0  0.47813529702E-02 -0.14190738832E-01 -0.17426655042E-01  0.10209533442E+01  0.10206947655E+01 0.  0.
     999903    2    3    3    0    0 -0.69554271126E-01 -0.33803967020E-01  0.10188570003E+00  0.12958030121E+00  0.20732915248E-01 0.  0.
         14    1    1    2    0    0 -0.47813529702E-02  0.14190738832E-01  0.17426655042E-01  0.22976655779E-01  0.00000000000E+00 0.  1.
     999901    1    3    3    0    0  0.74335624096E-01  0.19613228188E-01 -0.11931235507E+00  0.89137304301E+00  0.88000000000E+00 0. -1.
        -11    1    4    4    0    0 -0.43601228005E-01 -0.10050064971E-01  0.60695788409E-01  0.75407630523E-01  0.51100000000E-03 0. -1.
         11    1    4    4    0    0 -0.25953043121E-01 -0.23753902048E-01  0.41189911616E-01  0.54172670690E-01  0.51100000000E-03 0.  1.
</event>
<event>
 8    1  0.1078274E+005  0.1043930E+01  0.7957747E-01            NaN
         13   -1    0    0    0    0  0.00000000000E+00  0.00000000000E+00  0.74505805969E-08  0.10566000000E+00  0.10566000000E+00 0.  1.
     999900   -1    0    0    0    0 -0.00000000000E+00 -0.00000000000E+00 -0.74505805969E-08  0.93827000000E+00  0.93827000000E+00 0.  1.
     999902    2    1    2    0    0 -0.10105776448E-02  0.20881166363E-01 -0.14358197249E-01  0.10185685686E+01  0.10182527813E+01 0.  0.
     999903    2    3    3    0    0 -0.33236721893E-01 -0.14767556536E-01  0.12033612340E+00  0.12702388891E+00  0.18207837621E-01 0.  0.
         14    1    1    2    0    0  0.10105776448E-02 -0.20881166363E-01  0.14358197249E-01  0.25361431429E-01  0.00000000000E+00 0.  1.
     999901    1    3    3    0    0  0.32226144248E-01  0.35648722900E-01 -0.13469432065E+00  0.89154467966E+00  0.88000000000E+00 0.  1.
        -11    1    4    4    0    0 -0.29723436488E-01 -0.13669517322E-01  0.78817821894E-01  0.85339607156E-01  0.51100000000E-03 0.  1.
         11    1    4    4    0    0 -0.35132854049E-02 -0.10980392142E-02  0.41518301505E-01  0.41684281754E-01  0.51100000000E-03 0. -1.
</event>
<event>
 8    1  0.1078274E+005  0.1043930E+01  0.7957747E-01            NaN
         13   -1    0    0    0    0  0.00000000000E+00  0.00000000000E+00  0.74505805969E-08  0.10566000000E+00  0.10566000000E+00 0.  1.
     999900   -1    0    0    0    0 -0.00000000000E+00 -0.00000000000E+00 -0.74505805969E-08  0.93827000000E+00  0.93827000000E+00 0. -1.
     999902    2    1    2    0    0  0.12613941237E-01 -0.13045812581E-01 -0.15154643293E-01  0.10202874969E+01  0.10200135334E+01 0.  0.
     999903    2    3    3    0    0  0.13014246478E-01 -0.13028216543E+00  0.31684313227E-02  0.13232338854E+00  0.18884569307E-01 0.  0.
         14    1    1    2    0    0 -0.12613941237E-01  0.13045812581E-01  0.15154643293E-01  0.23642503099E-01  0.00000000000E+00 0.  1.
     999901    1    3    3    0    0 -0.40030524125E-03  0.11723635285E+00 -0.18323074616E-01  0.88796410836E+00  0.88000000000E+00 0.  1.
        -11    1    4    4    0    0  0.13820845893E-01 -0.74762674699E-01  0.86697023955E-02  0.76523840533E-01  0.51100000000E-03 0.  1.
         11    1    4    4    0    0 -0.80659941532E-03 -0.55519490729E-01 -0.55012710728E-02  0.55799548008E-01  0.51100000000E-03 0. -1.
</event>
<event>
 8    1  0.1078274E+005  0.1043930E+01  0.7957747E-01            NaN
         13   -1    0    0    0    0  0.00000000000E+00  0.00000000000E+00  0.74505805969E-08  0.10566000000E+00  0.10566000000E+00 0.  1.
     999900   -1    0    0    0    0 -0.00000000000E+00 -0.00000000000E+00 -0.74505805969E-08  0.93827000000E+00  0.93827000000E+00 0.  1.
     999902    2    1    2    0    0 -0.90856508135E-02 -0.31903484582E-03  0.22477035284E-01  0.10196840117E+01  0.10193957111E+01 0.  0.
     999903    2    3    3    0    0  0.35166053880E-01 -0.28485391725E-01 -0.11718293381E+00  0.12712787116E+00  0.19534245923E-01 0.  0.
         14    1    1    2    0    0  0.90856508135E-02  0.31903484582E-03 -0.22477035284E-01  0.24245988309E-01  0.00000000000E+00 0. -1.
     999901    1    3    3    0    0 -0.44251704693E-01  0.28166356879E-01  0.13965996909E+00  0.89255614053E+00  0.88000000000E+00 0. -1.
        -11    1    4    4    0    0  0.11810751768E-01 -0.82972943377E-02 -0.64204873807E-01  0.65809314631E-01  0.51100000000E-03 0.  1.
         11    1    4    4    0    0  0.23355302112E-01 -0.20188097388E-01 -0.52978059999E-01  0.61318556532E-01  0.51100000000E-03 0. -1.
</event>
<event>
 8    1  0.1078274E+005  0.1043930E+01  0.7957747E-01            NaN
         13   -1    0    0    0    0  0.00000000000E+00  0.00000000000E+00  0.74505805969E-08  0.10566000000E+00  0.10566000000E+00 0.  1.
     999900   -1    0    0    0    0 -0.00000000000E+00 -0.00000000000E+00 -0.74505805969E-08  0.93827000000E+00  0.93827000000E+00 0. -1.
     999902    2    1    2    0    0  0.55045439638E-02  0.24063410657E-01 -0.48979437239E-02  0.10187638007E+01  0.10184529169E+01 0.  0.
     999903    2    3    3    0    0 -0.42600749445E-01  0.15378238968E-01  0.11888067136E+00  0.12875779112E+00  0.19865564790E-01 0.  0.
         14    1    1    2    0    0 -0.55045439638E-02 -0.24063410657E-01  0.48979437239E-02  0.25166199344E-01  0.00000000000E+00 0. -1.
     999901    1    3    3    0    0  0.48105293409E-01  0.86851716895E-02 -0.12377861508E+00  0.89000600954E+00  0.88000000000E+00 0. -1.
        -11    1    4    4    0    0 -0.21703607478E-01  0.17722949997E-02  0.34789798356E-01  0.41046057031E-01  0.51100000000E-03 0. -1.
         11    1    4    4    0    0 -0.20897141967E-01  0.13605943968E-01  0.84090873001E-01  0.87711734088E-01  0.51100000000E-03 0.  1.
</event>
<event>
 8    1  0.1078274E+005  0.1043930E+01  0.7957747E-01            NaN
         13   -1    0    0    0    0  0.00000000000E+00  0.00000000000E+00  0.74505805969E-08  0.10566000000E+00  0.10566000000E+00 0. -1.
     999900   -1    0    0    0    0 -0.00000000000E+00 -0.00000000000E+00 -0.74505805969E-08  0.93827000000E+00  0.93827000000E+00 0. -1.
     999902    2    1    2    0    0  0.14533968129E-01  0.15940494400E-01 -0.16335004380E-01  0.10168713977E+01  0.10165113238E+01 0.  0.
     999903    2    3    3    0    0  0.10521777155E-01 -0.92920759296E-01  0.80502721845E-01  0.12488237563E+00  0.19233933995E-01 0.  0.
         14    1    1    2    0    0 -0.14533968129E-01 -0.15940494400E-01  0.16335004380E-01  0.27058602318E-01  0.00000000000E+00 0. -1.
     999901    1    3    3    0    0  0.40121909743E-02  0.10886125370E+00 -0.96837726225E-01  0.89198902205E+00  0.88000000000E+00 0. -1.
        -11    1    4    4    0    0 -0.33558721931E-03 -0.15685012377E-01  0.23564461606E-01  0.28313904779E-01  0.51100000000E-03 0.  1.
         11    1    4    4    0    0  0.10857364374E-01 -0.77235746919E-01  0.56938260240E-01  0.96568470856E-01  0.51100000000E-03 0. -1.
</event>
<event>
 8    1  0.1078274E+005  0.1043930E+01  0.7957747E-01            NaN
         13   -1    0    0    0    0  0.00000000000E+00  0.00000000000E+00  0.74505805969E-08  0.10566000000E+00  0.10566000000E+00 0. -1.
     999900   -1    0    0    0    0 -0.00000000000E+00 -0.00000000000E+00 -0.74505805969E-08  0.93827000000E+00  0.93827000000E+00 0.  1.
     999902    2    1    2    0    0 -0.41974930418E-02  0.12309942898E-01 -0.10133680300E-01  0.10274422737E+01  0.10273099730E+01 0.  0.
     999903    2    3    3    0    0 -0.11627403878E+00 -0.42225001048E-01  0.53782960267E-01  0.13636396673E+00  0.19998044875E-01 0.  0.
         14    1    1    2    0    0  0.41974930418E-02 -0.12309942898E-01  0.10133680300E-01  0.16487726296E-01  0.00000000000E+00 0. -1.
     999901    1    3    3    0    0  0.11207654574E+00  0.54534943947E-01 -0.63916640567E-01  0.89107830697E+00  0.88000000000E+00 0.  1.
        -11    1    4    4    0    0 -0.45137714216E-01 -0.11718631037E-01  0.29740161996E-01  0.55312547533E-01  0.51100000000E-03 0. -1.
         11    1    4    4    0    0 -0.71136324568E-01 -0.30506370011E-01  0.24042798271E-01  0.81051419198E-01  0.51100000000E-03 0.  1.
</event>
<event>
 8    1  0.1117451E+005  0.1043930E+01  0.7957747E-01            NaN
         13   -1    0    0    0    0  0.00000000000E+00  0.00000000000E+00  0.74505805969E-08  0.10566000000E+00  0.10566000000E+00 0.  1.
     999900   -1    0    0    0    0 -0.00000000000E+00 -0.00000000000E+00 -0.74505805969E-08  0.93827000000E+00  0.93827000000E+00 0. -1.
     999902    2    1    2    0    0  0.19650062638E-01 -0.50653194367E-02 -0.11975736531E-01  0.10203673030E+01  0.10200952075E+01 0.  0.
     999903    2    3    3    0    0  0.32098487771E-01  0.86950487046E-01  0.88748409195E-01  0.12976793999E+00  0.19306423786E-01 0.  0.
         14    1    1    2    0    0 -0.19650062638E-01  0.50653194367E-02  0.11975736531E-01  0.23562696962E-01  0.00000000000E+00 0.  1.
     999901    1    3    3    0    0 -0.12448425133E-01 -0.92015806483E-01 -0.10072414573E+00  0.89059936305E+00  0.88000000000E+00 0. -1.
        -11    1    4    4    0    0  0.20682044224E-01  0.30198912287E-01  0.38301957251E-01  0.52981339233E-01  0.51100000000E-03 0. -1.
         11    1    4    4    0    0  0.11416443547E-01  0.56751574759E-01  0.50446451944E-01  0.76786600756E-01  0.51100000000E-03 0.  1.
</event>
<event>
 8    1  0.1078274E+005  0.1043930E+01  0.7957747E-01            NaN
         13   -1    0    0    0    0  0.00000000000E+00  0.00000000000E+00  0.74505805969E-08  0.10566000000E+00  0.10566000000E+00 0. -1.
     999900   -1    0    0    0    0 -0.00000000000E+00 -0.00000000000E+00 -0.74505805969E-08  0.93827000000E+00  0.93827000000E+00 0. -1.
     999902    2    1    2    0    0 -0.96227832693E-02 -0.39139755824E-02  0.22281160356E-01  0.10193461177E+01  0.10190496261E+01 0.  0.
     999903    2    3    3    0    0 -0.10962701215E+00  0.66033869582E-02 -0.65182211345E-01  0.12931167897E+00  0.20275678301E-01 0.  0.
         14    1    1    2    0    0  0.96227832693E-02  0.39139755824E-02 -0.22281160356E-01  0.24583882312E-01  0.00000000000E+00 0.  1.
     999901    1    3    3    0    0  0.10000422888E+00 -0.10517362541E-01  0.87463371702E-01  0.89003443871E+00  0.88000000000E+00 0. -1.
        -11    1    4    4    0    0 -0.59005896207E-01  0.99531217476E-02 -0.26177533961E-01  0.65316803542E-01  0.51100000000E-03 0.  1.
         11    1    4    4    0    0 -0.50621115944E-01 -0.33497347894E-02 -0.39004677384E-01  0.63994875431E-01  0.51100000000E-03 0. -1.
</event>
<event>
 8    1  0.1078274E+005  0.1043930E+01  0.7957747E-01            NaN
         13   -1    0    0    0    0  0.00000000000E+00  0.00000000000E+00  0.74505805969E-08  0.10566000000E+00  0.10566000000E+00 0.  1.
     999900   -1    0    0    0    0 -0.00000000000E+00 -0.00000000000E+00 -0.74505805969E-08  0.93827000000E+00  0.93827000000E+00 0. -1.
     999902    2    1    2    0    0  0.16503700665E-01  0.20895988846E-03  0.17251423317E-01  0.10200547533E+01  0.10197753048E+01 0.  0.
     999903    2    3    3    0    0 -0.52514856748E-02 -0.12285235887E+00 -0.36046461356E-01  0.12962898948E+00  0.19597126252E-01 0.  0.
         14    1    1    2    0    0 -0.16503700665E-01 -0.20895988846E-03 -0.17251423317E-01  0.23875246728E-01  0.00000000000E+00 0. -1.
     999901    1    3    3    0    0  0.21755186340E-01  0.12306131876E+00  0.53297884672E-01  0.89042576379E+00  0.88000000000E+00 0.  1.
        -11    1    4    4    0    0  0.21898096490E-02 -0.42733745600E-01 -0.38646180700E-02  0.42967018434E-01  0.51100000000E-03 0.  1.
         11    1    4    4    0    0 -0.74412953239E-02 -0.80118613268E-01 -0.32181843286E-01  0.86661971050E-01  0.51100000000E-03 0. -1.
</event>
<event>
 8    1  0.1078274E+005  0.1043930E+01  0.7957747E-01            NaN
         13   -1    0    0    0    0  0.00000000000E+00  0.00000000000E+00  0.74505805969E-08  0.10566000000E+00  0.10566000000E+00 0.  1.
     999900   -1    0    0    0    0 -0.00000000000E+00 -0.00000000000E+00 -0.74505805969E-08  0.93827000000E+00  0.93827000000E+00 0. -1.
     999902    2    1    2    0    0 -0.20294245957E-01  0.10246384905E-01  0.58390530940E-02  0.10204579024E+01  0.10201879196E+01 0.  0.
     999903    2    3    3    0    0 -0.11028019361E+00 -0.67637694998E-01 -0.17883971806E-01  0.13213015742E+00  0.20049019001E-01 0.  0.
         14    1    1    2    0    0  0.20294245957E-01 -0.10246384905E-01 -0.58390530940E-02  0.23472097555E-01  0.00000000000E+00 0.  1.
     999901    1    3    3    0    0  0.89985947658E-01  0.77884079903E-01  0.23723024900E-01  0.88832774503E+00  0.88000000000E+00 0. -1.
        -11    1    4    4    0    0 -0.45222428283E-01 -0.23817010235E-01 -0.16382270657E-01  0.53674555510E-01  0.51100000000E-03 0.  1.
         11    1    4    4    0    0 -0.65057765332E-01 -0.43820684763E-01 -0.15017011489E-02  0.78455601906E-01  0.51100000000E-03 0. -1.
</event>
<event>
 8    1  0.1078274E+005  0.1043930E+01  0.7957747E-01            NaN
         13   -1    0    0    0    0  0.00000000000E+00  0.00000000000E+00  0.74505805969E-08  0.10566000000E+00  0.10566000000E+00 0.  1.
     999900   -1    0    0    0    0 -0.00000000000E+00 -0.00000000000E+00 -0.74505805969E-08  0.93827000000E+00  0.93827000000E+00 0.  1.
     999902    2    1    2    0    0  0.32302856506E-02  0.23342002184E-01  0.27385306662E-02  0.10202069445E+01  0.10199310890E+01 0.  0.
     999903    2    3    3    0    0  0.13392432864E-01 -0.23767880215E-01  0.12611267398E+00  0.13029470755E+00  0.18111733472E-01 0.  0.
         14    1    1    2    0    0 -0.32302856506E-02 -0.23342002184E-01 -0.27385306662E-02  0.23723055485E-01  0.00000000000E+00 0. -1.
     999901    1    3    3    0    0 -0.10162147214E-01  0.47109882399E-01 -0.12337414332E+00  0.88991223696E+00  0.88000000000E+00 0.  1.
        -11    1    4    4    0    0  0.14210068099E-01 -0.80345854894E-02  0.77054914075E-01  0.78766753795E-01  0.51100000000E-03 0.  1.
         11    1    4    4    0    0 -0.81763523434E-03 -0.15733294726E-01  0.49057759908E-01  0.51527953758E-01  0.51100000000E-03 0. -1.
</event>
<event>
 8    1  0.1078274E+005  0.1043930E+01  0.7957747E-01            NaN
         13   -1    0    0    0    0  0.00000000000E+00  0.00000000000E+00  0.74505805969E-08  0.10566000000E+00  0.10566000000E+00 0. -1.
     999900   -1    0    0    0    0 -0.00000000000E+00 -0.00000000000E+00 -0.74505805969E-08  0.93827000000E+00  0.93827000000E+00 0. -1.
     999902    2    1    2    0    0  0.13183402006E-01  0.78162730895E-02 -0.18059418619E-01  0.10202437421E+01  0.10199687517E+01 0.  0.
     999903    2    3    3    0    0  0.53236550636E-01 -0.59873337622E-01 -0.10376090758E+00  0.13258903256E+00  0.19864005962E-01 0.  0.
         14    1    1    2    0    0 -0.13183402006E-01 -0.78162730895E-02  0.18059418619E-01  0.23686257921E-01  0.00000000000E+00 0. -1.
     999901    1    3    3    0    0 -0.40053148630E-01  0.67689610711E-01  0.85701488961E-01  0.88765470951E+00  0.88000000000E+00 0.  1.
        -11    1    4    4    0    0  0.29878301051E-01 -0.27099084088E-01 -0.66276725884E-01  0.77588264235E-01  0.51100000000E-03 0.  1.
         11    1    4    4    0    0  0.23358249585E-01 -0.32774253534E-01 -0.37484181696E-01  0.55000768329E-01  0.51100000000E-03 0. -1.
</event>
<event>
 8    1  0.1078274E+005  0.1043930E+01  0.7957747E-01            NaN
         13   -1    0    0    0    0  0.00000000000E+00  0.00000000000E+00  0.74505805969E-08  0.10566000000E+00  0.10566000000E+00 0. -1.
     999900   -1    0    0    0    0 -0.00000000000E+00 -0.00000000000E+00 -0.74505805969E-08  0.93827000000E+00  0.93827000000E+00 0.  1.
     999902    2    1    2    0    0 -0.10351072276E-01 -0.45941345878E-02 -0.20812872261E-01  0.10202355614E+01  0.10199603788E+01 0.  0.
     999903    2    3    3    0    0 -0.79632778289E-01  0.42481429862E-01 -0.95705099290E-01  0.13309131762E+00  0.20193601353E-01 0.  0.
         14    1    1    2    0    0  0.10351072276E-01  0.45941345878E-02  0.20812872261E-01  0.23694438622E-01  0.00000000000E+00 0. -1.
     999901    1    3    3    0    0  0.69281706013E-01 -0.47075564450E-01  0.74892227029E-01  0.88714424375E+00  0.88000000000E+00 0. -1.
        -11    1    4    4    0    0 -0.33308688650E-01  0.95479344796E-02 -0.27055763676E-01  0.43964841198E-01  0.51100000000E-03 0. -1.
         11    1    4    4    0    0 -0.46324089639E-01  0.32933495382E-01 -0.68649335614E-01  0.89126476426E-01  0.51100000000E-03 0.  1.
</event>
<event>
 7    1  0.1078274E+005  0.1043930E+01  0.7957747E-01            NaN
         13   -1    0    0    0    0  0.00000000000E+00  0.00000000000E+00  0.74505805969E-08  0.10566000000E+00  0.10566000000E+00 0.  1.
     999900   -1    0    0    0    0 -0.00000000000E+00 -0.00000000000E+00 -0.74505805969E-08  0.93827000000E+00  0.93827000000E+00 0.  1.
     999903    2    1    2    0    0  0.80784880974E-02 -0.97753298699E-01  0.65991255508E-02  0.10010209239E+00  0.18865605358E-01 0.  0.
         14    1    1    2    0    0  0.30515041691E-01 -0.37162977790E-01  0.20557370435E-01  0.52295890535E-01  0.00000000000E+00 0.  1.
     999901    1    1    2    0    0 -0.38593529788E-01  0.13491627649E+00 -0.27156495986E-01  0.89153201708E+00  0.88000000000E+00 0. -1.
        -11    1    3    3    0    0 -0.58998196746E-02 -0.41340647300E-01  0.29536001846E-02  0.41866954349E-01  0.51100000000E-03 0. -1.
         11    1    3    3    0    0  0.13978307772E-01 -0.56412651399E-01  0.36455253662E-02  0.58235138037E-01  0.51100000000E-03 0.  1.
</event>
<event>
 8    1  0.1078274E+005  0.1043930E+01  0.7957747E-01            NaN
         13   -1    0    0    0    0  0.00000000000E+00  0.00000000000E+00  0.74505805969E-08  0.10566000000E+00  0.10566000000E+00 0. -1.
     999900   -1    0    0    0    0 -0.00000000000E+00 -0.00000000000E+00 -0.74505805969E-08  0.93827000000E+00  0.93827000000E+00 0.  1.
     999902    2    1    2    0    0 -0.19286723906E-01 -0.13639336519E-01 -0.60886104189E-02  0.10195357303E+01  0.10192438496E+01 0.  0.
     999903    2    3    3    0    0 -0.42088477145E-01  0.35099702132E-03 -0.12171486433E+00  0.13156890656E+00  0.26912931252E-01 0.  0.
         14    1    1    2    0    0  0.19286723906E-01  0.13639336519E-01  0.60886104189E-02  0.24394269748E-01  0.00000000000E+00 0. -1.
     999901    1    3    3    0    0  0.22801753239E-01 -0.13990333540E-01  0.11562625391E+00  0.88796682369E+00  0.88000000000E+00 0. -1.
        -11    1    4    4    0    0 -0.11193547419E-01 -0.10656722558E-01 -0.56382025838E-01  0.58464135999E-01  0.51100000000E-03 0.  1.
         11    1    4    4    0    0 -0.30894929726E-01  0.11007719579E-01 -0.65332838487E-01  0.73104770562E-01  0.51100000000E-03 0. -1.
</event>
<event>
 8    1  0.1078274E+005  0.1043930E+01  0.7957747E-01            NaN
         13   -1    0    0    0    0  0.00000000000E+00  0.00000000000E+00  0.74505805969E-08  0.10566000000E+00  0.10566000000E+00 0.  1.
     999900   -1    0    0    0    0 -0.00000000000E+00 -0.00000000000E+00 -0.74505805969E-08  0.93827000000E+00  0.93827000000E+00 0. -1.
     999902    2    1    2    0    0 -0.10553537021E-01  0.38233990325E-02  0.20609202318E-01  0.10204622616E+01  0.10201923802E+01 0.  0.
     999903    2    3    3    0    0  0.97757322728E-01 -0.82222789036E-01  0.29582967780E-02  0.12948148559E+00  0.20967174494E-01 0.  0.
         14    1    1    2    0    0  0.10553537021E-01 -0.38233990325E-02 -0.20609202318E-01  0.23467738365E-01  0.00000000000E+00 0. -1.
     999901    1    3    3    0    0 -0.10831085975E+00  0.86046188068E-01  0.17650905540E-01  0.89098077605E+00  0.88000000000E+00 0.  1.
        -11    1    4    4    0    0  0.77766336822E-01 -0.62702534260E-01 -0.61576430461E-02  0.10008690541E+00  0.51100000000E-03 0. -1.
         11    1    4    4    0    0  0.19990985905E-01 -0.19520254775E-01  0.91159398241E-02  0.29394580178E-01  0.51100000000E-03 0.  1.
</event>
<event>
 8    1  0.1078274E+005  0.1043930E+01  0.7957747E-01            NaN
         13   -1    0    0    0    0  0.00000000000E+00  0.00000000000E+00  0.74505805969E-08  0.10566000000E+00  0.10566000000E+00 0.  1.
     999900   -1    0    0    0    0 -0.00000000000E+00 -0.00000000000E+00 -0.74505805969E-08  0.93827000000E+00  0.93827000000E+00 0. -1.
     999902    2    1    2    0    0  0.37058409798E-02 -0.95487165264E-02  0.22121131276E-01  0.10195526397E+01  0.10192611684E+01 0.  0.
     999903    2    3    3    0    0  0.16135828491E-01  0.57266511751E-01  0.11608251506E+00  0.13194488799E+00  0.19861642290E-01 0.  0.
         14    1    1    2    0    0 -0.37058409798E-02  0.95487165264E-02 -0.22121131276E-01  0.24377360267E-01  0.00000000000E+00 0. -1.
     999901    1    3    3    0    0 -0.12429987512E-01 -0.66815228278E-01 -0.93961383781E-01  0.88760775175E+00  0.88000000000E+00 0. -1.
        -11    1    4    4    0    0  0.76746068937E-02  0.80765103674E-02  0.34959438005E-01  0.36695408941E-01  0.51100000000E-03 0.  1.
         11    1    4    4    0    0  0.84612215978E-02  0.49190001384E-01  0.81123077051E-01  0.95249479045E-01  0.51100000000E-03 0. -1.
</event>
<event>
 8    1  0.1078274E+005  0.1043930E+01  0.7957747E-01            NaN
         13   -1    0    0    0    0  0.00000000000E+00  0.00000000000E+00  0.74505805969E-08  0.10566000000E+00  0.10566000000E+00 0.  1.
     999900   -1    0    0    0    0 -0.00000000000E+00 -0.00000000000E+00 -0.74505805969E-08  0.93827000000E+00  0.93827000000E+00 0.  1.
     999902    2    1    2    0    0 -0.93324466536E-02  0.21490432628E-01  0.74420579102E-03  0.10204888589E+01  0.10202195960E+01 0.  0.
     999903    2    3    3    0    0 -0.39983149444E-01 -0.12041256052E+00 -0.20942510130E-02  0.12858977160E+00  0.20811210926E-01 0.  0.
         14    1    1    2    0    0  0.93324466536E-02 -0.21490432628E-01 -0.74420579102E-03  0.23441141127E-01  0.00000000000E+00 0. -1.
     999901    1    3    3    0    0  0.30650702791E-01  0.14190299315E+00  0.28384568040E-02  0.89189908728E+00  0.88000000000E+00 0.  1.
        -11    1    4    4    0    0 -0.58089337923E-02 -0.43509232671E-01 -0.61977386727E-02  0.44333622964E-01  0.51100000000E-03 0. -1.
         11    1    4    4    0    0 -0.34174215652E-01 -0.76903327854E-01  0.41034876597E-02  0.84256148633E-01  0.51100000000E-03 0.  1.
</event>
<event>
 8    1  0.1078274E+005  0.1043930E+01  0.7957747E-01            NaN
         13   -1    0    0    0    0  0.00000000000E+00  0.00000000000E+00  0.74505805969E-08  0.10566000000E+00  0.10566000000E+00 0.  1.
     999900   -1    0    0    0    0 -0.00000000000E+00 -0.00000000000E+00 -0.74505805969E-08  0.93827000000E+00  0.93827000000E+00 0.  1.
     999902    2    1    2    0    0 -0.15081438559E-01  0.15462348120E-01  0.99875668841E-02  0.10201332462E+01  0.10198556538E+01 0.  0.
     999903    2    3    3    0    0 -0.14983892059E-01  0.12096454145E+00  0.46389954483E-01  0.13308428695E+00  0.26504004361E-01 0.  0.
         14    1    1    2    0    0  0.15081438559E-01 -0.15462348120E-01 -0.99875668841E-02  0.23796753784E-01  0.00000000000E+00 0. -1.
     999901    1    3    3    0    0 -0.97546499409E-04 -0.10550219333E+00 -0.36402387599E-01  0.88704895927E+00  0.88000000000E+00 0.  1.
        -11    1    4    4    0    0 -0.20182017774E-01  0.62370020360E-01  0.19437395378E-01  0.68376945978E-01  0.51100000000E-03 0. -1.
         11    1    4    4    0    0  0.51981257142E-02  0.58594521087E-01  0.26952559105E-01  0.64707340972E-01  0.51100000000E-03 0.  1.
</event>
<event>
 8    1  0.1078274E+005  0.1043930E+01  0.7957747E-01            NaN
         13   -1    0    0    0    0  0.00000000000E+00  0.00000000000E+00  0.74505805969E-08  0.10566000000E+00  0.10566000000E+00 0. -1.
     999900   -1    0    0    0    0 -0.00000000000E+00 -0.00000000000E+00 -0.74505805969E-08  0.93827000000E+00  0.93827000000E+00 0. -1.
     999902    2    1    2    0    0  0.10011633125E-01  0.17555120844E-01 -0.98593170683E-02  0.10214439777E+01  0.10211964446E+01 0.  0.
     999903    2    3    3    0    0  0.98798531916E-01  0.38265041450E-01  0.77104423663E-01  0.13247001497E+00  0.19438349024E-01 0.  0.
         14    1    1    2    0    0 -0.10011633125E-01 -0.17555120844E-01  0.98593170683E-02  0.22486022297E-01  0.00000000000E+00 0.  1.
     999901    1    3    3    0    0 -0.88786898791E-01 -0.20709920606E-01 -0.86963740731E-01  0.88897396273E+00  0.88000000000E+00 0. -1.
        -11    1    4    4    0    0  0.43475476012E-01  0.13302217127E-01  0.22082987340E-01  0.50546863857E-01  0.51100000000E-03 0. -1.
         11    1    4    4    0    0  0.55323055904E-01  0.24962824324E-01  0.55021436323E-01  0.81923151117E-01  0.51100000000E-03 0.  1.
</event>
<event>
 8    1  0.1078274E+005  0.1043930E+01  0.7957747E-01            NaN
         13   -1    0    0    0    0  0.00000000000E+00  0.00000000000E+00  0.74505805969E-08  0.10566000000E+00  0.10566000000E+00 0.  1.
     999900   -1    0    0    0    0 -0.00000000000E+00 -0.00000000000E+00 -0.74505805969E-08  0.93827000000E+00  0.93827000000E+00 0. -1.
     999902    2    1    2    0    0  0.12720145776E-01 -0.12242580002E-01 -0.11356208197E-01  0.10229384222E+01  0.10227230169E+01 0.  0.
     999903    2    3    3    0    0 -0.10522714805E+00 -0.53537599061E-02  0.74779997947E-01  0.13087426197E+00  0.20847276130E-01 0.  0.
         14    1    1    2    0    0 -0.12720145776E-01  0.12242580002E-01  0.11356208197E-01  0.20991577794E-01  0.00000000000E+00 0. -1.
     999901    1    3    3    0    0  0.11794729383E+00 -0.68888200963E-02 -0.86136206143E-01  0.89206416023E+00  0.88000000000E+00 0. -1.
        -11    1    4    4    0    0 -0.41542719778E-01  0.35862084306E-02  0.39896463111E-01  0.57711760909E-01  0.51100000000E-03 0.  1.
         11    1    4    4    0    0 -0.63684428272E-01 -0.89399683367E-02  0.34883534836E-01  0.73162501064E-01  0.51100000000E-03 0. -1.
</event>
<event>
 8    1  0.1078274E+005  0.1043930E+01  0.7957747E-01            NaN
         13   -1    0    0    0    0  0.00000000000E+00  0.00000000000E+00  0.74505805969E-08  0.10566000000E+00  0.10566000000E+00 0. -1.
     999900   -1    0    0    0    0 -0.00000000000E+00 -0.00000000000E+00 -0.74505805969E-08  0.93827000000E+00  0.93827000000E+00 0.  1.
     999902    2    1    2    0    0  0.17993112412E-02 -0.67943108870E-02 -0.21448783178E-01  0.10213589902E+01  0.10211095614E+01 0.  0.
     999903    2    3    3    0    0  0.54167440171E-01 -0.83773171351E-01  0.81659309217E-01  0.13046087901E+00  0.19993557915E-01 0.  0.
         14    1    1    2    0    0 -0.17993112412E-02  0.67943108870E-02  0.21448783178E-01  0.22571009751E-01  0.00000000000E+00 0. -1.
     999901    1    3    3    0    0 -0.52368128930E-01  0.76978860464E-01 -0.10310809240E+00  0.89089811124E+00  0.88000000000E+00 0.  1.
        -11    1    4    4    0    0  0.16743597932E-01 -0.15175324139E-01  0.11127919076E-01  0.25193853186E-01  0.51100000000E-03 0.  1.
         11    1    4    4    0    0  0.37423842240E-01 -0.68597847212E-01  0.70531390142E-01  0.10526702583E+00  0.51100000000E-03 0. -1.
</event>
<event>
 8    1  0.1078274E+005  0.1043930E+01  0.7957747E-01            NaN
         13   -1    0    0    0    0  0.00000000000E+00  0.00000000000E+00  0.74505805969E-08  0.10566000000E+00  0.10566000000E+00 0. -1.
     999900   -1    0    0    0    0 -0.00000000000E+00 -0.00000000000E+00 -0.74505805969E-08  0.93827000000E+00  0.93827000000E+00 0.  1.
     999902    2    1    2    0    0  0.14926689942E-02  0.81060585569E-02  0.22331063949E-01  0.10201263729E+01  0.10198486182E+01 0.  0.
     999903    2    3    3    0    0 -0.11200778541E+00 -0.54822942096E-01  0.33069909825E-01  0.13054347340E+00  0.19916840560E-01 0.  0.
         14    1    1    2    0    0 -0.14926689942E-02 -0.81060585569E-02 -0.22331063949E-01  0.23803627101E-01  0.00000000000E+00 0.  1.
     999901    1    3    3    0    0  0.11350045441E+00  0.62929000653E-01 -0.10738845876E-01  0.88958289950E+00  0.88000000000E+00 0. -1.
        -11    1    4    4    0    0 -0.74090099976E-01 -0.26454692856E-01  0.16615773341E-01  0.80408573754E-01  0.51100000000E-03 0. -1.
         11    1    4    4    0    0 -0.37917685437E-01 -0.28368249240E-01  0.16454136484E-01  0.50134899644E-01  0.51100000000E-03 0.  1.
</event>
<event>
 8    1  0.1078274E+005  0.1043930E+01  0.7957747E-01            NaN
         13   -1    0    0    0    0  0.00000000000E+00  0.00000000000E+00  0.74505805969E-08  0.10566000000E+00  0.10566000000E+00 0. -1.
     999900   -1    0    0    0    0 -0.00000000000E+00 -0.00000000000E+00 -0.74505805969E-08  0.93827000000E+00  0.93827000000E+00 0. -1.
     999902    2    1    2    0    0  0.17639137826E-01  0.13239348713E-01 -0.95854684360E-02  0.10198821156E+01  0.10195985627E+01 0.  0.
     999903    2    3    3    0    0 -0.71349007121E-01 -0.10244290901E+00  0.16349014888E-01  0.12748429396E+00  0.19993111218E-01 0.  0.
         14    1    1    2    0    0 -0.17639137826E-01 -0.13239348713E-01  0.95854684360E-02  0.24047884371E-01  0.00000000000E+00 0. -1.
     999901    1    3    3    0    0  0.88988144947E-01  0.11568225772E+00 -0.25934483324E-01  0.89239782167E+00  0.88000000000E+00 0.  1.
        -11    1    4    4    0    0 -0.22544630088E-01 -0.18503626023E-01  0.10526240387E-02  0.29189273032E-01  0.51100000000E-03 0. -1.
         11    1    4    4    0    0 -0.48804377033E-01 -0.83939282983E-01  0.15296390850E-01  0.98295020929E-01  0.51100000000E-03 0.  1.
</event>
<event>
 8    1  0.1078274E+005  0.1043930E+01  0.7957747E-01            NaN
         13   -1    0    0    0    0  0.00000000000E+00  0.00000000000E+00  0.74505805969E-08  0.10566000000E+00  0.10566000000E+00 0. -1.
     999900   -1    0    0    0    0 -0.00000000000E+00 -0.00000000000E+00 -0.74505805969E-08  0.93827000000E+00  0.93827000000E+00 0. -1.
     999902    2    1    2    0    0  0.21547916358E-01  0.90651306367E-02 -0.56453166779E-02  0.10198809066E+01  0.10195973248E+01 0.  0.
     999903    2    3    3    0    0 -0.87792473473E-01 -0.71346287880E-01  0.52362751973E-01  0.12758821185E+00  0.27186077626E-01 0.  0.
         14    1    1    2    0    0 -0.21547916358E-01 -0.90651306367E-02  0.56453166779E-02  0.24049093397E-01  0.00000000000E+00 0.  1.
     999901    1    3    3    0    0  0.10934038983E+00  0.80411418517E-01 -0.58008068651E-01  0.89229269475E+00  0.88000000000E+00 0. -1.
        -11    1    4    4    0    0 -0.35964269993E-01 -0.18462163977E-01  0.29644620672E-01  0.50133271094E-01  0.51100000000E-03 0. -1.
         11    1    4    4    0    0 -0.51828203480E-01 -0.52884123904E-01  0.22718131301E-01  0.77454940758E-01  0.51100000000E-03 0.  1.
</event>
<event>
 8    1  0.1078274E+005  0.1043930E+01  0.7957747E-01            NaN
         13   -1    0    0    0    0  0.00000000000E+00  0.00000000000E+00  0.74505805969E-08  0.10566000000E+00  0.10566000000E+00 0. -1.
     999900   -1    0    0    0    0 -0.00000000000E+00 -0.00000000000E+00 -0.74505805969E-08  0.93827000000E+00  0.93827000000E+00 0. -1.
     999902    2    1    2    0    0 -0.19749314627E-03  0.15631066856E-01  0.17867532648E-01  0.10201893602E+01  0.10199130908E+01 0.  0.
     999903    2    3    3    0    0  0.62847728806E-01 -0.91309579754E-01  0.65459455464E-01  0.13020284738E+00  0.19508069739E-01 0.  0.
         14    1    1    2    0    0  0.19749314627E-03 -0.15631066856E-01 -0.17867532648E-01  0.23740639787E-01  0.00000000000E+00 0.  1.
     999901    1    3    3    0    0 -0.63045221953E-01  0.10694064661E+00 -0.47591922816E-01  0.88998651283E+00  0.88000000000E+00 0. -1.
        -11    1    4    4    0    0  0.33034820626E-01 -0.40340751810E-01  0.20681510475E-01  0.56095112326E-01  0.51100000000E-03 0. -1.
         11    1    4    4    0    0  0.29812908181E-01 -0.50968827944E-01  0.44777944989E-01  0.74107735053E-01  0.51100000000E-03 0.  1.
</event>
<event>
 8    1  0.1078274E+005  0.1043930E+01  0.7957747E-01            NaN
         13   -1    0    0    0    0  0.00000000000E+00  0.00000000000E+00  0.74505805969E-08  0.10566000000E+00  0.10566000000E+00 0.  1.
     999900   -1    0    0    0    0 -0.00000000000E+00 -0.00000000000E+00 -0.74505805969E-08  0.93827000000E+00  0.93827000000E+00 0. -1.
     999902    2    1    2    0    0 -0.22549671655E-01  0.58873027654E-02  0.20943064832E-02  0.10205305525E+01  0.10202622576E+01 0.  0.
     999903    2    3    3    0    0  0.74618865148E-01 -0.39258436810E-01 -0.95237020845E-01  0.12870475690E+00  0.19637321918E-01 0.  0.
         14    1    1    2    0    0  0.22549671655E-01 -0.58873027654E-02 -0.20943064832E-02  0.23399447542E-01  0.00000000000E+00 0. -1.
     999901    1    3    3    0    0 -0.97168536803E-01  0.45145739576E-01  0.97331327328E-01  0.89182579556E+00  0.88000000000E+00 0.  1.
        -11    1    4    4    0    0  0.44474794253E-01 -0.12385629603E-01 -0.49562315650E-01  0.67735481087E-01  0.51100000000E-03 0.  1.
         11    1    4    4    0    0  0.30144070895E-01 -0.26872807207E-01 -0.45674705195E-01  0.60969275812E-01  0.51100000000E-03 0. -1.
</event>
<event>
 8    1  0.1078274E+005  0.1043930E+01  0.7957747E-01            NaN
         13   -1    0    0    0    0  0.00000000000E+00  0.00000000000E+00  0.74505805969E-08  0.10566000000E+00  0.10566000000E+00 0.  1.
     999900   -1    0    0    0    0 -0.00000000000E+00 -0.00000000000E+00 -0.74505805969E-08  0.93827000000E+00  0.93827000000E+00 0. -1.
     999902    2    1    2    0    0 -0.13607837433E-01 -0.17485221765E-01  0.34026691962E-02  0.10215138367E+01  0.10212678562E+01 0.  0.
     999903    2    3    3    0    0 -0.33464438586E-01  0.10128276999E+00  0.72387587106E-01  0.13063840243E+00  0.21174543126E-01 0.  0.
         14    1    1    2    0    0  0.13607837433E-01  0.17485221765E-01 -0.34026691962E-02  0.22416163307E-01  0.00000000000E+00 0. -1.
     999901    1    3    3    0    0  0.19856601153E-01 -0.11876799175E+00 -0.68984917909E-01  0.89087543426E+00  0.88000000000E+00 0. -1.
        -11    1    4    4    0    0 -0.55794030170E-02  0.46420714226E-01  0.37158358759E-01  0.59724510831E-01  0.51100000000E-03 0.  1.
         11    1    4    4    0    0 -0.27885035569E-01  0.54862055760E-01  0.35229228347E-01  0.70913891600E-01  0.51100000000E-03 0. -1.
</event>
<event>
 8    1  0.1078274E+005  0.1043930E+01  0.7957747E-01            NaN
         13   -1    0    0    0    0  0.00000000000E+00  0.00000000000E+00  0.74505805969E-08  0.10566000000E+00  0.10566000000E+00 0.  1.
     999900   -1    0    0    0    0 -0.00000000000E+00 -0.00000000000E+00 -0.74505805969E-08  0.93827000000E+00  0.93827000000E+00 0. -1.
     999902    2    1    2    0    0  0.24684957753E-02  0.20040703599E-01 -0.13291974897E-01  0.10197556361E+01  0.10194690567E+01 0.  0.
     999903    2    3    3    0    0  0.11174221004E+00 -0.50814785207E-01 -0.37829537328E-01  0.12983241646E+00  0.18892288641E-01 0.  0.
         14    1    1    2    0    0 -0.24684957753E-02 -0.20040703599E-01  0.13291974897E-01  0.24174363876E-01  0.00000000000E+00 0.  1.
     999901    1    3    3    0    0 -0.10927371426E+00  0.70855488807E-01  0.24537562431E-01  0.88992321966E+00  0.88000000000E+00 0.  1.
        -11    1    4    4    0    0  0.53005099897E-01 -0.33476250877E-01 -0.14931264379E-01  0.64446906558E-01  0.51100000000E-03 0. -1.
         11    1    4    4    0    0  0.58737110141E-01 -0.17338534330E-01 -0.22898272949E-01  0.65385509905E-01  0.51100000000E-03 0.  1.
</event>
<event>
 8    1  0.1078274E+005  0.1043930E+01  0.7957747E-01            NaN
         13   -1    0    0    0    0  0.00000000000E+00  0.00000000000E+00  0.74505805969E-08  0.10566000000E+00  0.10566000000E+00 0.  1.
     999900   -1    0    0    0    0 -0.00000000000E+00 -0.00000000000E+00 -0.74505805969E-08  0.93827000000E+00  0.93827000000E+00 0.  1.
     999902    2    1    2    0    0 -0.16314424144E-02 -0.22531873076E-01  0.84824382440E-02  0.10197991346E+01  0.10195135978E+01 0.  0.
     999903    2    3    3    0    0 -0.80284025922E-01 -0.69470167152E-01  0.75725855407E-01  0.13249360121E+00  0.23420509029E-01 0.  0.
         14    1    1    2    0    0  0.16314424144E-02  0.22531873076E-01 -0.84824382440E-02  0.24130865447E-01  0.00000000000E+00 0. -1.
     999901    1    3    3    0    0  0.78652583508E-01  0.46938294076E-01 -0.67243417163E-01  0.88730553334E+00  0.88000000000E+00 0.  1.
        -11    1    4    4    0    0 -0.34522972819E-01 -0.40326997673E-01  0.47970222055E-01  0.71550721301E-01  0.51100000000E-03 0.  1.
         11    1    4    4    0    0 -0.45761053103E-01 -0.29143169478E-01  0.27755633351E-01  0.60942879913E-01  0.51100000000E-03 0. -1.
</event>
<event>
 8    1  0.1078274E+005  0.1043930E+01  0.7957747E-01            NaN
         13   -1    0    0    0    0  0.00000000000E+00  0.00000000000E+00  0.74505805969E-08  0.10566000000E+00  0.10566000000E+00 0. -1.
     999900   -1    0    0    0    0 -0.00000000000E+00 -0.00000000000E+00 -0.74505805969E-08  0.93827000000E+00  0.93827000000E+00 0.  1.
     999902    2    1    2    0    0  0.19526599871E-02 -0.18151371434E-01 -0.15983426540E-01  0.10196657240E+01  0.10193769831E+01 0.  0.
     999903    2    3    3    0    0  0.31415909469E-01 -0.11716982586E+00  0.46363249178E-01  0.13143160770E+00  0.20223480585E-01 0.  0.
         14    1    1    2    0    0 -0.19526599871E-02  0.18151371434E-01  0.15983426540E-01  0.24264276002E-01  0.00000000000E+00 0. -1.
     999901    1    3    3    0    0 -0.29463249481E-01  0.99018454429E-01 -0.62346675718E-01  0.88823411630E+00  0.88000000000E+00 0. -1.
        -11    1    4    4    0    0  0.74061471420E-02 -0.65051026777E-01  0.21763138748E-01  0.68995524706E-01  0.51100000000E-03 0. -1.
         11    1    4    4    0    0  0.24009762327E-01 -0.52118799086E-01  0.24600110430E-01  0.62436082991E-01  0.51100000000E-03 0.  1.
</event>
<event>
 8    1  0.1078274E+005  0.1043930E+01  0.7957747E-01            NaN
         13   -1    0    0    0    0  0.00000000000E+00  0.00000000000E+00  0.74505805969E-08  0.10566000000E+00  0.10566000000E+00 0. -1.
     999900   -1    0    0    0    0 -0.00000000000E+00 -0.00000000000E+00 -0.74505805969E-08  0.93827000000E+00  0.93827000000E+00 0.  1.
     999902    2    1    2    0    0 -0.11570846862E-01 -0.24282551875E-01  0.43929830551E-02  0.10166751817E+01  0.10163097952E+01 0.  0.
     999903    2    3    3    0    0  0.60604538394E-01 -0.35947151145E-01 -0.10378514952E+00  0.12704162930E+00  0.20077613561E-01 0.  0.
         14    1    1    2    0    0  0.11570846862E-01  0.24282551875E-01 -0.43929830551E-02  0.27254818341E-01  0.00000000000E+00 0. -1.
     999901    1    3    3    0    0 -0.72175385255E-01  0.11664599270E-01  0.10817813257E+00  0.88963355236E+00  0.88000000000E+00 0. -1.
        -11    1    4    4    0    0  0.19798854588E-01 -0.13249205495E-01 -0.52660891487E-01  0.57801096032E-01  0.51100000000E-03 0. -1.
         11    1    4    4    0    0  0.40805683805E-01 -0.22697945650E-01 -0.51124258029E-01  0.69240533270E-01  0.51100000000E-03 0.  1.
</event>
<event>
 8    1  0.1078274E+005  0.1043930E+01  0.7957747E-01            NaN
         13   -1    0    0    0    0  0.00000000000E+00  0.00000000000E+00  0.74505805969E-08  0.10566000000E+00  0.10566000000E+00 0. -1.
     999900   -1    0    0    0    0 -0.00000000000E+00 -0.00000000000E+00 -0.74505805969E-08  0.93827000000E+00  0.93827000000E+00 0. -1.
     999902    2    1    2    0    0 -0.58000984635E-02 -0.21706396869E-01 -0.66447949730E-02  0.10205000596E+01  0.10202310569E+01 0.  0.
     999903    2    3    3    0    0  0.33385936150E-01  0.11661386699E+00 -0.36780968595E-01  0.12832506013E+00  0.20026649766E-01 0.  0.
         14    1    1    2    0    0  0.58000984635E-02  0.21706396869E-01  0.66447949730E-02  0.23429940406E-01  0.00000000000E+00 0. -1.
     999901    1    3    3    0    0 -0.39186034613E-01 -0.13832026386E+00  0.30136173622E-01  0.89217499946E+00  0.88000000000E+00 0.  1.
        -11    1    4    4    0    0  0.50538281889E-02  0.46606816144E-01 -0.19931911134E-01  0.50943877875E-01  0.51100000000E-03 0.  1.
         11    1    4    4    0    0  0.28332107961E-01  0.70007050844E-01 -0.16849057461E-01  0.77381182258E-01  0.51100000000E-03 0. -1.
</event>
<event>
 8    1  0.1078274E+005  0.1043930E+01  0.7957747E-01            NaN
         13   -1    0    0    0    0  0.00000000000E+00  0.00000000000E+00  0.74505805969E-08  0.10566000000E+00  0.10566000000E+00 0. -1.
     999900   -1    0    0    0    0 -0.00000000000E+00 -0.00000000000E+00 -0.74505805969E-08  0.93827000000E+00  0.93827000000E+00 0.  1.
     999902    2    1    2    0    0  0.11192380191E-01  0.16288761126E-01 -0.14208088510E-01  0.10195894394E+01  0.10192988580E+01 0.  0.
     999903    2    3    3    0    0  0.48582343781E-01  0.72326307102E-01 -0.98728863547E-01  0.13297679713E+00  0.18549966372E-01 0.  0.
         14    1    1    2    0    0 -0.11192380191E-01 -0.16288761126E-01  0.14208088510E-01  0.24340560644E-01  0.00000000000E+00 0. -1.
     999901    1    3    3    0    0 -0.37389963590E-01 -0.56037545976E-01  0.84520775037E-01  0.88661264222E+00  0.88000000000E+00 0.  1.
        -11    1    4    4    0    0  0.37238622377E-01  0.43083593166E-01 -0.71731381108E-01  0.91589099533E-01  0.51100000000E-03 0.  1.
         11    1    4    4    0    0  0.11343721404E-01  0.29242713936E-01 -0.26997482439E-01  0.41387697600E-01  0.51100000000E-03 0. -1.
</event>
<event>
 8    1  0.1078274E+005  0.1043930E+01  0.7957747E-01            NaN
         13   -1    0    0    0    0  0.00000000000E+00  0.00000000000E+00  0.74505805969E-08  0.10566000000E+00  0.10566000000E+00 0. -1.
     999900   -1    0    0    0    0 -0.00000000000E+00 -0.00000000000E+00 -0.74505805969E-08  0.93827000000E+00  0.93827000000E+00 0. -1.
     999902    2    1    2    0    0 -0.17298749296E-01 -0.13728907661E-01 -0.80628813923E-02  0.10204195834E+01  0.10201487080E+01 0.  0.
     999903    2    3    3    0    0 -0.47121553390E-01 -0.96587452650E-01 -0.76550404156E-01  0.13337647345E+00  0.19486982577E-01 0.  0.
         14    1    1    2    0    0  0.17298749296E-01  0.13728907661E-01  0.80628813923E-02  0.23510416609E-01  0.00000000000E+00 0.  1.
     999901    1    3    3    0    0  0.29822804093E-01  0.82858544988E-01  0.68487522764E-01  0.88704310994E+00  0.88000000000E+00 0. -1.
        -11    1    4    4    0    0 -0.11212956099E-01 -0.40894566200E-01 -0.36459479477E-01  0.55925402938E-01  0.51100000000E-03 0.  1.
         11    1    4    4    0    0 -0.35908597291E-01 -0.55692886450E-01 -0.40090924680E-01  0.77451070510E-01  0.51100000000E-03 0. -1.
</event>
<event>
 8    1  0.1078274E+005  0.1043930E+01  0.7957747E-01            NaN
         13   -1    0    0    0    0  0.00000000000E+00  0.00000000000E+00  0.74505805969E-08  0.10566000000E+00  0.10566000000E+00 0.  1.
     999900   -1    0    0    0    0 -0.00000000000E+00 -0.00000000000E+00 -0.74505805969E-08  0.93827000000E+00  0.93827000000E+00 0. -1.
     999902    2    1    2    0    0  0.75740207133E-02  0.84386030316E-03  0.22724491122E-01  0.10199616795E+01  0.10196800220E+01 0.  0.
     999903    2    3    3    0    0  0.95267291648E-02 -0.48298561928E-01 -0.11639096763E+00  0.12767702673E+00  0.18194948687E-01 0.  0.
         14    1    1    2    0    0 -0.75740207133E-02 -0.84386030316E-03 -0.22724491122E-01  0.23968320482E-01  0.00000000000E+00 0. -1.
     999901    1    3    3    0    0 -0.19527084514E-02  0.49142422231E-01  0.13911545875E+00  0.89228465278E+00  0.88000000000E+00 0.  1.
        -11    1    4    4    0    0  0.13441937361E-01 -0.28473094849E-01 -0.59814616581E-01  0.67597723986E-01  0.51100000000E-03 0. -1.
         11    1    4    4    0    0 -0.39152081962E-02 -0.19825467079E-01 -0.56576351045E-01  0.60079302748E-01  0.51100000000E-03 0.  1.
</event>
<event>
 8    1  0.1078274E+005  0.1043930E+01  0.7957747E-01            NaN
         13   -1    0    0    0    0  0.00000000000E+00  0.00000000000E+00  0.74505805969E-08  0.10566000000E+00  0.10566000000E+00 0. -1.
     999900   -1    0    0    0    0 -0.00000000000E+00 -0.00000000000E+00 -0.74505805969E-08  0.93827000000E+00  0.93827000000E+00 0.  1.
     999902    2    1    2    0    0 -0.23258584161E-02  0.32658250343E-02 -0.22394886630E-01  0.10211790401E+01  0.10209255730E+01 0.  0.
     999903    2    3    3    0    0 -0.10166909725E+00  0.60135564482E-01 -0.57814520399E-01  0.13305866714E+00  0.20228659843E-01 0.  0.
         14    1    1    2    0    0  0.23258584161E-02 -0.32658250343E-02  0.22394886630E-01  0.22750959929E-01  0.00000000000E+00 0. -1.
     999901    1    3    3    0    0  0.99343238837E-01 -0.56869739447E-01  0.35419633770E-01  0.88812037294E+00  0.88000000000E+00 0. -1.
        -11    1    4    4    0    0 -0.65415136540E-01  0.43170470774E-01 -0.47767304777E-01  0.91786742845E-01  0.51100000000E-03 0.  1.
         11    1    4    4    0    0 -0.36253960713E-01  0.16965093707E-01 -0.10047215623E-01  0.41271924291E-01  0.51100000000E-03 0. -1.
</event>
<event>
 8    1  0.1078274E+005  0.1043930E+01  0.7957747E-01            NaN
         13   -1    0    0    0    0  0.00000000000E+00  0.00000000000E+00  0.74505805969E-08  0.10566000000E+00  0.10566000000E+00 0. -1.
     999900   -1    0    0    0    0 -0.00000000000E+00 -0.00000000000E+00 -0.74505805969E-08  0.93827000000E+00  0.93827000000E+00 0. -1.
     999902    2    1    2    0    0  0.16922666679E-01 -0.14955927517E-01 -0.83074473456E-02  0.10198661247E+01  0.10195821900E+01 0.  0.
     999903    2    3    3    0    0  0.11027592547E+00 -0.34773851716E-01 -0.62638287200E-01  0.13304065072E+00  0.20155873084E-01 0.  0.
         14    1    1    2    0    0 -0.16922666679E-01  0.14955927517E-01  0.83074473456E-02  0.24063875350E-01  0.00000000000E+00 0.  1.
     999901    1    3    3    0    0 -0.93353258792E-01  0.19817924199E-01  0.54330839854E-01  0.88682547393E+00  0.88000000000E+00 0.  1.
        -11    1    4    4    0    0  0.84555552657E-01 -0.17617526671E-01 -0.43969835655E-01  0.96920721724E-01  0.51100000000E-03 0.  1.
         11    1    4    4    0    0  0.25720372815E-01 -0.17156325045E-01 -0.18668451545E-01  0.36119928999E-01  0.51100000000E-03 0. -1.
</event>
<event>
 8    1  0.1078274E+005  0.1043930E+01  0.7957747E-01            NaN
         13   -1    0    0    0    0  0.00000000000E+00  0.00000000000E+00  0.74505805969E-08  0.10566000000E+00  0.10566000000E+00 0. -1.
     999900   -1    0    0    0    0 -0.00000000000E+00 -0.00000000000E+00 -0.74505805969E-08  0.93827000000E+00  0.93827000000E+00 0.  1.
     999902    2    1    2    0    0 -0.73259919712E-02 -0.17466744424E-01  0.70372795100E-02  0.10237240449E+01  0.10235246160E+01 0.  0.
     999903    2    3    3    0    0 -0.23438634214E-01  0.11388377426E+00  0.60035344050E-01  0.13225258105E+00  0.19173394211E-01 0.  0.
         14    1    1    2    0    0  0.73259919712E-02  0.17466744424E-01 -0.70372795100E-02  0.20205955113E-01  0.00000000000E+00 0.  1.
     999901    1    3    3    0    0  0.16112642243E-01 -0.13135051868E+00 -0.52998064540E-01  0.89147146384E+00  0.88000000000E+00 0.  1.
        -11    1    4    4    0    0 -0.28620452201E-02  0.59844754891E-01  0.33265010342E-01  0.68530343826E-01  0.51100000000E-03 0. -1.
         11    1    4    4    0    0 -0.20576588994E-01  0.54039019364E-01  0.26770333708E-01  0.63722237220E-01  0.51100000000E-03 0.  1.
</event>
<event>
 8    1  0.1078274E+005  0.1043930E+01  0.7957747E-01            NaN
         13   -1    0    0    0    0  0.00000000000E+00  0.00000000000E+00  0.74505805969E-08  0.10566000000E+00  0.10566000000E+00 0.  1.
     999900   -1    0    0    0    0 -0.00000000000E+00 -0.00000000000E+00 -0.74505805969E-08  0.93827000000E+00  0.93827000000E+00 0. -1.
     999902    2    1    2    0    0  0.21494348714E-01  0.15071654581E-02 -0.65963605256E-02  0.10213957916E+01  0.10211471846E+01 0.  0.
     999903    2    3    3    0    0  0.11580750545E+00 -0.22072564442E-01  0.59707609532E-01  0.13356292919E+00  0.19377332086E-01 0.  0.
         14    1    1    2    0    0 -0.21494348714E-01 -0.15071654581E-02  0.65963605256E-02  0.22534208363E-01  0.00000000000E+00 0.  1.
     999901    1    3    3    0    0 -0.94313156734E-01  0.23579729900E-01 -0.66303970058E-01  0.88783286245E+00  0.88000000000E+00 0. -1.
        -11    1    4    4    0    0  0.35386503892E-01 -0.10356077750E-01  0.28102236036E-01  0.46362159088E-01  0.51100000000E-03 0.  1.
         11    1    4    4    0    0  0.80421001556E-01 -0.11716486692E-01  0.31605373497E-01  0.87200770103E-01  0.51100000000E-03 0. -1.
</event>
<event>
 8    1  0.1078274E+005  0.1043930E+01  0.7957747E-01            NaN
         13   -1    0    0    0    0  0.00000000000E+00  0.00000000000E+00  0.74505805969E-08  0.10566000000E+00  0.10566000000E+00 0.  1.
     999900   -1    0    0    0    0 -0.00000000000E+00 -0.00000000000E+00 -0.74505805969E-08  0.93827000000E+00  0.93827000000E+00 0.  1.
     999902    2    1    2    0    0 -0.22589567098E-01  0.61693770771E-02  0.49689159616E-02  0.10199917486E+01  0.10197108057E+01 0.  0.
     999903    2    3    3    0    0 -0.69691661149E-01  0.10993134240E+00 -0.14277004184E-01  0.13243580209E+00  0.19838879778E-01 0.  0.
         14    1    1    2    0    0  0.22589567098E-01 -0.61693770771E-02 -0.49689159616E-02  0.23938251420E-01  0.00000000000E+00 0. -1.
     999901    1    3    3    0    0  0.47102094051E-01 -0.10376196532E+00  0.19245920146E-01  0.88755594649E+00  0.88000000000E+00 0. -1.
        -11    1    4    4    0    0 -0.50110866258E-01  0.61008869011E-01 -0.76199842364E-02  0.79319015979E-01  0.51100000000E-03 0. -1.
         11    1    4    4    0    0 -0.19580794891E-01  0.48922473387E-01 -0.66570199475E-02  0.53116786109E-01  0.51100000000E-03 0.  1.
</event>
<event>
 8    1  0.1078274E+005  0.1043930E+01  0.7957747E-01            NaN
         13   -1    0    0    0    0  0.00000000000E+00  0.00000000000E+00  0.74505805969E-08  0.10566000000E+00  0.10566000000E+00 0. -1.
     999900   -1    0    0    0    0 -0.00000000000E+00 -0.00000000000E+00 -0.74505805969E-08  0.93827000000E+00  0.93827000000E+00 0.  1.
     999902    2    1    2    0    0  0.25563963360E-02  0.17542169900E-01  0.13251431250E-01  0.10217971439E+01  0.10215574091E+01 0.  0.
     999903    2    3    3    0    0  0.87831950270E-01 -0.50711339707E-01 -0.79162931638E-01  0.13024183094E+00  0.20250267126E-01 0.  0.
         14    1    1    2    0    0 -0.25563963360E-02 -0.17542169900E-01 -0.13251431250E-01  0.22132856056E-01  0.00000000000E+00 0.  1.
     999901    1    3    3    0    0 -0.85275553934E-01  0.68253509607E-01  0.92414362888E-01  0.89155531300E+00  0.88000000000E+00 0. -1.
        -11    1    4    4    0    0  0.29224681357E-01 -0.63618108065E-02 -0.22048910223E-01  0.37161407403E-01  0.51100000000E-03 0. -1.
         11    1    4    4    0    0  0.58607268914E-01 -0.44349528901E-01 -0.57114021415E-01  0.93080423540E-01  0.51100000000E-03 0.  1.
</event>
<event>
 8    1  0.1078274E+005  0.1043930E+01  0.7957747E-01            NaN
         13   -1    0    0    0    0  0.00000000000E+00  0.00000000000E+00  0.74505805969E-08  0.10566000000E+00  0.10566000000E+00 0. -1.
     999900   -1    0    0    0    0 -0.00000000000E+00 -0.00000000000E+00 -0.74505805969E-08  0.93827000000E+00  0.93827000000E+00 0.  1.
     999902    2    1    2    0    0 -0.14709634731E-02  0.74245420474E-02 -0.21969139596E-01  0.10206935921E+01  0.10204290658E+01 0.  0.
     999903    2    3    3    0    0  0.10335158475E+00  0.13836879823E-01  0.73737640152E-01  0.12929655800E+00  0.20182938842E-01 0.  0.
         14    1    1    2    0    0  0.14709634731E-02 -0.74245420474E-02  0.21969139596E-01  0.23236407913E-01  0.00000000000E+00 0. -1.
     999901    1    3    3    0    0 -0.10482254823E+00 -0.64123377761E-02 -0.95706779748E-01  0.89139703409E+00  0.88000000000E+00 0.  1.
        -11    1    4    4    0    0  0.50875926353E-01  0.16952800423E-01  0.38120813750E-01  0.65796769574E-01  0.51100000000E-03 0.  1.
         11    1    4    4    0    0  0.52475658401E-01 -0.31159205993E-02  0.35616826402E-01  0.63499788423E-01  0.51100000000E-03 0. -1.
</event>
<event>
 8    1  0.1078274E+005  0.1043930E+01  0.7957747E-01            NaN
         13   -1    0    0    0    0  0.00000000000E+00  0.00000000000E+00  0.74505805969E-08  0.10566000000E+00  0.10566000000E+00 0. -1.
     999900   -1    0    0    0    0 -0.00000000000E+00 -0.00000000000E+00 -0.74505805969E-08  0.93827000000E+00  0.93827000000E+00 0. -1.
     999902    2    1    2    0    0  0.22097857866E-01  0.34791423513E-02  0.90417820084E-02  0.10198017266E+01  0.10195162520E+01 0.  0.
     999903    2    3    3    0    0  0.48621075296E-01 -0.10177406540E+00 -0.62108133742E-01  0.13028273902E+00  0.19854532470E-01 0.  0.
         14    1    1    2    0    0 -0.22097857866E-01 -0.34791423513E-02 -0.90417820084E-02  0.24128273367E-01  0.00000000000E+00 0.  1.
     999901    1    3    3    0    0 -0.26523217430E-01  0.10525320775E+00  0.71149915750E-01  0.88951898761E+00  0.88000000000E+00 0. -1.
        -11    1    4    4    0    0  0.15123955695E-01 -0.53934793449E-01 -0.33200679850E-01  0.65117142472E-01  0.51100000000E-03 0. -1.
         11    1    4    4    0    0  0.33497119602E-01 -0.47839271952E-01 -0.28907453892E-01  0.65165596553E-01  0.51100000000E-03 0.  1.
</event>
<event>
 8    1  0.1078274E+005  0.1043930E+01  0.7957747E-01            NaN
         13   -1    0    0    0    0  0.00000000000E+00  0.00000000000E+00  0.74505805969E-08  0.10566000000E+00  0.10566000000E+00 0. -1.
     999900   -1    0    0    0    0 -0.00000000000E+00 -0.00000000000E+00 -0.74505805969E-08  0.93827000000E+00  0.93827000000E+00 0.  1.
     999902    2    1    2    0    0  0.17413441967E-01  0.13454961157E-01 -0.81008549967E-02  0.10204803136E+01  0.10202108520E+01 0.  0.
     999903    2    3    3    0    0 -0.12293407037E+00  0.23566806424E-01  0.22798002540E-01  0.12876600226E+00  0.19818032108E-01 0.  0.
         14    1    1    2    0    0 -0.17413441967E-01 -0.13454961157E-01  0.81008549967E-02  0.23449686406E-01  0.00000000000E+00 0. -1.
     999901    1    3    3    0    0  0.14034751234E+00 -0.10111845267E-01 -0.30898857537E-01  0.89171431133E+00  0.88000000000E+00 0. -1.
        -11    1    4    4    0    0 -0.80868312681E-01  0.21579074158E-01  0.22413216727E-01  0.86648449741E-01  0.51100000000E-03 0. -1.
         11    1    4    4    0    0 -0.42065757688E-01  0.19877322658E-02  0.38478581369E-03  0.42117552523E-01  0.51100000000E-03 0.  1.
</event>
<event>
 8    1  0.1078274E+005  0.1043930E+01  0.7957747E-01            NaN
         13   -1    0    0    0    0  0.00000000000E+00  0.00000000000E+00  0.74505805969E-08  0.10566000000E+00  0.10566000000E+00 0.  1.
     999900   -1    0    0    0    0 -0.00000000000E+00 -0.00000000000E+00 -0.74505805969E-08  0.93827000000E+00  0.93827000000E+00 0.  1.
     999902    2    1    2    0    0  0.21333240607E-01  0.71293141907E-02 -0.64286424432E-02  0.10205363744E+01  0.10202682146E+01 0.  0.
     999903    2    3    3    0    0 -0.87971346773E-01 -0.89865231407E-01 -0.16010819292E-01  0.12843366012E+00  0.20594684936E-01 0.  0.
         14    1    1    2    0    0 -0.21333240607E-01 -0.71293141907E-02  0.64286424432E-02  0.23393625612E-01  0.00000000000E+00 0. -1.
     999901    1    3    3    0    0  0.10930458738E+00  0.96994545598E-01  0.95821768484E-02  0.89210271427E+00  0.88000000000E+00 0.  1.
        -11    1    4    4    0    0 -0.22263571395E-01 -0.36369382294E-01 -0.36040987664E-02  0.42797771304E-01  0.51100000000E-03 0. -1.
         11    1    4    4    0    0 -0.65707775377E-01 -0.53495849113E-01 -0.12406720525E-01  0.85635888812E-01  0.51100000000E-03 0.  1.
</event>
<event>
 8    1  0.1078274E+005  0.1043930E+01  0.7957747E-01            NaN
         13   -1    0    0    0    0  0.00000000000E+00  0.00000000000E+00  0.74505805969E-08  0.10566000000E+00  0.10566000000E+00 0.  1.
     999900   -1    0    0    0    0 -0.00000000000E+00 -0.00000000000E+00 -0.74505805969E-08  0.93827000000E+00  0.93827000000E+00 0. -1.
     999902    2    1    2    0    0 -0.23676540722E-01  0.29754849530E-02 -0.45942703465E-02  0.10196289833E+01  0.10193393568E+01 0.  0.
     999903    2    3    3    0    0  0.52537019374E-01 -0.59175481175E-01 -0.10027717874E+00  0.12899636081E+00  0.17963088511E-01 0.  0.
         14    1    1    2    0    0  0.23676540722E-01 -0.29754849530E-02  0.45942703465E-02  0.24301016672E-01  0.00000000000E+00 0. -1.
     999901    1    3    3    0    0 -0.76213560096E-01  0.62150966128E-01  0.95682908396E-01  0.89063262252E+00  0.88000000000E+00 0.  1.
        -11    1    4    4    0    0  0.14792580254E-01 -0.29842610316E-01 -0.39501840335E-01  0.51672607171E-01  0.51100000000E-03 0. -1.
         11    1    4    4    0    0  0.37744439121E-01 -0.29332870859E-01 -0.60775338408E-01  0.77323753640E-01  0.51100000000E-03 0.  1.
</event>
<event>
 8    1  0.1078274E+005  0.1043930E+01  0.7957747E-01            NaN
         13   -1    0    0    0    0  0.00000000000E+00  0.00000000000E+00  0.74505805969E-08  0.10566000000E+00  0.10566000000E+00 0. -1.
     999900   -1    0    0    0    0 -0.00000000000E+00 -0.00000000000E+00 -0.74505805969E-08  0.93827000000E+00  0.93827000000E+00 0. -1.
     999902    2    1    2    0    0  0.34962596152E-02  0.20798728613E-01 -0.12365886912E-01  0.10194815624E+01  0.10191883682E+01 0.  0.
     999903    2    3    3    0    0  0.17817737791E-01  0.83990965757E-01 -0.98670797630E-01  0.13288870137E+00  0.23484602145E-01 0.  0.
         14    1    1    2    0    0 -0.34962596152E-02 -0.20798728613E-01  0.12365886912E-01  0.24448437626E-01  0.00000000000E+00 0. -1.
     999901    1    3    3    0    0 -0.14321478176E-01 -0.63192237144E-01  0.86304910717E-01  0.88659286101E+00  0.88000000000E+00 0.  1.
        -11    1    4    4    0    0 -0.56283236737E-02  0.22257970550E-01 -0.26430988578E-01  0.35013619616E-01  0.51100000000E-03 0.  1.
         11    1    4    4    0    0  0.23446061465E-01  0.61732995207E-01 -0.72239809051E-01  0.97875081753E-01  0.51100000000E-03 0. -1.
</event>
<event>
 8    1  0.1078274E+005  0.1043930E+01  0.7957747E-01            NaN
         13   -1    0    0    0    0  0.00000000000E+00  0.00000000000E+00  0.74505805969E-08  0.10566000000E+00  0.10566000000E+00 0. -1.
     999900   -1    0    0    0    0 -0.00000000000E+00 -0.00000000000E+00 -0.74505805969E-08  0.93827000000E+00  0.93827000000E+00 0. -1.
     999902    2    1    2    0    0 -0.11788832686E-01 -0.13090302711E-01 -0.13832029245E-01  0.10215322851E+01  0.10212867138E+01 0.  0.
     999903    2    3    3    0    0  0.12568279004E+00 -0.12426231429E-01 -0.27255062913E-01  0.13075786588E+00  0.20104877396E-01 0.  0.
         14    1    1    2    0    0  0.11788832686E-01  0.13090302711E-01  0.13832029245E-01  0.22397714933E-01  0.00000000000E+00 0. -1.
     999901    1    3    3    0    0 -0.13747162273E+00 -0.66407128180E-03  0.13423033668E-01  0.89077441919E+00  0.88000000000E+00 0.  1.
        -11    1    4    4    0    0  0.10659699674E+00 -0.32455967255E-02 -0.24130661176E-01  0.10934351166E+00  0.51100000000E-03 0. -1.
         11    1    4    4    0    0  0.19085793297E-01 -0.91806347034E-02 -0.31244017366E-02  0.21414354217E-01  0.51100000000E-03 0.  1.
</event>
<event>
 8    1  0.1078274E+005  0.1043930E+01  0.7957747E-01            NaN
         13   -1    0    0    0    0  0.00000000000E+00  0.00000000000E+00  0.74505805969E-08  0.10566000000E+00  0.10566000000E+00 0.  1.
     999900   -1    0    0    0    0 -0.00000000000E+00 -0.00000000000E+00 -0.74505805969E-08  0.93827000000E+00  0.93827000000E+00 0.  1.
     999902    2    1    2    0    0  0.81179235931E-02 -0.23908706952E-02 -0.23199231693E-01  0.10192354399E+01  0.10189362398E+01 0.  0.
     999903    2    3    3    0    0  0.60277344312E-01 -0.67847481313E-01  0.88651945962E-01  0.12821587842E+00  0.18533887827E-01 0.  0.
         14    1    1    2    0    0 -0.81179235931E-02  0.23908706952E-02  0.23199231693E-01  0.24694560075E-01  0.00000000000E+00 0.  1.
     999901    1    3    3    0    0 -0.52159420719E-01  0.65456610618E-01 -0.11185117766E+00  0.89101956151E+00  0.88000000000E+00 0.  1.
        -11    1    4    4    0    0  0.18922534542E-01 -0.25884008190E-01  0.43209906480E-01  0.53808933575E-01  0.51100000000E-03 0. -1.
         11    1    4    4    0    0  0.41354809771E-01 -0.41963473123E-01  0.45442039482E-01  0.74406944844E-01  0.51100000000E-03 0.  1.
</event>
<event>
 8    1  0.1078274E+005  0.1043930E+01  0.7957747E-01            NaN
         13   -1    0    0    0    0  0.00000000000E+00  0.00000000000E+00  0.74505805969E-08  0.10566000000E+00  0.10566000000E+00 0. -1.
     999900   -1    0    0    0    0 -0.00000000000E+00 -0.00000000000E+00 -0.74505805969E-08  0.93827000000E+00  0.93827000000E+00 0.  1.
     999902    2    1    2    0    0 -0.33213188952E-02  0.20464363786E-01  0.11801051754E-01  0.10200744730E+01  0.10197954914E+01 0.  0.
     999903    2    3    3    0    0 -0.20177367704E-01  0.96132287283E-01 -0.84584632283E-01  0.13142383239E+00  0.21659198418E-01 0.  0.
         14    1    1    2    0    0  0.33213188952E-02 -0.20464363786E-01 -0.11801051754E-01  0.23855526966E-01  0.00000000000E+00 0. -1.
     999901    1    3    3    0    0  0.16856048808E-01 -0.75667923497E-01  0.96385684037E-01  0.88865064064E+00  0.88000000000E+00 0. -1.
        -11    1    4    4    0    0 -0.15305350735E-01  0.34346725861E-01 -0.23173906198E-01  0.44172869365E-01  0.51100000000E-03 0. -1.
         11    1    4    4    0    0 -0.48720169682E-02  0.61785561422E-01 -0.61410726085E-01  0.87250963025E-01  0.51100000000E-03 0.  1.
</event>
<event>
 8    1  0.1078274E+005  0.1043930E+01  0.7957747E-01            NaN
         13   -1    0    0    0    0  0.00000000000E+00  0.00000000000E+00  0.74505805969E-08  0.10566000000E+00  0.10566000000E+00 0.  1.
     999900   -1    0    0    0    0 -0.00000000000E+00 -0.00000000000E+00 -0.74505805969E-08  0.93827000000E+00  0.93827000000E+00 0.  1.
     999902    2    1    2    0    0  0.23220129453E-01 -0.82933538775E-03 -0.52745542791E-02  0.10201038981E+01  0.10198256124E+01 0.  0.
     999903    2    3    3    0    0  0.68258538625E-01  0.96763052672E-01 -0.54698823150E-01  0.13218752205E+00  0.21430428672E-01 0.  0.
         14    1    1    2    0    0 -0.23220129453E-01  0.82933538775E-03  0.52745542791E-02  0.23826101902E-01  0.00000000000E+00 0.  1.
     999901    1    3    3    0    0 -0.45038409173E-01 -0.97592388060E-01  0.49424268871E-01  0.88791637605E+00  0.88000000000E+00 0. -1.
        -11    1    4    4    0    0  0.46705798623E-01  0.51353670670E-01 -0.38471628014E-01  0.79365977594E-01  0.51100000000E-03 0.  1.
         11    1    4    4    0    0  0.21552740002E-01  0.45409382002E-01 -0.16227195136E-01  0.52821544453E-01  0.51100000000E-03 0. -1.
</event>
<event>
 8    1  0.1078274E+005  0.1043930E+01  0.7957747E-01            NaN
         13   -1    0    0    0    0  0.00000000000E+00  0.00000000000E+00  0.74505805969E-08  0.10566000000E+00  0.10566000000E+00 0. -1.
     999900   -1    0    0    0    0 -0.00000000000E+00 -0.00000000000E+00 -0.74505805969E-08  0.93827000000E+00  0.93827000000E+00 0. -1.
     999902    2    1    2    0    0  0.15373660812E-01  0.19244618798E-01  0.26063640049E-02  0.10191611096E+01  0.10188600833E+01 0.  0.
     999903    2    3    3    0    0 -0.34768760047E-01  0.32253428284E-01  0.11938387824E+00  0.12993645893E+00  0.19540283086E-01 0.  0.
         14    1    1    2    0    0 -0.15373660812E-01 -0.19244618798E-01 -0.26063640049E-02  0.24768890422E-01  0.00000000000E+00 0.  1.
     999901    1    3    3    0    0  0.50142420859E-01 -0.13008809486E-01 -0.11677751424E+00  0.88922465065E+00  0.88000000000E+00 0. -1.
        -11    1    4    4    0    0 -0.10162820904E-01  0.15766724354E-01  0.26707411821E-01  0.32640764279E-01  0.51100000000E-03 0. -1.
         11    1    4    4    0    0 -0.24605939143E-01  0.16486703930E-01  0.92676466421E-01  0.97295694647E-01  0.51100000000E-03 0.  1.
</event>
<event>
 8    1  0.1078274E+005  0.1043930E+01  0.7957747E-01            NaN
         13   -1    0    0    0    0  0.00000000000E+00  0.00000000000E+00  0.74505805969E-08  0.10566000000E+00  0.10566000000E+00 0.  1.
     999900   -1    0    0    0    0 -0.00000000000E+00 -0.00000000000E+00 -0.74505805969E-08  0.93827000000E+00  0.93827000000E+00 0. -1.
     999902    2    1    2    0    0 -0.17295494641E-01  0.16535217250E-01 -0.33781935153E-02  0.10197647411E+01  0.10194783801E+01 0.  0.
     999903    2    3    3    0    0 -0.85668519064E-01  0.76300368730E-01  0.63416108829E-01  0.13257354268E+00  0.19831790951E-01 0.  0.
         14    1    1    2    0    0  0.17295494641E-01 -0.16535217250E-01  0.33781935153E-02  0.24165258860E-01  0.00000000000E+00 0. -1.
     999901    1    3    3    0    0  0.68373024423E-01 -0.59765151481E-01 -0.66794302345E-01  0.88719119846E+00  0.88000000000E+00 0. -1.
        -11    1    4    4    0    0 -0.68951702374E-01  0.57042264040E-01  0.40280045860E-01  0.98137150777E-01  0.51100000000E-03 0.  1.
         11    1    4    4    0    0 -0.16716816690E-01  0.19258104690E-01  0.23136062969E-01  0.34436391902E-01  0.51100000000E-03 0. -1.
</event>
<event>
 8    1  0.1078274E+005  0.1043930E+01  0.7957747E-01            NaN
         13   -1    0    0    0    0  0.00000000000E+00  0.00000000000E+00  0.74505805969E-08  0.10566000000E+00  0.10566000000E+00 0.  1.
     999900   -1    0    0    0    0 -0.00000000000E+00 -0.00000000000E+00 -0.74505805969E-08  0.93827000000E+00  0.93827000000E+00 0.  1.
     999902    2    1    2    0    0  0.48629462375E-02 -0.63525848008E-02  0.22556921929E-01  0.10199963771E+01  0.10197155441E+01 0.  0.
     999903    2    3    3    0    0 -0.35269414473E-02  0.22574122131E-01  0.12953685766E+00  0.13300604384E+00  0.19717502340E-01 0.  0.
         14    1    1    2    0    0 -0.48629462375E-02  0.63525848008E-02 -0.22556921929E-01  0.23933622933E-01  0.00000000000E+00 0. -1.
     999901    1    3    3    0    0  0.83898876848E-02 -0.28926706932E-01 -0.10697993573E+00  0.88699033323E+00  0.88000000000E+00 0.  1.
        -11    1    4    4    0    0 -0.79891997117E-02  0.92329609959E-03  0.36075384078E-01  0.36964499795E-01  0.51100000000E-03 0.  1.
         11    1    4    4    0    0  0.44622582644E-02  0.21650826032E-01  0.93461473586E-01  0.96041544045E-01  0.51100000000E-03 0. -1.
</event>
<event>
 8    1  0.1078274E+005  0.1043930E+01  0.7957747E-01            NaN
         13   -1    0    0    0    0  0.00000000000E+00  0.00000000000E+00  0.74505805969E-08  0.10566000000E+00  0.10566000000E+00 0. -1.
     999900   -1    0    0    0    0 -0.00000000000E+00 -0.00000000000E+00 -0.74505805969E-08  0.93827000000E+00  0.93827000000E+00 0. -1.
     999902    2    1    2    0    0  0.61888153486E-02  0.58342914249E-02  0.21890787271E-01  0.10204449631E+01  0.10201746790E+01 0.  0.
     999903    2    3    3    0    0 -0.48174242931E-01  0.10364572516E+00 -0.58167981375E-01  0.12975319534E+00  0.19727737313E-01 0.  0.
         14    1    1    2    0    0 -0.61888153486E-02 -0.58342914249E-02 -0.21890787271E-01  0.23485036922E-01  0.00000000000E+00 0.  1.
     999901    1    3    3    0    0  0.54363058280E-01 -0.97811433731E-01  0.80058768646E-01  0.89069176774E+00  0.88000000000E+00 0.  1.
        -11    1    4    4    0    0 -0.39324663609E-02  0.23711183860E-01 -0.70046127616E-02  0.25040172776E-01  0.51100000000E-03 0. -1.
         11    1    4    4    0    0 -0.44241776571E-01  0.79934541296E-01 -0.51163368613E-01  0.10471302257E+00  0.51100000000E-03 0.  1.
</event>
<event>
 8    1  0.1078274E+005  0.1043930E+01  0.7957747E-01            NaN
         13   -1    0    0    0    0  0.00000000000E+00  0.00000000000E+00  0.74505805969E-08  0.10566000000E+00  0.10566000000E+00 0.  1.
     999900   -1    0    0    0    0 -0.00000000000E+00 -0.00000000000E+00 -0.74505805969E-08  0.93827000000E+00  0.93827000000E+00 0. -1.
     999902    2    1    2    0    0  0.97579558898E-02 -0.21435862653E-01 -0.22343583684E-02  0.10202718879E+01  0.10199975583E+01 0.  0.
     999903    2    3    3    0    0  0.12125764752E+00 -0.36552391076E-01  0.33850494165E-01  0.13237391671E+00  0.18371268175E-01 0.  0.
         14    1    1    2    0    0 -0.97579558898E-02  0.21435862653E-01  0.22343583684E-02  0.23658112100E-01  0.00000000000E+00 0. -1.
     999901    1    3    3    0    0 -0.11149969163E+00  0.15116528423E-01 -0.36084852534E-01  0.88789797119E+00  0.88000000000E+00 0. -1.
        -11    1    4    4    0    0  0.60701732924E-01 -0.21498158796E-01  0.82463484277E-02  0.64924067918E-01  0.51100000000E-03 0. -1.
         11    1    4    4    0    0  0.60555914594E-01 -0.15054232280E-01  0.25604145737E-01  0.67449848790E-01  0.51100000000E-03 0.  1.
</event>
<event>
 8    1  0.1078274E+005  0.1043930E+01  0.7957747E-01            NaN
         13   -1    0    0    0    0  0.00000000000E+00  0.00000000000E+00  0.74505805969E-08  0.10566000000E+00  0.10566000000E+00 0.  1.
     999900   -1    0    0    0    0 -0.00000000000E+00 -0.00000000000E+00 -0.74505805969E-08  0.93827000000E+00  0.93827000000E+00 0. -1.
     999902    2    1    2    0    0 -0.12939555082E-01 -0.10877947064E-01 -0.16809327288E-01  0.10200906355E+01  0.10198120362E+01 0.  0.
     999903    2    3    3    0    0 -0.44544481283E-01 -0.28927645058E-01 -0.12064306434E+00  0.13323883955E+00  0.19411850206E-01 0.  0.
         14    1    1    2    0    0  0.12939555082E-01  0.10877947064E-01  0.16809327288E-01  0.23839364545E-01  0.00000000000E+00 0.  1.
     999901    1    3    3    0    0  0.31604926202E-01  0.18049697994E-01  0.10383373705E+00  0.88685179591E+00  0.88000000000E+00 0.  1.
        -11    1    4    4    0    0 -0.26555431288E-02  0.19858880876E-02 -0.16138450397E-01  0.16483517920E-01  0.51100000000E-03 0.  1.
         11    1    4    4    0    0 -0.41888938155E-01 -0.30913533146E-01 -0.10450461394E+00  0.11675532162E+00  0.51100000000E-03 0. -1.
</event>
<event>
 8    1  0.1078274E+005  0.1043930E+01  0.7957747E-01            NaN
         13   -1    0    0    0    0  0.00000000000E+00  0.00000000000E+00  0.74505805969E-08  0.10566000000E+00  0.10566000000E+00 0. -1.
     999900   -1    0    0    0    0 -0.00000000000E+00 -0.00000000000E+00 -0.74505805969E-08  0.93827000000E+00  0.93827000000E+00 0. -1.
     999902    2    1    2    0    0 -0.22551439114E-01  0.15799240277E-02  0.66874284583E-02  0.10203549016E+01  0.10200825162E+01 0.  0.
     999903    2    3    3    0    0  0.29358416189E-02 -0.60028772768E-01  0.11472461840E+00  0.13124452181E+00  0.21244145357E-01 0.  0.
         14    1    1    2    0    0  0.22551439114E-01 -0.15799240277E-02 -0.66874284583E-02  0.23575098418E-01  0.00000000000E+00 0.  1.
     999901    1    3    3    0    0 -0.25487280733E-01  0.61608696795E-01 -0.10803718995E+00  0.88911037977E+00  0.88000000000E+00 0. -1.
        -11    1    4    4    0    0  0.34113540213E-03 -0.48021656335E-01  0.70216592368E-01  0.85069541054E-01  0.51100000000E-03 0. -1.
         11    1    4    4    0    0  0.25947062168E-02 -0.12007116433E-01  0.44508026037E-01  0.46174980759E-01  0.51100000000E-03 0.  1.
</event>
<event>
 8    1  0.1078274E+005  0.1043930E+01  0.7957747E-01            NaN
         13   -1    0    0    0    0  0.00000000000E+00  0.00000000000E+00  0.74505805969E-08  0.10566000000E+00  0.10566000000E+00 0.  1.
     999900   -1    0    0    0    0 -0.00000000000E+00 -0.00000000000E+00 -0.74505805969E-08  0.93827000000E+00  0.93827000000E+00 0.  1.
     999902    2    1    2    0    0  0.17845888844E-01  0.12161173144E-01  0.11887312360E-01  0.10192788727E+01  0.10189807370E+01 0.  0.
     999903    2    3    3    0    0 -0.46045526555E-01  0.39361448745E-01 -0.11098362393E+00  0.12803298357E+00  0.20138667730E-01 0.  0.
         14    1    1    2    0    0 -0.17845888844E-01 -0.12161173144E-01 -0.11887312360E-01  0.24651127277E-01  0.00000000000E+00 0. -1.
     999901    1    3    3    0    0  0.63891415399E-01 -0.27200275600E-01  0.12287093629E+00  0.89124588916E+00  0.88000000000E+00 0. -1.
        -11    1    4    4    0    0 -0.17927867322E-01  0.40317252057E-02 -0.37933383057E-01  0.42152887279E-01  0.51100000000E-03 0. -1.
         11    1    4    4    0    0 -0.28117659233E-01  0.35329723539E-01 -0.73050240871E-01  0.85880096288E-01  0.51100000000E-03 0.  1.
</event>
<event>
 8    1  0.1078274E+005  0.1043930E+01  0.7957747E-01            NaN
         13   -1    0    0    0    0  0.00000000000E+00  0.00000000000E+00  0.74505805969E-08  0.10566000000E+00  0.10566000000E+00 0. -1.
     999900   -1    0    0    0    0 -0.00000000000E+00 -0.00000000000E+00 -0.74505805969E-08  0.93827000000E+00  0.93827000000E+00 0.  1.
     999902    2    1    2    0    0  0.92566722317E-02  0.76089020510E-02  0.19581917621E-01  0.10209728035E+01  0.10207146676E+01 0.  0.
     999903    2    3    3    0    0  0.65492260642E-01  0.78696833304E-01 -0.78854167915E-01  0.13085730637E+00  0.20572483027E-01 0.  0.
         14    1    1    2    0    0 -0.92566722317E-02 -0.76089020510E-02 -0.19581917621E-01  0.22957196452E-01  0.00000000000E+00 0. -1.
     999901    1    3    3    0    0 -0.56235588410E-01 -0.71087931253E-01  0.98436085536E-01  0.89011549717E+00  0.88000000000E+00 0. -1.
        -11    1    4    4    0    0  0.39806454256E-01  0.54399320720E-01 -0.62391459739E-01  0.91852029181E-01  0.51100000000E-03 0. -1.
         11    1    4    4    0    0  0.25685806386E-01  0.24297512584E-01 -0.16462708176E-01  0.39005277194E-01  0.51100000000E-03 0.  1.
</event>
<event>
 8    1  0.1078274E+005  0.1043930E+01  0.7957747E-01            NaN
         13   -1    0    0    0    0  0.00000000000E+00  0.00000000000E+00  0.74505805969E-08  0.10566000000E+00  0.10566000000E+00 0. -1.
     999900   -1    0    0    0    0 -0.00000000000E+00 -0.00000000000E+00 -0.74505805969E-08  0.93827000000E+00  0.93827000000E+00 0. -1.
     999902    2    1    2    0    0  0.11624785150E-01 -0.19897697120E-01  0.50210425308E-02  0.10203447324E+01  0.10200721092E+01 0.  0.
     999903    2    3    3    0    0 -0.74822254288E-01  0.87334234500E-01 -0.52112330164E-01  0.12780005560E+00  0.19786889663E-01 0.  0.
         14    1    1    2    0    0 -0.11624785150E-01  0.19897697120E-01 -0.50210425308E-02  0.23585267617E-01  0.00000000000E+00 0.  1.
     999901    1    3    3    0    0  0.86447039439E-01 -0.10723193162E+00  0.57133372695E-01  0.89254467679E+00  0.88000000000E+00 0.  1.
        -11    1    4    4    0    0 -0.48575440351E-01  0.42382163371E-01 -0.32239060772E-01  0.72079396070E-01  0.51100000000E-03 0. -1.
         11    1    4    4    0    0 -0.26246813937E-01  0.44952071129E-01 -0.19873269392E-01  0.55720659525E-01  0.51100000000E-03 0.  1.
</event>
<event>
 8    1  0.1078274E+005  0.1043930E+01  0.7957747E-01            NaN
         13   -1    0    0    0    0  0.00000000000E+00  0.00000000000E+00  0.74505805969E-08  0.10566000000E+00  0.10566000000E+00 0. -1.
     999900   -1    0    0    0    0 -0.00000000000E+00 -0.00000000000E+00 -0.74505805969E-08  0.93827000000E+00  0.93827000000E+00 0. -1.
     999902    2    1    2    0    0 -0.15801462476E-01 -0.11171755218E-01 -0.12506218534E-01  0.10208887363E+01  0.10206286847E+01 0.  0.
     999903    2    3    3    0    0 -0.18888650323E-01  0.34080816958E-01 -0.12509826963E+00  0.13255642461E+00  0.20083461999E-01 0.  0.
         14    1    1    2    0    0  0.15801462476E-01  0.11171755218E-01  0.12506218534E-01  0.23041263704E-01  0.00000000000E+00 0. -1.
     999901    1    3    3    0    0  0.30871878470E-02 -0.45252572176E-01  0.11259205109E+00  0.88833231169E+00  0.88000000000E+00 0.  1.
        -11    1    4    4    0    0 -0.14585640126E-02  0.22387193949E-01 -0.73525302029E-01  0.76873565166E-01  0.51100000000E-03 0. -1.
         11    1    4    4    0    0 -0.17430086310E-01  0.11693623008E-01 -0.51572967599E-01  0.55682859443E-01  0.51100000000E-03 0.  1.
</event>
<event>
 8    1  0.1078274E+005  0.1043930E+01  0.7957747E-01            NaN
         13   -1    0    0    0    0  0.00000000000E+00  0.00000000000E+00  0.74505805969E-08  0.10566000000E+00  0.10566000000E+00 0.  1.
     999900   -1    0    0    0    0 -0.00000000000E+00 -0.00000000000E+00 -0.74505805969E-08  0.93827000000E+00  0.93827000000E+00 0. -1.
     999902    2    1    2    0    0  0.22010622793E-01 -0.92009223101E-02 -0.19947586176E-01  0.10128328831E+01  0.10123553814E+01 0.  0.
     999903    2    3    3    0    0 -0.36473375110E-01  0.57094320225E-01 -0.10212102448E+00  0.12459422643E+00  0.22471073050E-01 0.  0.
         14    1    1    2    0    0 -0.22010622793E-01  0.92009223101E-02  0.19947586176E-01  0.31097116930E-01  0.00000000000E+00 0.  1.
     999901    1    3    3    0    0  0.58483997903E-01 -0.66295242535E-01  0.82173438303E-01  0.88823865664E+00  0.88000000000E+00 0.  1.
        -11    1    4    4    0    0 -0.26406735953E-01  0.20644784684E-01 -0.45935865078E-01  0.56867281100E-01  0.51100000000E-03 0.  1.
         11    1    4    4    0    0 -0.10066639157E-01  0.36449535541E-01 -0.56185159402E-01  0.67726945326E-01  0.51100000000E-03 0. -1.
</event>
<event>
 8    1  0.1078274E+005  0.1043930E+01  0.7957747E-01            NaN
         13   -1    0    0    0    0  0.00000000000E+00  0.00000000000E+00  0.74505805969E-08  0.10566000000E+00  0.10566000000E+00 0. -1.
     999900   -1    0    0    0    0 -0.00000000000E+00 -0.00000000000E+00 -0.74505805969E-08  0.93827000000E+00  0.93827000000E+00 0.  1.
     999902    2    1    2    0    0 -0.57526692209E-02 -0.15824588136E-01  0.16518316104E-01  0.10203425974E+01  0.10200699244E+01 0.  0.
     999903    2    3    3    0    0 -0.79143435768E-01 -0.71747590783E-01 -0.72960089391E-01  0.13100578166E+00  0.20686710148E-01 0.  0.
         14    1    1    2    0    0  0.57526692209E-02  0.15824588136E-01 -0.16518316104E-01  0.23587402564E-01  0.00000000000E+00 0.  1.
     999901    1    3    3    0    0  0.73390766547E-01  0.55923002647E-01  0.89478405495E-01  0.88933681577E+00  0.88000000000E+00 0. -1.
        -11    1    4    4    0    0 -0.48960271475E-01 -0.30563097460E-01 -0.40158116452E-01  0.70314625414E-01  0.51100000000E-03 0.  1.
         11    1    4    4    0    0 -0.30183164293E-01 -0.41184493323E-01 -0.32801972940E-01  0.60691156249E-01  0.51100000000E-03 0. -1.
</event>
<event>
 8    1  0.1078274E+005  0.1043930E+01  0.7957747E-01            NaN
         13   -1    0    0    0    0  0.00000000000E+00  0.00000000000E+00  0.74505805969E-08  0.10566000000E+00  0.10566000000E+00 0. -1.
     999900   -1    0    0    0    0 -0.00000000000E+00 -0.00000000000E+00 -0.74505805969E-08  0.93827000000E+00  0.93827000000E+00 0. -1.
     999902    2    1    2    0    0  0.57767197730E-02 -0.13933441641E-01 -0.15508908683E-01  0.10222958248E+01  0.10220668843E+01 0.  0.
     999903    2    3    3    0    0 -0.87304720595E-01 -0.66574500031E-01 -0.74022739822E-01  0.13389326741E+00  0.19843456225E-01 0.  0.
         14    1    1    2    0    0 -0.57767197730E-02  0.13933441641E-01  0.15508908683E-01  0.21634175183E-01  0.00000000000E+00 0. -1.
     999901    1    3    3    0    0  0.93081440368E-01  0.52641058390E-01  0.58513831139E-01  0.88840255741E+00  0.88000000000E+00 0.  1.
        -11    1    4    4    0    0 -0.18699367017E-01 -0.24364459839E-01 -0.16125015921E-01  0.34692513451E-01  0.51100000000E-03 0. -1.
         11    1    4    4    0    0 -0.68605353577E-01 -0.42210040192E-01 -0.57897723901E-01  0.99200753961E-01  0.51100000000E-03 0.  1.
</event>
<event>
 8    1  0.1078274E+005  0.1043930E+01  0.7957747E-01            NaN
         13   -1    0    0    0    0  0.00000000000E+00  0.00000000000E+00  0.74505805969E-08  0.10566000000E+00  0.10566000000E+00 0. -1.
     999900   -1    0    0    0    0 -0.00000000000E+00 -0.00000000000E+00 -0.74505805969E-08  0.93827000000E+00  0.93827000000E+00 0.  1.
     999902    2    1    2    0    0  0.17353173699E-01 -0.14918509588E-01  0.83956957416E-02  0.10195541457E+01  0.10192627109E+01 0.  0.
     999903    2    3    3    0    0  0.10682421321E+00 -0.57682760561E-01 -0.48046827607E-01  0.13218747599E+00  0.20647464068E-01 0.  0.
         14    1    1    2    0    0 -0.17353173699E-01  0.14918509588E-01 -0.83956957416E-02  0.24375854298E-01  0.00000000000E+00 0.  1.
     999901    1    3    3    0    0 -0.89471039508E-01  0.42764250973E-01  0.56442523349E-01  0.88736666971E+00  0.88000000000E+00 0. -1.
        -11    1    4    4    0    0  0.44372464054E-01 -0.33993611859E-01 -0.16274204591E-01  0.58220203276E-01  0.51100000000E-03 0. -1.
         11    1    4    4    0    0  0.62451749153E-01 -0.23689148702E-01 -0.31772623016E-01  0.73967272715E-01  0.51100000000E-03 0.  1.
</event>
<event>
 8    1  0.1078274E+005  0.1043930E+01  0.7957747E-01            NaN
         13   -1    0    0    0    0  0.00000000000E+00  0.00000000000E+00  0.74505805969E-08  0.10566000000E+00  0.10566000000E+00 0.  1.
     999900   -1    0    0    0    0 -0.00000000000E+00 -0.00000000000E+00 -0.74505805969E-08  0.93827000000E+00  0.93827000000E+00 0. -1.
     999902    2    1    2    0    0 -0.39700829312E-02  0.12720085733E-01 -0.17657972792E-01  0.10218083784E+01  0.10215688895E+01 0.  0.
     999903    2    3    3    0    0 -0.10342003698E+00 -0.19757968613E-01 -0.79534247908E-01  0.13345383723E+00  0.19953664076E-01 0.  0.
         14    1    1    2    0    0  0.39700829312E-02 -0.12720085733E-01  0.17657972792E-01  0.22121621610E-01  0.00000000000E+00 0. -1.
     999901    1    3    3    0    0  0.99449954045E-01  0.32478054346E-01  0.61876275116E-01  0.88835454116E+00  0.88000000000E+00 0.  1.
        -11    1    4    4    0    0 -0.71382395291E-01 -0.17680143916E-01 -0.65233536984E-01  0.98304167332E-01  0.51100000000E-03 0.  1.
         11    1    4    4    0    0 -0.32037641685E-01 -0.20778246968E-02 -0.14300710924E-01  0.35149669901E-01  0.51100000000E-03 0. -1.
</event>
<event>
 8    1  0.1078274E+005  0.1043930E+01  0.7957747E-01            NaN
         13   -1    0    0    0    0  0.00000000000E+00  0.00000000000E+00  0.74505805969E-08  0.10566000000E+00  0.10566000000E+00 0. -1.
     999900   -1    0    0    0    0 -0.00000000000E+00 -0.00000000000E+00 -0.74505805969E-08  0.93827000000E+00  0.93827000000E+00 0. -1.
     999902    2    1    2    0    0 -0.17835596464E-01 -0.15517905854E-01 -0.12227466192E-01  0.10173137487E+01  0.10169655051E+01 0.  0.
     999903    2    3    3    0    0 -0.63254826113E-02 -0.86070189449E-01 -0.95656453751E-01  0.13048202656E+00  0.20671547335E-01 0.  0.
         14    1    1    2    0    0  0.17835596464E-01  0.15517905854E-01  0.12227466192E-01  0.26616251292E-01  0.00000000000E+00 0.  1.
     999901    1    3    3    0    0 -0.11510113853E-01  0.70552283594E-01  0.83428987559E-01  0.88683172215E+00  0.88000000000E+00 0.  1.
        -11    1    4    4    0    0 -0.12760850868E-01 -0.73523519066E-01 -0.79761561554E-01  0.10922781236E+00  0.51100000000E-03 0.  1.
         11    1    4    4    0    0  0.64353682562E-02 -0.12546670383E-01 -0.15894892197E-01  0.21254214199E-01  0.51100000000E-03 0. -1.
</event>
<event>
 8    1  0.1078274E+005  0.1043930E+01  0.7957747E-01            NaN
         13   -1    0    0    0    0  0.00000000000E+00  0.00000000000E+00  0.74505805969E-08  0.10566000000E+00  0.10566000000E+00 0.  1.
     999900   -1    0    0    0    0 -0.00000000000E+00 -0.00000000000E+00 -0.74505805969E-08  0.93827000000E+00  0.93827000000E+00 0. -1.
     999902    2    1    2    0    0  0.65856141955E-02  0.18034154800E-01  0.13672489088E-01  0.10203601461E+01  0.10200878834E+01 0.  0.
     999903    2    3    3    0    0 -0.25069112462E-01 -0.92136124106E-01  0.85848921047E-01  0.12999564245E+00  0.20280632313E-01 0.  0.
         14    1    1    2    0    0 -0.65856141955E-02 -0.18034154800E-01 -0.13672489088E-01  0.23569853872E-01  0.00000000000E+00 0. -1.
     999901    1    3    3    0    0  0.31654726657E-01  0.11017027891E+00 -0.72176431959E-01  0.89036450367E+00  0.88000000000E+00 0. -1.
        -11    1    4    4    0    0  0.34595417155E-02 -0.11757431620E-01  0.12296264464E-01  0.17368502179E-01  0.51100000000E-03 0. -1.
         11    1    4    4    0    0 -0.28528654177E-01 -0.80378692487E-01  0.73552656583E-01  0.11262714027E+00  0.51100000000E-03 0.  1.
</event>
<event>
 8    1  0.1078274E+005  0.1043930E+01  0.7957747E-01            NaN
         13   -1    0    0    0    0  0.00000000000E+00  0.00000000000E+00  0.74505805969E-08  0.10566000000E+00  0.10566000000E+00 0. -1.
     999900   -1    0    0    0    0 -0.00000000000E+00 -0.00000000000E+00 -0.74505805969E-08  0.93827000000E+00  0.93827000000E+00 0. -1.
     999902    2    1    2    0    0  0.12080849556E-01 -0.20370045233E-02 -0.19829451896E-01  0.10206211288E+01  0.10203549309E+01 0.  0.
     999903    2    3    3    0    0  0.42142327311E-01 -0.30353515981E-01  0.11624245376E+00  0.12920591648E+00  0.22012476333E-01 0.  0.
         14    1    1    2    0    0 -0.12080849556E-01  0.20370045233E-02  0.19829451896E-01  0.23308871185E-01  0.00000000000E+00 0. -1.
     999901    1    3    3    0    0 -0.30061477755E-01  0.28316511458E-01 -0.13607190566E+00  0.89141521233E+00  0.88000000000E+00 0. -1.
        -11    1    4    4    0    0  0.34653811607E-01 -0.24477226246E-01  0.68925516406E-01  0.80938304877E-01  0.51100000000E-03 0.  1.
         11    1    4    4    0    0  0.74885157046E-02 -0.58762897352E-02  0.47316937356E-01  0.48267611607E-01  0.51100000000E-03 0. -1.
</event>
<event>
 8    1  0.1078274E+005  0.1043930E+01  0.7957747E-01            NaN
         13   -1    0    0    0    0  0.00000000000E+00  0.00000000000E+00  0.74505805969E-08  0.10566000000E+00  0.10566000000E+00 0. -1.
     999900   -1    0    0    0    0 -0.00000000000E+00 -0.00000000000E+00 -0.74505805969E-08  0.93827000000E+00  0.93827000000E+00 0.  1.
     999902    2    1    2    0    0 -0.23350977891E-01  0.27354219318E-02 -0.19579024749E-02  0.10203379657E+01  0.10200651842E+01 0.  0.
     999903    2    3    3    0    0  0.12336734287E+00  0.16550296118E-01 -0.24203346039E-01  0.12780674708E+00  0.15979644896E-01 0.  0.
         14    1    1    2    0    0  0.23350977891E-01 -0.27354219318E-02  0.19579024749E-02  0.23592034327E-01  0.00000000000E+00 0. -1.
     999901    1    3    3    0    0 -0.14671832077E+00 -0.13814874186E-01  0.22245443564E-01  0.89253121859E+00  0.88000000000E+00 0. -1.
        -11    1    4    4    0    0  0.76760026379E-01  0.62691614958E-02 -0.21675429480E-01  0.80009308207E-01  0.51100000000E-03 0.  1.
         11    1    4    4    0    0  0.46607316496E-01  0.10281134622E-01 -0.25279165591E-02  0.47797438877E-01  0.51100000000E-03 0. -1.
</event>
<event>
 8    1  0.1078274E+005  0.1043930E+01  0.7957747E-01            NaN
         13   -1    0    0    0    0  0.00000000000E+00  0.00000000000E+00  0.74505805969E-08  0.10566000000E+00  0.10566000000E+00 0.  1.
     999900   -1    0    0    0    0 -0.00000000000E+00 -0.00000000000E+00 -0.74505805969E-08  0.93827000000E+00  0.93827000000E+00 0.  1.
     999902    2    1    2    0    0 -0.11337866514E-01 -0.19634194653E-01  0.62303780703E-02  0.10204168882E+01  0.10201459500E+01 0.  0.
     999903    2    3    3    0    0  0.65097927721E-01 -0.53860808742E-01  0.98914902184E-01  0.13159502033E+00  0.19858614996E-01 0.  0.
         14    1    1    2    0    0  0.11337866514E-01  0.19634194653E-01 -0.62303780703E-02  0.23513111824E-01  0.00000000000E+00 0.  1.
     999901    1    3    3    0    0 -0.76435794235E-01  0.34226614090E-01 -0.92684524113E-01  0.88882186785E+00  0.88000000000E+00 0.  1.
        -11    1    4    4    0    0  0.42979459047E-01 -0.27126078674E-01  0.47513910064E-01  0.69576510511E-01  0.51100000000E-03 0. -1.
         11    1    4    4    0    0  0.22118468674E-01 -0.26734730068E-01  0.51400992120E-01  0.62018509819E-01  0.51100000000E-03 0.  1.
</event>
<event>
 8    1  0.1078274E+005  0.1043930E+01  0.7957747E-01            NaN
         13   -1    0    0    0    0  0.00000000000E+00  0.00000000000E+00  0.74505805969E-08  0.10566000000E+00  0.10566000000E+00 0. -1.
     999900   -1    0    0    0    0 -0.00000000000E+00 -0.00000000000E+00 -0.74505805969E-08  0.93827000000E+00  0.93827000000E+00 0. -1.
     999902    2    1    2    0    0 -0.12176818117E-01 -0.16681955511E-01  0.97736259080E-02  0.10210807921E+01  0.10208251063E+01 0.  0.
     999903    2    3    3    0    0  0.69217001128E-01 -0.28031955841E-01 -0.10438591413E+00  0.12990955326E+00  0.20082060800E-01 0.  0.
         14    1    1    2    0    0  0.12176818117E-01  0.16681955511E-01 -0.97736259080E-02  0.22849207919E-01  0.00000000000E+00 0.  1.
     999901    1    3    3    0    0 -0.81393819245E-01  0.11350000330E-01  0.11415954004E+00  0.89117123882E+00  0.88000000000E+00 0.  1.
        -11    1    4    4    0    0  0.79709273481E-02 -0.69499131030E-02 -0.26940194615E-01  0.28946021865E-01  0.51100000000E-03 0. -1.
         11    1    4    4    0    0  0.61246073780E-01 -0.21082042738E-01 -0.77445719516E-01  0.10096353140E+00  0.51100000000E-03 0.  1.
</event>
<event>
 8    1  0.1078274E+005  0.1043930E+01  0.7957747E-01            NaN
         13   -1    0    0    0    0  0.00000000000E+00  0.00000000000E+00  0.74505805969E-08  0.10566000000E+00  0.10566000000E+00 0. -1.
     999900   -1    0    0    0    0 -0.00000000000E+00 -0.00000000000E+00 -0.74505805969E-08  0.93827000000E+00  0.93827000000E+00 0. -1.
     999902    2    1    2    0    0  0.15021097032E-01 -0.13746457395E-01  0.11112914242E-01  0.10207331185E+01  0.10204695017E+01 0.  0.
     999903    2    3    3    0    0 -0.55549121073E-03  0.96012139267E-01 -0.83706036059E-01  0.12872403058E+00  0.18561684191E-01 0.  0.
         14    1    1    2    0    0 -0.15021097032E-01  0.13746457395E-01 -0.11112914242E-01  0.23196881470E-01  0.00000000000E+00 0.  1.
     999901    1    3    3    0    0  0.15576588243E-01 -0.10975859666E+00  0.94818950301E-01  0.89200908795E+00  0.88000000000E+00 0. -1.
        -11    1    4    4    0    0  0.64631269663E-02  0.35662781279E-01 -0.23563568279E-01  0.43233191529E-01  0.51100000000E-03 0. -1.
         11    1    4    4    0    0 -0.70186181770E-02  0.60349357987E-01 -0.60142467780E-01  0.85490839055E-01  0.51100000000E-03 0.  1.
</event>
<event>
 8    1  0.1078274E+005  0.1043930E+01  0.7957747E-01            NaN
         13   -1    0    0    0    0  0.00000000000E+00  0.00000000000E+00  0.74505805969E-08  0.10566000000E+00  0.10566000000E+00 0. -1.
     999900   -1    0    0    0    0 -0.00000000000E+00 -0.00000000000E+00 -0.74505805969E-08  0.93827000000E+00  0.93827000000E+00 0. -1.
     999902    2    1    2    0    0 -0.16377445913E-01  0.71232021484E-02  0.11800348133E-01  0.10225241840E+01  0.10223001017E+01 0.  0.
     999903    2    3    3    0    0  0.63733890636E-01  0.11111814750E+00 -0.25544977544E-01  0.13200329806E+00  0.19054482481E-01 0.  0.
         14    1    1    2    0    0  0.16377445913E-01 -0.71232021484E-02 -0.11800348133E-01  0.21405816021E-01  0.00000000000E+00 0.  1.
     999901    1    3    3    0    0 -0.80111336549E-01 -0.10399494535E+00  0.37345325677E-01  0.89052088592E+00  0.88000000000E+00 0.  1.
        -11    1    4    4    0    0  0.58461361101E-02  0.25253507654E-01 -0.61540588558E-02  0.26646773119E-01  0.51100000000E-03 0.  1.
         11    1    4    4    0    0  0.57887754526E-01  0.85864639845E-01 -0.19390918689E-01  0.10535652494E+00  0.51100000000E-03 0. -1.
</event>
<event>
 8    1  0.1078274E+005  0.1043930E+01  0.7957747E-01            NaN
         13   -1    0    0    0    0  0.00000000000E+00  0.00000000000E+00  0.74505805969E-08  0.10566000000E+00  0.10566000000E+00 0. -1.
     999900   -1    0    0    0    0 -0.00000000000E+00 -0.00000000000E+00 -0.74505805969E-08  0.93827000000E+00  0.93827000000E+00 0. -1.
     999902    2    1    2    0    0 -0.20286216008E-01  0.32620108429E-02  0.87950938531E-02  0.10215799452E+01  0.10213354294E+01 0.  0.
     999903    2    3    3    0    0 -0.13252432412E+00  0.13984465477E-02 -0.72763172139E-02  0.13430368829E+00  0.20491065339E-01 0.  0.
         14    1    1    2    0    0  0.20286216008E-01 -0.32620108429E-02 -0.87950938531E-02  0.22350054822E-01  0.00000000000E+00 0.  1.
     999901    1    3    3    0    0  0.11223810811E+00  0.18635642952E-02  0.16071411067E-01  0.88727625689E+00  0.88000000000E+00 0. -1.
        -11    1    4    4    0    0 -0.10655038486E+00  0.93463265723E-03  0.23853483234E-02  0.10658240502E+00  0.51100000000E-03 0.  1.
         11    1    4    4    0    0 -0.25973939265E-01  0.46381389047E-03 -0.96616655373E-02  0.27721283271E-01  0.51100000000E-03 0. -1.
</event>
<event>
 8    1  0.1078274E+005  0.1043930E+01  0.7957747E-01            NaN
         13   -1    0    0    0    0  0.00000000000E+00  0.00000000000E+00  0.74505805969E-08  0.10566000000E+00  0.10566000000E+00 0.  1.
     999900   -1    0    0    0    0 -0.00000000000E+00 -0.00000000000E+00 -0.74505805969E-08  0.93827000000E+00  0.93827000000E+00 0. -1.
     999902    2    1    2    0    0  0.32557367269E-02 -0.19156723344E-01  0.12582383224E-01  0.10207805672E+01  0.10205180401E+01 0.  0.
     999903    2    3    3    0    0 -0.31205731820E-01 -0.64628956177E-01  0.11082966421E+00  0.13347687343E+00  0.19548953836E-01 0.  0.
         14    1    1    2    0    0 -0.32557367269E-02  0.19156723344E-01 -0.12582383224E-01  0.23149432790E-01  0.00000000000E+00 0. -1.
     999901    1    3    3    0    0  0.34461468547E-01  0.45472232833E-01 -0.98247280989E-01  0.88730369378E+00  0.88000000000E+00 0. -1.
        -11    1    4    4    0    0 -0.17976481375E-01 -0.20447661731E-01  0.52241147844E-01  0.58912302637E-01  0.51100000000E-03 0.  1.
         11    1    4    4    0    0 -0.13229250445E-01 -0.44181294446E-01  0.58588516369E-01  0.74564570793E-01  0.51100000000E-03 0. -1.
</event>
<event>
 8    1  0.1078274E+005  0.1043930E+01  0.7957747E-01            NaN
         13   -1    0    0    0    0  0.00000000000E+00  0.00000000000E+00  0.74505805969E-08  0.10566000000E+00  0.10566000000E+00 0.  1.
     999900   -1    0    0    0    0 -0.00000000000E+00 -0.00000000000E+00 -0.74505805969E-08  0.93827000000E+00  0.93827000000E+00 0.  1.
     999902    2    1    2    0    0  0.59065790563E-02  0.20962703274E-01 -0.10089187921E-01  0.10199276185E+01  0.10196451504E+01 0.  0.
     999903    2    3    3    0    0 -0.13158554518E-01  0.66970274317E-01  0.10941214149E+00  0.13045544713E+00  0.19734279357E-01 0.  0.
         14    1    1    2    0    0 -0.59065790563E-02 -0.20962703274E-01  0.10089187921E-01  0.24002381498E-01  0.00000000000E+00 0.  1.
     999901    1    3    3    0    0  0.19065133574E-01 -0.46007571044E-01 -0.11950132941E+00  0.88947217137E+00  0.88000000000E+00 0.  1.
        -11    1    4    4    0    0 -0.17526284206E-01  0.56068468988E-01  0.84563003980E-01  0.10296604594E+00  0.51100000000E-03 0. -1.
         11    1    4    4    0    0  0.43677296876E-02  0.10901805329E-01  0.24849137510E-01  0.27489401194E-01  0.51100000000E-03 0.  1.
</event>
<event>
 8    1  0.1078274E+005  0.1043930E+01  0.7957747E-01            NaN
         13   -1    0    0    0    0  0.00000000000E+00  0.00000000000E+00  0.74505805969E-08  0.10566000000E+00  0.10566000000E+00 0. -1.
     999900   -1    0    0    0    0 -0.00000000000E+00 -0.00000000000E+00 -0.74505805969E-08  0.93827000000E+00  0.93827000000E+00 0. -1.
     999902    2    1    2    0    0  0.70824053565E-02  0.17741527411E-01 -0.19061004058E-01  0.10169440011E+01  0.10165858829E+01 0.  0.
     999903    2    3    3    0    0  0.89749109959E-01  0.45477774076E-01  0.75792509829E-01  0.12756204012E+00  0.20110665352E-01 0.  0.
         14    1    1    2    0    0 -0.70824053565E-02 -0.17741527411E-01  0.19061004058E-01  0.26985998892E-01  0.00000000000E+00 0. -1.
     999901    1    3    3    0    0 -0.82666704603E-01 -0.27736246665E-01 -0.94853513887E-01  0.88938196099E+00  0.88000000000E+00 0. -1.
        -11    1    4    4    0    0  0.81215248290E-01  0.36184023390E-01  0.59654430173E-01  0.10707059477E+00  0.51100000000E-03 0. -1.
         11    1    4    4    0    0  0.85338616687E-02  0.92937506854E-02  0.16138079656E-01  0.20491445356E-01  0.51100000000E-03 0.  1.
</event>
<event>
 8    1  0.1078274E+005  0.1043930E+01  0.7957747E-01            NaN
         13   -1    0    0    0    0  0.00000000000E+00  0.00000000000E+00  0.74505805969E-08  0.10566000000E+00  0.10566000000E+00 0.  1.
     999900   -1    0    0    0    0 -0.00000000000E+00 -0.00000000000E+00 -0.74505805969E-08  0.93827000000E+00  0.93827000000E+00 0. -1.
     999902    2    1    2    0    0  0.81199664430E-03 -0.17816078079E-01 -0.15515920523E-01  0.10202907156E+01  0.10200168276E+01 0.  0.
     999903    2    3    3    0    0  0.22665285498E-01 -0.12870142666E+00  0.13367119885E-01  0.13259293101E+00  0.18012025716E-01 0.  0.
         14    1    1    2    0    0 -0.81199664430E-03  0.17816078079E-01  0.15515920523E-01  0.23639284387E-01  0.00000000000E+00 0.  1.
     999901    1    3    3    0    0 -0.21853288854E-01  0.11088534858E+00 -0.28883040409E-01  0.88769778460E+00  0.88000000000E+00 0.  1.
        -11    1    4    4    0    0  0.25608550230E-02 -0.47999554366E-01 -0.15514442902E-02  0.48095564225E-01  0.51100000000E-03 0.  1.
         11    1    4    4    0    0  0.20104430475E-01 -0.80701872290E-01  0.14918564176E-01  0.84497366786E-01  0.51100000000E-03 0. -1.
</event>
<event>
 8    1  0.1078274E+005  0.1043930E+01  0.7957747E-01            NaN
         13   -1    0    0    0    0  0.00000000000E+00  0.00000000000E+00  0.74505805969E-08  0.10566000000E+00  0.10566000000E+00 0.  1.
     999900   -1    0    0    0    0 -0.00000000000E+00 -0.00000000000E+00 -0.74505805969E-08  0.93827000000E+00  0.93827000000E+00 0.  1.
     999902    2    1    2    0    0  0.14595983892E-01 -0.19194383631E-02 -0.17034415037E-01  0.10214155983E+01  0.10211674329E+01 0.  0.
     999903    2    3    3    0    0  0.98583927178E-01 -0.70892701100E-01  0.48704287369E-01  0.13229644845E+00  0.19638658234E-01 0.  0.
         14    1    1    2    0    0 -0.14595983892E-01  0.19194383631E-02  0.17034415037E-01  0.22514401725E-01  0.00000000000E+00 0.  1.
     999901    1    3    3    0    0 -0.83987943287E-01  0.68973262737E-01 -0.65738702406E-01  0.88911914982E+00  0.88000000000E+00 0.  1.
        -11    1    4    4    0    0  0.34482661391E-01 -0.36083265379E-01  0.22976352753E-01  0.54947519361E-01  0.51100000000E-03 0. -1.
         11    1    4    4    0    0  0.64101265787E-01 -0.34809435721E-01  0.25727934616E-01  0.77348929090E-01  0.51100000000E-03 0.  1.
</event>
<event>
 8    1  0.1078274E+005  0.1043930E+01  0.7957747E-01            NaN
         13   -1    0    0    0    0  0.00000000000E+00  0.00000000000E+00  0.74505805969E-08  0.10566000000E+00  0.10566000000E+00 0.  1.
     999900   -1    0    0    0    0 -0.00000000000E+00 -0.00000000000E+00 -0.74505805969E-08  0.93827000000E+00  0.93827000000E+00 0. -1.
     999902    2    1    2    0    0  0.12900897437E-01  0.19375492031E-01 -0.40285538344E-02  0.10203064505E+01  0.10200329312E+01 0.  0.
     999903    2    3    3    0    0 -0.11470826590E+00 -0.19745575181E-01  0.49749462773E-01  0.12861893148E+00  0.22802335064E-01 0.  0.
         14    1    1    2    0    0 -0.12900897437E-01 -0.19375492031E-01  0.40285538344E-02  0.23623549524E-01  0.00000000000E+00 0.  1.
     999901    1    3    3    0    0  0.12760916333E+00  0.39121067212E-01 -0.53778016608E-01  0.89168751900E+00  0.88000000000E+00 0.  1.
        -11    1    4    4    0    0 -0.51097900347E-01 -0.13855527276E-01  0.33660369434E-01  0.62739562059E-01  0.51100000000E-03 0.  1.
         11    1    4    4    0    0 -0.63610365548E-01 -0.58900479053E-02  0.16089093339E-01  0.65879369419E-01  0.51100000000E-03 0. -1.
</event>
<event>
 8    1  0.1078274E+005  0.1043930E+01  0.7957747E-01            NaN
         13   -1    0    0    0    0  0.00000000000E+00  0.00000000000E+00  0.74505805969E-08  0.10566000000E+00  0.10566000000E+00 0. -1.
     999900   -1    0    0    0    0 -0.00000000000E+00 -0.00000000000E+00 -0.74505805969E-08  0.93827000000E+00  0.93827000000E+00 0.  1.
     999902    2    1    2    0    0  0.52531029528E-02  0.43253276629E-02 -0.23636894212E-01  0.10193331238E+01  0.10190363149E+01 0.  0.
     999903    2    3    3    0    0 -0.25805644306E-01  0.41759971678E-01  0.11574086796E+00  0.12703711971E+00  0.18238825516E-01 0.  0.
         14    1    1    2    0    0 -0.52531029528E-02 -0.43253276629E-02  0.23636894212E-01  0.24596876184E-01  0.00000000000E+00 0. -1.
     999901    1    3    3    0    0  0.31058747259E-01 -0.37434644015E-01 -0.13937776217E+00  0.89229600410E+00  0.88000000000E+00 0.  1.
        -11    1    4    4    0    0 -0.11945083126E-01  0.48012326215E-02  0.29508324454E-01  0.32198434413E-01  0.51100000000E-03 0.  1.
         11    1    4    4    0    0 -0.13860561181E-01  0.36958739057E-01  0.86232543504E-01  0.94838685298E-01  0.51100000000E-03 0. -1.
</event>
<event>
 8    1  0.1078274E+005  0.1043930E+01  0.7957747E-01            NaN
         13   -1    0    0    0    0  0.00000000000E+00  0.00000000000E+00  0.74505805969E-08  0.10566000000E+00  0.10566000000E+00 0.  1.
     999900   -1    0    0    0    0 -0.00000000000E+00 -0.00000000000E+00 -0.74505805969E-08  0.93827000000E+00  0.93827000000E+00 0.  1.
     999902    2    1    2    0    0  0.14255643113E-01 -0.11703237215E-01 -0.14533829451E-01  0.10204476381E+01  0.10201774163E+01 0.  0.
     999903    2    3    3    0    0 -0.46959892086E-01  0.10257918150E+00 -0.60995590108E-01  0.12973640084E+00  0.19579370480E-01 0.  0.
         14    1    1    2    0    0 -0.14255643113E-01  0.11703237215E-01  0.14533829451E-01  0.23482361900E-01  0.00000000000E+00 0.  1.
     999901    1    3    3    0    0  0.61215535199E-01 -0.11428241872E+00  0.46461760657E-01  0.89071123726E+00  0.88000000000E+00 0. -1.
        -11    1    4    4    0    0 -0.42878789644E-01  0.76928898459E-01 -0.51811090474E-01  0.10218266113E+00  0.51100000000E-03 0.  1.
         11    1    4    4    0    0 -0.40811024417E-02  0.25650283042E-01 -0.91844996337E-02  0.27553739706E-01  0.51100000000E-03 0. -1.
</event>
<event>
 8    1  0.1078274E+005  0.1043930E+01  0.7957747E-01            NaN
         13   -1    0    0    0    0  0.00000000000E+00  0.00000000000E+00  0.74505805969E-08  0.10566000000E+00  0.10566000000E+00 0. -1.
     999900   -1    0    0    0    0 -0.00000000000E+00 -0.00000000000E+00 -0.74505805969E-08  0.93827000000E+00  0.93827000000E+00 0.  1.
     999902    2    1    2    0    0 -0.11909771877E-01 -0.20717901632E-01 -0.44834333409E-02  0.10196159035E+01  0.10193259613E+01 0.  0.
     999903    2    3    3    0    0  0.26402933109E-01  0.12055487854E+00  0.24566737687E-01  0.12705230676E+00  0.17554783825E-01 0.  0.
         14    1    1    2    0    0  0.11909771877E-01  0.20717901632E-01  0.44834333409E-02  0.24314096503E-01  0.00000000000E+00 0.  1.
     999901    1    3    3    0    0 -0.38312704987E-01 -0.14127278018E+00 -0.29050171028E-01  0.89256359674E+00  0.88000000000E+00 0.  1.
        -11    1    4    4    0    0  0.52595589841E-02  0.56413368572E-01  0.16622483237E-01  0.59048278420E-01  0.51100000000E-03 0.  1.
         11    1    4    4    0    0  0.21143374125E-01  0.64141509972E-01  0.79442544506E-02  0.68004028341E-01  0.51100000000E-03 0. -1.
</event>
<event>
 8    1  0.1078274E+005  0.1043930E+01  0.7957747E-01            NaN
         13   -1    0    0    0    0  0.00000000000E+00  0.00000000000E+00  0.74505805969E-08  0.10566000000E+00  0.10566000000E+00 0. -1.
     999900   -1    0    0    0    0 -0.00000000000E+00 -0.00000000000E+00 -0.74505805969E-08  0.93827000000E+00  0.93827000000E+00 0. -1.
     999902    2    1    2    0    0 -0.14426421980E-01 -0.17842334297E-01 -0.39434144697E-02  0.10206486542E+01  0.10203830919E+01 0.  0.
     999903    2    3    3    0    0  0.95076626113E-01  0.71003902585E-01  0.44004627456E-01  0.12813334001E+00  0.20015658099E-01 0.  0.
         14    1    1    2    0    0  0.14426421980E-01  0.17842334297E-01  0.39434144697E-02  0.23281345795E-01  0.00000000000E+00 0. -1.
     999901    1    3    3    0    0 -0.10950304809E+00 -0.88846236882E-01 -0.47948041926E-01  0.89251531420E+00  0.88000000000E+00 0. -1.
        -11    1    4    4    0    0  0.25825560490E-01  0.29027379657E-01  0.19810493947E-01  0.43614964586E-01  0.51100000000E-03 0.  1.
         11    1    4    4    0    0  0.69251065623E-01  0.41976522928E-01  0.24194133509E-01  0.84518375424E-01  0.51100000000E-03 0. -1.
</event>
<event>
 8    1  0.1078274E+005  0.1043930E+01  0.7957747E-01            NaN
         13   -1    0    0    0    0  0.00000000000E+00  0.00000000000E+00  0.74505805969E-08  0.10566000000E+00  0.10566000000E+00 0. -1.
     999900   -1    0    0    0    0 -0.00000000000E+00 -0.00000000000E+00 -0.74505805969E-08  0.93827000000E+00  0.93827000000E+00 0.  1.
     999902    2    1    2    0    0  0.51289880850E-02 -0.20708847626E-01  0.10253220127E-01  0.10202595245E+01  0.10199849047E+01 0.  0.
     999903    2    3    3    0    0 -0.90368411027E-01  0.88146156435E-01 -0.97514941136E-02  0.12820047164E+00  0.20101609030E-01 0.  0.
         14    1    1    2    0    0 -0.51289880850E-02  0.20708847626E-01 -0.10253220127E-01  0.23670475529E-01  0.00000000000E+00 0.  1.
     999901    1    3    3    0    0  0.95497399112E-01 -0.10885500406E+00  0.20004714241E-01  0.89205905283E+00  0.88000000000E+00 0. -1.
        -11    1    4    4    0    0 -0.57814209440E-01  0.55444158838E-01  0.35252561835E-02  0.80182455154E-01  0.51100000000E-03 0. -1.
         11    1    4    4    0    0 -0.32554201587E-01  0.32701997597E-01 -0.13276750297E-01  0.48018016486E-01  0.51100000000E-03 0.  1.
</event>
<event>
 8    1  0.1078274E+005  0.1043930E+01  0.7957747E-01            NaN
         13   -1    0    0    0    0  0.00000000000E+00  0.00000000000E+00  0.74505805969E-08  0.10566000000E+00  0.10566000000E+00 0.  1.
     999900   -1    0    0    0    0 -0.00000000000E+00 -0.00000000000E+00 -0.74505805969E-08  0.93827000000E+00  0.93827000000E+00 0.  1.
     999902    2    1    2    0    0 -0.24844849023E-02  0.16132005317E-01 -0.17384800041E-01  0.10200837103E+01  0.10198049473E+01 0.  0.
     999903    2    3    3    0    0  0.94384774952E-01  0.85923652548E-01  0.24217954440E-01  0.13104753739E+00  0.17192670805E-01 0.  0.
         14    1    1    2    0    0  0.24844849023E-02 -0.16132005317E-01  0.17384800041E-01  0.23846289717E-01  0.00000000000E+00 0.  1.
     999901    1    3    3    0    0 -0.96869259854E-01 -0.69791647231E-01 -0.41602754482E-01  0.88903617289E+00  0.88000000000E+00 0.  1.
        -11    1    4    4    0    0  0.46605776847E-01  0.50663044901E-01  0.68765397096E-02  0.69183744287E-01  0.51100000000E-03 0.  1.
         11    1    4    4    0    0  0.47778998105E-01  0.35260607647E-01  0.17341414731E-01  0.61863793106E-01  0.51100000000E-03 0. -1.
</event>
<event>
 8    1  0.1198220E+005  0.1043930E+01  0.7957747E-01            NaN
         13   -1    0    0    0    0  0.00000000000E+00  0.00000000000E+00  0.74505805969E-08  0.10566000000E+00  0.10566000000E+00 0.  1.
     999900   -1    0    0    0    0 -0.00000000000E+00 -0.00000000000E+00 -0.74505805969E-08  0.93827000000E+00  0.93827000000E+00 0. -1.
     999902    2    1    2    0    0  0.86311350625E-02  0.11731217841E-01 -0.18959218523E-01  0.10200224712E+01  0.10197422576E+01 0.  0.
     999903    2    3    3    0    0  0.21391235469E-01  0.19178456984E-02  0.12484742583E+00  0.12820439932E+00  0.19703430697E-01 0.  0.
         14    1    1    2    0    0 -0.86311350625E-02 -0.11731217841E-01  0.18959218523E-01  0.23907528762E-01  0.00000000000E+00 0.  1.
     999901    1    3    3    0    0 -0.12760100406E-01  0.98133721423E-02 -0.14380664436E+00  0.89181807192E+00  0.88000000000E+00 0. -1.
        -11    1    4    4    0    0  0.47817493790E-02  0.71808850667E-02  0.72900148634E-01  0.73410646567E-01  0.51100000000E-03 0. -1.
         11    1    4    4    0    0  0.16609486090E-01 -0.52630393683E-02  0.51947277200E-01  0.54793752755E-01  0.51100000000E-03 0.  1.
</event>
<event>
 8    1  0.1078274E+005  0.1043930E+01  0.7957747E-01            NaN
         13   -1    0    0    0    0  0.00000000000E+00  0.00000000000E+00  0.74505805969E-08  0.10566000000E+00  0.10566000000E+00 0.  1.
     999900   -1    0    0    0    0 -0.00000000000E+00 -0.00000000000E+00 -0.74505805969E-08  0.93827000000E+00  0.93827000000E+00 0. -1.
     999902    2    1    2    0    0 -0.17380276974E-01  0.44221302015E-02 -0.18104537775E-01  0.10184466024E+01  0.10181277319E+01 0.  0.
     999903    2    3    3    0    0  0.63819299004E-01 -0.42400931884E-01  0.97968324448E-01  0.12588922074E+00  0.19482334387E-01 0.  0.
         14    1    1    2    0    0  0.17380276974E-01 -0.44221302015E-02  0.18104537775E-01  0.25483397561E-01  0.00000000000E+00 0.  1.
     999901    1    3    3    0    0 -0.81199575978E-01  0.46823062085E-01 -0.11607286222E+00  0.89255738170E+00  0.88000000000E+00 0.  1.
        -11    1    4    4    0    0  0.29772617190E-01 -0.84033748958E-02  0.37957634185E-01  0.48970078190E-01  0.51100000000E-03 0. -1.
         11    1    4    4    0    0  0.34046681815E-01 -0.33997556988E-01  0.60010690262E-01  0.76919142549E-01  0.51100000000E-03 0.  1.
</event>
<event>
 8    1  0.1078274E+005  0.1043930E+01  0.7957747E-01            NaN
         13   -1    0    0    0    0  0.00000000000E+00  0.00000000000E+00  0.74505805969E-08  0.10566000000E+00  0.10566000000E+00 0.  1.
     999900   -1    0    0    0    0 -0.00000000000E+00 -0.00000000000E+00 -0.74505805969E-08  0.93827000000E+00  0.93827000000E+00 0.  1.
     999902    2    1    2    0    0 -0.38055307124E-02 -0.12346773218E-01  0.14044243416E-01  0.10248468754E+01  0.10246691916E+01 0.  0.
     999903    2    3    3    0    0  0.44739939787E-01 -0.12417508739E+00 -0.24912247057E-01  0.13558884604E+00  0.18509472633E-01 0.  0.
         14    1    1    2    0    0  0.38055307124E-02  0.12346773218E-01 -0.14044243416E-01  0.19083124641E-01  0.00000000000E+00 0. -1.
     999901    1    3    3    0    0 -0.48545470500E-01  0.11182831417E+00  0.38956490474E-01  0.88925802932E+00  0.88000000000E+00 0. -1.
        -11    1    4    4    0    0  0.45071274709E-01 -0.10771493236E+00 -0.20683776422E-01  0.11858333013E+00  0.51100000000E-03 0. -1.
         11    1    4    4    0    0 -0.33133492161E-03 -0.16460155033E-01 -0.42284706353E-02  0.17005515913E-01  0.51100000000E-03 0.  1.
</event>
<event>
 8    1  0.1078274E+005  0.1043930E+01  0.7957747E-01            NaN
         13   -1    0    0    0    0  0.00000000000E+00  0.00000000000E+00  0.74505805969E-08  0.10566000000E+00  0.10566000000E+00 0. -1.
     999900   -1    0    0    0    0 -0.00000000000E+00 -0.00000000000E+00 -0.74505805969E-08  0.93827000000E+00  0.93827000000E+00 0.  1.
     999902    2    1    2    0    0 -0.59855253969E-02  0.21595280368E-01  0.33698988704E-03  0.10215180342E+01  0.10212721469E+01 0.  0.
     999903    2    3    3    0    0  0.30514414007E-01  0.10459003529E+00  0.74701719444E-01  0.13373963397E+00  0.20874335048E-01 0.  0.
         14    1    1    2    0    0  0.59855253969E-02 -0.21595280368E-01 -0.33698988704E-03  0.22411965792E-01  0.00000000000E+00 0. -1.
     999901    1    3    3    0    0 -0.36499939404E-01 -0.82994754921E-01 -0.74364729557E-01  0.88777840023E+00  0.88000000000E+00 0. -1.
        -11    1    4    4    0    0  0.14583977511E-01  0.20473382688E-01  0.13857696484E-01  0.28707989682E-01  0.51100000000E-03 0.  1.
         11    1    4    4    0    0  0.15930436495E-01  0.84116652601E-01  0.60844022959E-01  0.10503164429E+00  0.51100000000E-03 0. -1.
</event>
<event>
 8    1  0.1078274E+005  0.1043930E+01  0.7957747E-01            NaN
         13   -1    0    0    0    0  0.00000000000E+00  0.00000000000E+00  0.74505805969E-08  0.10566000000E+00  0.10566000000E+00 0. -1.
     999900   -1    0    0    0    0 -0.00000000000E+00 -0.00000000000E+00 -0.74505805969E-08  0.93827000000E+00  0.93827000000E+00 0. -1.
     999902    2    1    2    0    0 -0.14174150173E-01  0.19221311195E-02  0.17016255293E-01  0.10217004236E+01  0.10214585658E+01 0.  0.
     999903    2    3    3    0    0  0.11463164604E+00  0.56744283386E-01  0.16848950939E-01  0.13063565073E+00  0.20529445285E-01 0.  0.
         14    1    1    2    0    0  0.14174150173E-01 -0.19221311195E-02 -0.17016255293E-01  0.22229576365E-01  0.00000000000E+00 0.  1.
     999901    1    3    3    0    0 -0.12880579621E+00 -0.54822152267E-01  0.16730435341E-03  0.89106477290E+00  0.88000000000E+00 0. -1.
        -11    1    4    4    0    0  0.86312340825E-01  0.48775646445E-01  0.19679333967E-01  0.10107631360E+00  0.51100000000E-03 0. -1.
         11    1    4    4    0    0  0.28319305215E-01  0.79686369412E-02 -0.28303830279E-02  0.29559337132E-01  0.51100000000E-03 0.  1.
</event>
<event>
 8    1  0.1078274E+005  0.1043930E+01  0.7957747E-01            NaN
         13   -1    0    0    0    0  0.00000000000E+00  0.00000000000E+00  0.74505805969E-08  0.10566000000E+00  0.10566000000E+00 0.  1.
     999900   -1    0    0    0    0 -0.00000000000E+00 -0.00000000000E+00 -0.74505805969E-08  0.93827000000E+00  0.93827000000E+00 0.  1.
     999902    2    1    2    0    0  0.56102415245E-02 -0.17333917642E-01 -0.18456759405E-01  0.10179956313E+01  0.10176652268E+01 0.  0.
     999903    2    3    3    0    0  0.79342387189E-01  0.97108384325E-01  0.60862467012E-02  0.12718935108E+00  0.20367521136E-01 0.  0.
         14    1    1    2    0    0 -0.56102415245E-02  0.17333917642E-01  0.18456759405E-01  0.25934368674E-01  0.00000000000E+00 0.  1.
     999901    1    3    3    0    0 -0.73732145664E-01 -0.11444230197E+00 -0.24543006106E-01  0.89080628025E+00  0.88000000000E+00 0.  1.
        -11    1    4    4    0    0  0.50207040157E-01  0.57566293134E-01 -0.59469651677E-02  0.76617573064E-01  0.51100000000E-03 0.  1.
         11    1    4    4    0    0  0.29135347032E-01  0.39542091191E-01  0.12033211869E-01  0.50571778012E-01  0.51100000000E-03 0. -1.
</event>
<event>
 8    1  0.1078274E+005  0.1043930E+01  0.7957747E-01            NaN
         13   -1    0    0    0    0  0.00000000000E+00  0.00000000000E+00  0.74505805969E-08  0.10566000000E+00  0.10566000000E+00 0.  1.
     999900   -1    0    0    0    0 -0.00000000000E+00 -0.00000000000E+00 -0.74505805969E-08  0.93827000000E+00  0.93827000000E+00 0.  1.
     999902    2    1    2    0    0 -0.19656738120E-01  0.12438074714E-01  0.18564734413E-02  0.10205946288E+01  0.10203278183E+01 0.  0.
     999903    2    3    3    0    0 -0.70096598779E-01  0.14955934071E-02 -0.10968924429E+00  0.13205292206E+00  0.22146646543E-01 0.  0.
         14    1    1    2    0    0  0.19656738120E-01 -0.12438074714E-01 -0.18564734413E-02  0.23335371215E-01  0.00000000000E+00 0.  1.
     999901    1    3    3    0    0  0.50439860659E-01  0.10942481307E-01  0.11154571773E+00  0.88854170672E+00  0.88000000000E+00 0. -1.
        -11    1    4    4    0    0 -0.37828983547E-01 -0.60648905095E-02 -0.74096834569E-01  0.83417125983E-01  0.51100000000E-03 0. -1.
         11    1    4    4    0    0 -0.32267615232E-01  0.75604839166E-02 -0.35592409718E-01  0.48635796080E-01  0.51100000000E-03 0.  1.
</event>
<event>
 8    1  0.1078274E+005  0.1043930E+01  0.7957747E-01            NaN
         13   -1    0    0    0    0  0.00000000000E+00  0.00000000000E+00  0.74505805969E-08  0.10566000000E+00  0.10566000000E+00 0. -1.
     999900   -1    0    0    0    0 -0.00000000000E+00 -0.00000000000E+00 -0.74505805969E-08  0.93827000000E+00  0.93827000000E+00 0. -1.
     999902    2    1    2    0    0  0.10384109173E-01 -0.20355953756E-01  0.23408823482E-02  0.10209588375E+01  0.10207003838E+01 0.  0.
     999903    2    3    3    0    0 -0.12206962792E+00  0.27378153139E-01 -0.19126842521E-01  0.12950867027E+00  0.27497313333E-01 0.  0.
         14    1    1    2    0    0 -0.10384109173E-01  0.20355953756E-01 -0.23408823482E-02  0.22971162504E-01  0.00000000000E+00 0. -1.
     999901    1    3    3    0    0  0.13245373709E+00 -0.47734106895E-01  0.21467724869E-01  0.89145016722E+00  0.88000000000E+00 0.  1.
        -11    1    4    4    0    0 -0.56939626718E-01  0.21683718364E-01  0.15071082354E-02  0.60949464552E-01  0.51100000000E-03 0. -1.
         11    1    4    4    0    0 -0.65130001204E-01  0.56944347745E-02 -0.20633950757E-01  0.68559205720E-01  0.51100000000E-03 0.  1.
</event>
<event>
 8    1  0.1078274E+005  0.1043930E+01  0.7957747E-01            NaN
         13   -1    0    0    0    0  0.00000000000E+00  0.00000000000E+00  0.74505805969E-08  0.10566000000E+00  0.10566000000E+00 0. -1.
     999900   -1    0    0    0    0 -0.00000000000E+00 -0.00000000000E+00 -0.74505805969E-08  0.93827000000E+00  0.93827000000E+00 0.  1.
     999902    2    1    2    0    0  0.54459169055E-02 -0.18009465303E-01  0.12644347811E-01  0.10212611142E+01  0.10210094931E+01 0.  0.
     999903    2    3    3    0    0  0.12338831254E+00  0.35676779939E-01  0.21676023472E-01  0.13172517183E+00  0.19600066357E-01 0.  0.
         14    1    1    2    0    0 -0.54459169055E-02  0.18009465303E-01 -0.12644347811E-01  0.22668885791E-01  0.00000000000E+00 0.  1.
     999901    1    3    3    0    0 -0.11794239564E+00 -0.53686245242E-01 -0.90316756608E-02  0.88953594238E+00  0.88000000000E+00 0. -1.
        -11    1    4    4    0    0  0.19951773088E-01  0.68942719870E-02  0.11052488605E-01  0.23833230183E-01  0.51100000000E-03 0.  1.
         11    1    4    4    0    0  0.10343653946E+00  0.28782507952E-01  0.10623534867E-01  0.10789194165E+00  0.51100000000E-03 0. -1.
</event>
<event>
 8    1  0.1078274E+005  0.1043930E+01  0.7957747E-01            NaN
         13   -1    0    0    0    0  0.00000000000E+00  0.00000000000E+00  0.74505805969E-08  0.10566000000E+00  0.10566000000E+00 0.  1.
     999900   -1    0    0    0    0 -0.00000000000E+00 -0.00000000000E+00 -0.74505805969E-08  0.93827000000E+00  0.93827000000E+00 0. -1.
     999902    2    1    2    0    0  0.15358939833E-01  0.30659709701E-02  0.24493201783E-02  0.10280776696E+01  0.10279554457E+01 0.  0.
     999903    2    3    3    0    0  0.58838584668E-02 -0.30502235147E-01  0.13267337190E+00  0.13781090883E+00  0.20606233094E-01 0.  0.
         14    1    1    2    0    0 -0.15358939833E-01 -0.30659709701E-02 -0.24493201783E-02  0.15852330432E-01  0.00000000000E+00 0. -1.
     999901    1    3    3    0    0  0.94750813666E-02  0.33568206117E-01 -0.13022405172E+00  0.89026676074E+00  0.88000000000E+00 0. -1.
        -11    1    4    4    0    0 -0.50991866364E-02 -0.13880778301E-01  0.82647563131E-01  0.83961649121E-01  0.51100000000E-03 0.  1.
         11    1    4    4    0    0  0.10983045103E-01 -0.16621456846E-01  0.50025808767E-01  0.53849259709E-01  0.51100000000E-03 0. -1.
</event>
<event>
 8    1  0.1078274E+005  0.1043930E+01  0.7957747E-01            NaN
         13   -1    0    0    0    0  0.00000000000E+00  0.00000000000E+00  0.74505805969E-08  0.10566000000E+00  0.10566000000E+00 0. -1.
     999900   -1    0    0    0    0 -0.00000000000E+00 -0.00000000000E+00 -0.74505805969E-08  0.93827000000E+00  0.93827000000E+00 0.  1.
     999902    2    1    2    0    0  0.15252501662E-01  0.11083454360E-01 -0.14260767932E-01  0.10202899647E+01  0.10200160591E+01 0.  0.
     999903    2    3    3    0    0 -0.11552668743E+00 -0.38793737425E-01 -0.30125444899E-01  0.12908705932E+00  0.30075852161E-01 0.  0.
         14    1    1    2    0    0 -0.15252501662E-01 -0.11083454360E-01  0.14260767932E-01  0.23640035311E-01  0.00000000000E+00 0. -1.
     999901    1    3    3    0    0  0.13077918909E+00  0.49877191785E-01  0.15864676967E-01  0.89120290537E+00  0.88000000000E+00 0.  1.
        -11    1    4    4    0    0 -0.53419956037E-01 -0.91004115962E-02 -0.26041197206E-01  0.60124157101E-01  0.51100000000E-03 0.  1.
         11    1    4    4    0    0 -0.62106731389E-01 -0.29693325829E-01 -0.40842476932E-02  0.68962902222E-01  0.51100000000E-03 0. -1.
</event>
<event>
 8    1  0.1078274E+005  0.1043930E+01  0.7957747E-01            NaN
         13   -1    0    0    0    0  0.00000000000E+00  0.00000000000E+00  0.74505805969E-08  0.10566000000E+00  0.10566000000E+00 0. -1.
     999900   -1    0    0    0    0 -0.00000000000E+00 -0.00000000000E+00 -0.74505805969E-08  0.93827000000E+00  0.93827000000E+00 0. -1.
     999902    2    1    2    0    0  0.20487759729E-01  0.98603919389E-02 -0.63478007597E-02  0.10203234288E+01  0.10200503072E+01 0.  0.
     999903    2    3    3    0    0  0.61068072276E-01 -0.11327609123E+00 -0.12274970559E-01  0.13080418418E+00  0.19956888571E-01 0.  0.
         14    1    1    2    0    0 -0.20487759729E-01 -0.98603919389E-02  0.63478007597E-02  0.23606571170E-01  0.00000000000E+00 0.  1.
     999901    1    3    3    0    0 -0.40580312546E-01  0.12313648317E+00  0.59271697996E-02  0.88951924465E+00  0.88000000000E+00 0.  1.
        -11    1    4    4    0    0  0.33126663766E-03 -0.12755285916E-01 -0.17046286915E-02  0.12883087222E-01  0.51100000000E-03 0. -1.
         11    1    4    4    0    0  0.60736805638E-01 -0.10052080532E+00 -0.10570341868E-01  0.11792109696E+00  0.51100000000E-03 0.  1.
</event>
<event>
 8    1  0.1078274E+005  0.1043930E+01  0.7957747E-01            NaN
         13   -1    0    0    0    0  0.00000000000E+00  0.00000000000E+00  0.74505805969E-08  0.10566000000E+00  0.10566000000E+00 0. -1.
     999900   -1    0    0    0    0 -0.00000000000E+00 -0.00000000000E+00 -0.74505805969E-08  0.93827000000E+00  0.93827000000E+00 0. -1.
     999902    2    1    2    0    0 -0.16369424072E-01 -0.37474411938E-02 -0.16164796439E-01  0.10206211604E+01  0.10203549633E+01 0.  0.
     999903    2    3    3    0    0  0.76845808752E-02 -0.95546561184E-01  0.85108105333E-01  0.12974413509E+00  0.20048762022E-01 0.  0.
         14    1    1    2    0    0  0.16369424072E-01  0.37474411938E-02  0.16164796439E-01  0.23308839607E-01  0.00000000000E+00 0. -1.
     999901    1    3    3    0    0 -0.24054004947E-01  0.91799119990E-01 -0.10127290177E+00  0.89087702531E+00  0.88000000000E+00 0. -1.
        -11    1    4    4    0    0  0.63234471820E-02 -0.70034531487E-01  0.73355942730E-01  0.10161779883E+00  0.51100000000E-03 0.  1.
         11    1    4    4    0    0  0.13611336932E-02 -0.25512029697E-01  0.11752162603E-01  0.28126336254E-01  0.51100000000E-03 0. -1.
</event>
<event>
 8    1  0.1078274E+005  0.1043930E+01  0.7957747E-01            NaN
         13   -1    0    0    0    0  0.00000000000E+00  0.00000000000E+00  0.74505805969E-08  0.10566000000E+00  0.10566000000E+00 0.  1.
     999900   -1    0    0    0    0 -0.00000000000E+00 -0.00000000000E+00 -0.74505805969E-08  0.93827000000E+00  0.93827000000E+00 0.  1.
     999902    2    1    2    0    0 -0.20911487196E-01 -0.33865010377E-02  0.98644576571E-02  0.10205619404E+01  0.10202943732E+01 0.  0.
     999903    2    3    3    0    0  0.70288200921E-01 -0.10102420669E-02 -0.10544111411E+00  0.12836330520E+00  0.20441570367E-01 0.  0.
         14    1    1    2    0    0  0.20911487196E-01  0.33865010377E-02 -0.98644576571E-02  0.23368059631E-01  0.00000000000E+00 0. -1.
     999901    1    3    3    0    0 -0.91199688117E-01 -0.23762589709E-02  0.11530557177E+00  0.89219863517E+00  0.88000000000E+00 0. -1.
        -11    1    4    4    0    0  0.96572688684E-02 -0.47543918921E-04 -0.30295391720E-01  0.31801524852E-01  0.51100000000E-03 0. -1.
         11    1    4    4    0    0  0.60630932052E-01 -0.96269814794E-03 -0.75145722390E-01  0.96561780347E-01  0.51100000000E-03 0.  1.
</event>
<event>
 8    1  0.1078274E+005  0.1043930E+01  0.7957747E-01            NaN
         13   -1    0    0    0    0  0.00000000000E+00  0.00000000000E+00  0.74505805969E-08  0.10566000000E+00  0.10566000000E+00 0.  1.
     999900   -1    0    0    0    0 -0.00000000000E+00 -0.00000000000E+00 -0.74505805969E-08  0.93827000000E+00  0.93827000000E+00 0.  1.
     999902    2    1    2    0    0  0.10335706644E-01 -0.13465517081E-01 -0.15610037820E-01  0.10208687714E+01  0.10206082638E+01 0.  0.
     999903    2    3    3    0    0 -0.11326916456E+00  0.53161705691E-01  0.22668639578E-01  0.12891439584E+00  0.21189234118E-01 0.  0.
         14    1    1    2    0    0 -0.10335706644E-01  0.13465517081E-01  0.15610037820E-01  0.23061228563E-01  0.00000000000E+00 0.  1.
     999901    1    3    3    0    0  0.12360487121E+00 -0.66627222772E-01 -0.38278677398E-01  0.89195437560E+00  0.88000000000E+00 0.  1.
        -11    1    4    4    0    0 -0.67743304094E-01  0.42921673599E-01  0.12732487821E-01  0.81202233228E-01  0.51100000000E-03 0. -1.
         11    1    4    4    0    0 -0.45525860467E-01  0.10240032092E-01  0.99361517579E-02  0.47712162614E-01  0.51100000000E-03 0.  1.
</event>
<event>
 8    1  0.1078274E+005  0.1043930E+01  0.7957747E-01            NaN
         13   -1    0    0    0    0  0.00000000000E+00  0.00000000000E+00  0.74505805969E-08  0.10566000000E+00  0.10566000000E+00 0. -1.
     999900   -1    0    0    0    0 -0.00000000000E+00 -0.00000000000E+00 -0.74505805969E-08  0.93827000000E+00  0.93827000000E+00 0. -1.
     999902    2    1    2    0    0  0.14290478074E-01  0.12477290730E-01 -0.12767256981E-01  0.10210629189E+01  0.10208068284E+01 0.  0.
     999903    2    3    3    0    0  0.50407727973E-03  0.13064043788E+00  0.95637919850E-02  0.13277733985E+00  0.21706629313E-01 0.  0.
         14    1    1    2    0    0 -0.14290478074E-01 -0.12477290730E-01  0.12767256981E-01  0.22867081107E-01  0.00000000000E+00 0. -1.
     999901    1    3    3    0    0  0.13786400794E-01 -0.11816314715E+00 -0.22331048966E-01  0.88828557905E+00  0.88000000000E+00 0. -1.
        -11    1    4    4    0    0  0.35624333079E-03  0.77503336249E-02 -0.46613232248E-02  0.90655190593E-02  0.51100000000E-03 0. -1.
         11    1    4    4    0    0  0.14783394895E-03  0.12289010426E+00  0.14225115210E-01  0.12371182079E+00  0.51100000000E-03 0.  1.
</event>
<event>
 8    1  0.1078274E+005  0.1043930E+01  0.7957747E-01            NaN
         13   -1    0    0    0    0  0.00000000000E+00  0.00000000000E+00  0.74505805969E-08  0.10566000000E+00  0.10566000000E+00 0.  1.
     999900   -1    0    0    0    0 -0.00000000000E+00 -0.00000000000E+00 -0.74505805969E-08  0.93827000000E+00  0.93827000000E+00 0.  1.
     999902    2    1    2    0    0 -0.18533782323E-01 -0.93805688723E-02 -0.13377488395E-01  0.10192226457E+01  0.10189231316E+01 0.  0.
     999903    2    3    3    0    0  0.34184835438E-01  0.12091931102E+00 -0.14178973360E-01  0.12806724192E+00  0.20250738640E-01 0.  0.
         14    1    1    2    0    0  0.18533782323E-01  0.93805688723E-02  0.13377488395E-01  0.24707354276E-01  0.00000000000E+00 0.  1.
     999901    1    3    3    0    0 -0.52718617761E-01 -0.13029987989E+00  0.80148496499E-03  0.89115540381E+00  0.88000000000E+00 0.  1.
        -11    1    4    4    0    0  0.21822845766E-01  0.10296256860E+00 -0.88726587250E-02  0.10562439266E+00  0.51100000000E-03 0.  1.
         11    1    4    4    0    0  0.12361989671E-01  0.17956742416E-01 -0.53063146350E-02  0.22442849258E-01  0.51100000000E-03 0. -1.
</event>
<event>
 8    1  0.1078274E+005  0.1043930E+01  0.7957747E-01            NaN
         13   -1    0    0    0    0  0.00000000000E+00  0.00000000000E+00  0.74505805969E-08  0.10566000000E+00  0.10566000000E+00 0.  1.
     999900   -1    0    0    0    0 -0.00000000000E+00 -0.00000000000E+00 -0.74505805969E-08  0.93827000000E+00  0.93827000000E+00 0.  1.
     999902    2    1    2    0    0 -0.13698742343E-01  0.15485953996E-01  0.11342105432E-01  0.10203479376E+01  0.10200753894E+01 0.  0.
     999903    2    3    3    0    0  0.87238048181E-01  0.52715307310E-01 -0.75949362558E-01  0.12950897299E+00  0.24796929974E-01 0.  0.
         14    1    1    2    0    0  0.13698742343E-01 -0.15485953996E-01 -0.11342105432E-01  0.23582062432E-01  0.00000000000E+00 0. -1.
     999901    1    3    3    0    0 -0.10093679052E+00 -0.37229353314E-01  0.87291467990E-01  0.89083896458E+00  0.88000000000E+00 0. -1.
        -11    1    4    4    0    0  0.32878398612E-01  0.76781986224E-02 -0.18568002841E-01  0.38535382181E-01  0.51100000000E-03 0. -1.
         11    1    4    4    0    0  0.54359649570E-01  0.45037108688E-01 -0.57381359717E-01  0.90973590807E-01  0.51100000000E-03 0.  1.
</event>
<event>
 8    1  0.1078274E+005  0.1043930E+01  0.7957747E-01            NaN
         13   -1    0    0    0    0  0.00000000000E+00  0.00000000000E+00  0.74505805969E-08  0.10566000000E+00  0.10566000000E+00 0.  1.
     999900   -1    0    0    0    0 -0.00000000000E+00 -0.00000000000E+00 -0.74505805969E-08  0.93827000000E+00  0.93827000000E+00 0.  1.
     999902    2    1    2    0    0 -0.18390437675E-01 -0.12164227445E-01  0.49565598946E-03  0.10218750164E+01  0.10216369839E+01 0.  0.
     999903    2    3    3    0    0  0.12594027387E+00 -0.18579518566E-01  0.16635098437E-01  0.12994845447E+00  0.20092865037E-01 0.  0.
         14    1    1    2    0    0  0.18390437675E-01  0.12164227445E-01 -0.49565598946E-03  0.22054983610E-01  0.00000000000E+00 0.  1.
     999901    1    3    3    0    0 -0.14433071155E+00  0.64152911212E-02 -0.16139442448E-01  0.89192656192E+00  0.88000000000E+00 0.  1.
        -11    1    4    4    0    0  0.51195606625E-01  0.19749123721E-02  0.93902138798E-02  0.52089611769E-01  0.51100000000E-03 0. -1.
         11    1    4    4    0    0  0.74744667249E-01 -0.20554430938E-01  0.72448845573E-02  0.77858842700E-01  0.51100000000E-03 0.  1.
</event>
<event>
 8    1  0.1078274E+005  0.1043930E+01  0.7957747E-01            NaN
         13   -1    0    0    0    0  0.00000000000E+00  0.00000000000E+00  0.74505805969E-08  0.10566000000E+00  0.10566000000E+00 0. -1.
     999900   -1    0    0    0    0 -0.00000000000E+00 -0.00000000000E+00 -0.74505805969E-08  0.93827000000E+00  0.93827000000E+00 0.  1.
     999902    2    1    2    0    0  0.20805711386E-01  0.59784060593E-02  0.79503692817E-02  0.10208686181E+01  0.10206081070E+01 0.  0.
     999903    2    3    3    0    0 -0.66813669872E-01  0.67708706162E-01 -0.85466177951E-01  0.12945713214E+00  0.20153067205E-01 0.  0.
         14    1    1    2    0    0 -0.20805711386E-01 -0.59784060593E-02 -0.79503692817E-02  0.23061381941E-01  0.00000000000E+00 0. -1.
     999901    1    3    3    0    0  0.87619381258E-01 -0.61730300102E-01  0.93416547233E-01  0.89141148591E+00  0.88000000000E+00 0.  1.
        -11    1    4    4    0    0 -0.61044163478E-02  0.13224472531E-01 -0.66243705639E-02  0.16009184209E-01  0.51100000000E-03 0. -1.
         11    1    4    4    0    0 -0.60709253524E-01  0.54484233631E-01 -0.78841807388E-01  0.11344794794E+00  0.51100000000E-03 0.  1.
</event>
<event>
 8    1  0.1078274E+005  0.1043930E+01  0.7957747E-01            NaN
         13   -1    0    0    0    0  0.00000000000E+00  0.00000000000E+00  0.74505805969E-08  0.10566000000E+00  0.10566000000E+00 0.  1.
     999900   -1    0    0    0    0 -0.00000000000E+00 -0.00000000000E+00 -0.74505805969E-08  0.93827000000E+00  0.93827000000E+00 0.  1.
     999902    2    1    2    0    0  0.27076195313E-02  0.19293996811E-01 -0.12694124871E-01  0.10206763912E+01  0.10204114686E+01 0.  0.
     999903    2    3    3    0    0 -0.61972078078E-01 -0.21077115668E-01 -0.11270047125E+00  0.13173625860E+00  0.19190162716E-01 0.  0.
         14    1    1    2    0    0 -0.27076195313E-02 -0.19293996811E-01  0.12694124871E-01  0.23253608810E-01  0.00000000000E+00 0.  1.
     999901    1    3    3    0    0  0.64679697610E-01  0.40371112478E-01  0.10000634638E+00  0.88894013259E+00  0.88000000000E+00 0. -1.
        -11    1    4    4    0    0 -0.15429941344E-01 -0.12421477150E-01 -0.44521127769E-01  0.48731592661E-01  0.51100000000E-03 0. -1.
         11    1    4    4    0    0 -0.46542136734E-01 -0.86556385172E-02 -0.68179343480E-01  0.83004665943E-01  0.51100000000E-03 0.  1.
</event>
<event>
 8    1  0.1078274E+005  0.1043930E+01  0.7957747E-01            NaN
         13   -1    0    0    0    0  0.00000000000E+00  0.00000000000E+00  0.74505805969E-08  0.10566000000E+00  0.10566000000E+00 0. -1.
     999900   -1    0    0    0    0 -0.00000000000E+00 -0.00000000000E+00 -0.74505805969E-08  0.93827000000E+00  0.93827000000E+00 0.  1.
     999902    2    1    2    0    0 -0.17457958620E-01 -0.11898849877E-02 -0.16407290332E-01  0.10199426008E+01  0.10196604894E+01 0.  0.
     999903    2    3    3    0    0  0.21013590764E-01  0.11358407824E+00 -0.57470229855E-01  0.13070737444E+00  0.20944607638E-01 0.  0.
         14    1    1    2    0    0  0.17457958620E-01  0.11898849877E-02  0.16407290332E-01  0.23987399224E-01  0.00000000000E+00 0. -1.
     999901    1    3    3    0    0 -0.38471549385E-01 -0.11477396322E+00  0.41062939523E-01  0.88923522633E+00  0.88000000000E+00 0. -1.
        -11    1    4    4    0    0  0.25227174422E-01  0.91992729925E-01 -0.46714432071E-01  0.10621474461E+00  0.51100000000E-03 0. -1.
         11    1    4    4    0    0 -0.42135836579E-02  0.21591348311E-01 -0.10755797784E-01  0.24492629832E-01  0.51100000000E-03 0.  1.
</event>
<event>
 8    1  0.1078274E+005  0.1043930E+01  0.7957747E-01            NaN
         13   -1    0    0    0    0  0.00000000000E+00  0.00000000000E+00  0.74505805969E-08  0.10566000000E+00  0.10566000000E+00 0. -1.
     999900   -1    0    0    0    0 -0.00000000000E+00 -0.00000000000E+00 -0.74505805969E-08  0.93827000000E+00  0.93827000000E+00 0. -1.
     999902    2    1    2    0    0  0.39644349497E-02 -0.28364486732E-02  0.22075758476E-01  0.10213224504E+01  0.10210722043E+01 0.  0.
     999903    2    3    3    0    0  0.46116329819E-01  0.10751362833E+00 -0.53537633502E-01  0.13021566289E+00  0.20098370798E-01 0.  0.
         14    1    1    2    0    0 -0.39644349497E-02  0.28364486732E-02 -0.22075758476E-01  0.22607549576E-01  0.00000000000E+00 0.  1.
     999901    1    3    3    0    0 -0.42151894869E-01 -0.11035007701E+00  0.75613391978E-01  0.89110678753E+00  0.88000000000E+00 0. -1.
        -11    1    4    4    0    0  0.20473292702E-01  0.50580921350E-01 -0.35934536439E-01  0.65338635957E-01  0.51100000000E-03 0.  1.
         11    1    4    4    0    0  0.25643037117E-01  0.56932706983E-01 -0.17603097063E-01  0.64877026937E-01  0.51100000000E-03 0. -1.
</event>
<event>
 8    1  0.1078274E+005  0.1043930E+01  0.7957747E-01            NaN
         13   -1    0    0    0    0  0.00000000000E+00  0.00000000000E+00  0.74505805969E-08  0.10566000000E+00  0.10566000000E+00 0. -1.
     999900   -1    0    0    0    0 -0.00000000000E+00 -0.00000000000E+00 -0.74505805969E-08  0.93827000000E+00  0.93827000000E+00 0. -1.
     999902    2    1    2    0    0 -0.17893362902E-01 -0.92945738734E-02  0.13247850949E-01  0.10198039333E+01  0.10195185115E+01 0.  0.
     999903    2    3    3    0    0  0.28149894862E-01  0.36067764720E-01 -0.11764129757E+00  0.12777832126E+00  0.19862634708E-01 0.  0.
         14    1    1    2    0    0  0.17893362902E-01  0.92945738734E-02 -0.13247850949E-01  0.24126066695E-01  0.00000000000E+00 0.  1.
     999901    1    3    3    0    0 -0.46043257764E-01 -0.45362338593E-01  0.13088914852E+00  0.89202561205E+00  0.88000000000E+00 0.  1.
        -11    1    4    4    0    0  0.14999903595E-01  0.27052076140E-01 -0.96212404335E-01  0.10106384022E+00  0.51100000000E-03 0. -1.
         11    1    4    4    0    0  0.13149991267E-01  0.90156885802E-02 -0.21428893233E-01  0.26714481037E-01  0.51100000000E-03 0.  1.
</event>
<event>
 8    1  0.1078274E+005  0.1043930E+01  0.7957747E-01            NaN
         13   -1    0    0    0    0  0.00000000000E+00  0.00000000000E+00  0.74505805969E-08  0.10566000000E+00  0.10566000000E+00 0. -1.
     999900   -1    0    0    0    0 -0.00000000000E+00 -0.00000000000E+00 -0.74505805969E-08  0.93827000000E+00  0.93827000000E+00 0.  1.
     999902    2    1    2    0    0  0.59269453059E-02 -0.22239793459E-01  0.59244585792E-02  0.10201637150E+01  0.10198868413E+01 0.  0.
     999903    2    3    3    0    0 -0.14580662238E-01  0.75101514978E-01  0.10241034164E+00  0.12931837604E+00  0.19558400847E-01 0.  0.
         14    1    1    2    0    0 -0.59269453059E-02  0.22239793459E-01 -0.59244585792E-02  0.23766285010E-01  0.00000000000E+00 0.  1.
     999901    1    3    3    0    0  0.20507607543E-01 -0.97341308436E-01 -0.96485883062E-01  0.89084533895E+00  0.88000000000E+00 0.  1.
        -11    1    4    4    0    0 -0.18471474472E-01  0.45786592294E-01  0.62899907243E-01  0.79964159817E-01  0.51100000000E-03 0.  1.
         11    1    4    4    0    0  0.38908122341E-02  0.29314922684E-01  0.39510434398E-01  0.49354216225E-01  0.51100000000E-03 0. -1.
</event>
<event>
 8    1  0.1078274E+005  0.1043930E+01  0.7957747E-01            NaN
         13   -1    0    0    0    0  0.00000000000E+00  0.00000000000E+00  0.74505805969E-08  0.10566000000E+00  0.10566000000E+00 0.  1.
     999900   -1    0    0    0    0 -0.00000000000E+00 -0.00000000000E+00 -0.74505805969E-08  0.93827000000E+00  0.93827000000E+00 0.  1.
     999902    2    1    2    0    0  0.27989649737E-01 -0.12152558234E-01  0.63586762007E-02  0.10127604968E+01  0.10122807348E+01 0.  0.
     999903    2    3    3    0    0 -0.22110852055E-01  0.10682046680E+00 -0.50111543336E-01  0.12155147161E+00  0.19081183640E-01 0.  0.
         14    1    1    2    0    0 -0.27989649737E-01  0.12152558234E-01 -0.63586762007E-02  0.31169503157E-01  0.00000000000E+00 0. -1.
     999901    1    3    3    0    0  0.50100501793E-01 -0.11897302503E+00  0.56470219536E-01  0.89120902523E+00  0.88000000000E+00 0. -1.
        -11    1    4    4    0    0 -0.23490168786E-01  0.75136837239E-01 -0.39700746016E-01  0.88168830632E-01  0.51100000000E-03 0.  1.
         11    1    4    4    0    0  0.13793167310E-02  0.31683629559E-01 -0.10410797320E-01  0.33382640976E-01  0.51100000000E-03 0. -1.
</event>
<event>
 8    1  0.1078274E+005  0.1043930E+01  0.7957747E-01            NaN
         13   -1    0    0    0    0  0.00000000000E+00  0.00000000000E+00  0.74505805969E-08  0.10566000000E+00  0.10566000000E+00 0. -1.
     999900   -1    0    0    0    0 -0.00000000000E+00 -0.00000000000E+00 -0.74505805969E-08  0.93827000000E+00  0.93827000000E+00 0. -1.
     999902    2    1    2    0    0 -0.10724031529E-01  0.34714718200E-02  0.20279251069E-01  0.10207286209E+01  0.10204649007E+01 0.  0.
     999903    2    3    3    0    0 -0.86187525424E-01  0.69001579447E-01  0.72639198099E-01  0.13352486866E+00  0.19050720320E-01 0.  0.
         14    1    1    2    0    0  0.10724031529E-01 -0.34714718200E-02 -0.20279251069E-01  0.23201379113E-01  0.00000000000E+00 0.  1.
     999901    1    3    3    0    0  0.75463493896E-01 -0.65530107627E-01 -0.52359947030E-01  0.88720375223E+00  0.88000000000E+00 0.  1.
        -11    1    4    4    0    0 -0.22603974616E-01  0.17860437438E-01  0.94635935067E-02  0.30327472974E-01  0.51100000000E-03 0.  1.
         11    1    4    4    0    0 -0.63583550809E-01  0.51141142009E-01  0.63175604593E-01  0.10319739568E+00  0.51100000000E-03 0. -1.
</event>
<event>
 8    1  0.1078274E+005  0.1043930E+01  0.7957747E-01            NaN
         13   -1    0    0    0    0  0.00000000000E+00  0.00000000000E+00  0.74505805969E-08  0.10566000000E+00  0.10566000000E+00 0. -1.
     999900   -1    0    0    0    0 -0.00000000000E+00 -0.00000000000E+00 -0.74505805969E-08  0.93827000000E+00  0.93827000000E+00 0. -1.
     999902    2    1    2    0    0 -0.11806627940E-02  0.19978084328E-01 -0.11831492820E-01  0.10206813002E+01  0.10204164908E+01 0.  0.
     999903    2    3    3    0    0  0.35778520133E-01  0.92202076223E-01 -0.88501124694E-01  0.13362971287E+00  0.15592489435E-01 0.  0.
         14    1    1    2    0    0  0.11806627940E-02 -0.19978084328E-01  0.11831492820E-01  0.23248699758E-01  0.00000000000E+00 0. -1.
     999901    1    3    3    0    0 -0.36959182927E-01 -0.72223991895E-01  0.76669631874E-01  0.88705158737E+00  0.88000000000E+00 0.  1.
        -11    1    4    4    0    0  0.15255374975E-01  0.39107245250E-01 -0.47991273393E-01  0.63761481629E-01  0.51100000000E-03 0.  1.
         11    1    4    4    0    0  0.20523145158E-01  0.53094830974E-01 -0.40509851301E-01  0.69868231241E-01  0.51100000000E-03 0. -1.
</event>
<event>
 8    1  0.1078274E+005  0.1043930E+01  0.7957747E-01            NaN
         13   -1    0    0    0    0  0.00000000000E+00  0.00000000000E+00  0.74505805969E-08  0.10566000000E+00  0.10566000000E+00 0.  1.
     999900   -1    0    0    0    0 -0.00000000000E+00 -0.00000000000E+00 -0.74505805969E-08  0.93827000000E+00  0.93827000000E+00 0. -1.
     999902    2    1    2    0    0  0.29747664846E-02 -0.16818589498E-01  0.16443547348E-01  0.10202212582E+01  0.10199457394E+01 0.  0.
     999903    2    3    3    0    0  0.15129110339E-01 -0.11604297743E+00  0.60966488380E-01  0.13344310132E+00  0.19881800566E-01 0.  0.
         14    1    1    2    0    0 -0.29747664846E-02  0.16818589498E-01 -0.16443547348E-01  0.23708741800E-01  0.00000000000E+00 0. -1.
     999901    1    3    3    0    0 -0.12154343854E-01  0.99224387937E-01 -0.44522941033E-01  0.88677815688E+00  0.88000000000E+00 0.  1.
        -11    1    4    4    0    0  0.17720418936E-01 -0.10367808744E+00  0.49007176933E-01  0.11603931908E+00  0.51100000000E-03 0.  1.
         11    1    4    4    0    0 -0.25913085967E-02 -0.12364889999E-01  0.11959311447E-01  0.17403782239E-01  0.51100000000E-03 0. -1.
</event>
<event>
 8    1  0.1078274E+005  0.1043930E+01  0.7957747E-01            NaN
         13   -1    0    0    0    0  0.00000000000E+00  0.00000000000E+00  0.74505805969E-08  0.10566000000E+00  0.10566000000E+00 0. -1.
     999900   -1    0    0    0    0 -0.00000000000E+00 -0.00000000000E+00 -0.74505805969E-08  0.93827000000E+00  0.93827000000E+00 0.  1.
     999902    2    1    2    0    0 -0.35454533734E-02 -0.21780669010E-01 -0.12708420044E-01  0.10184648921E+01  0.10181464849E+01 0.  0.
     999903    2    3    3    0    0  0.90213276680E-01 -0.57329888296E-01 -0.72486460310E-01  0.13075555870E+00  0.20434720950E-01 0.  0.
         14    1    1    2    0    0  0.35454533734E-02  0.21780669010E-01  0.12708420044E-01  0.25465107935E-01  0.00000000000E+00 0. -1.
     999901    1    3    3    0    0 -0.93758730053E-01  0.35549219286E-01  0.59778040266E-01  0.88770933337E+00  0.88000000000E+00 0. -1.
        -11    1    4    4    0    0  0.10732630918E-01 -0.12648636073E-01 -0.18232826118E-01  0.24655109616E-01  0.51100000000E-03 0.  1.
         11    1    4    4    0    0  0.79480645762E-01 -0.44681252223E-01 -0.54253634191E-01  0.10610044908E+00  0.51100000000E-03 0. -1.
</event>
<event>
 7    1  0.1078274E+005  0.1043930E+01  0.7957747E-01            NaN
         13   -1    0    0    0    0  0.00000000000E+00  0.00000000000E+00  0.74505805969E-08  0.10566000000E+00  0.10566000000E+00 0.  1.
     999900   -1    0    0    0    0 -0.00000000000E+00 -0.00000000000E+00 -0.74505805969E-08  0.93827000000E+00  0.93827000000E+00 0.  1.
     999903    2    1    2    0    0 -0.14919365958E-01  0.46367745505E-01 -0.90628199830E-01  0.10562779539E+00  0.23899900642E-01 0.  0.
         14    1    1    2    0    0 -0.22298443970E-01  0.43146269206E-01  0.32260841433E-02  0.48674724126E-01  0.00000000000E+00 0.  1.
     999901    1    1    2    0    0  0.37217809928E-01 -0.89514014711E-01  0.87402115687E-01  0.88962748048E+00  0.88000000000E+00 0. -1.
        -11    1    3    3    0    0 -0.10412853822E-01  0.10585963910E-01 -0.11917495487E-01  0.19046731381E-01  0.51100000000E-03 0. -1.
         11    1    3    3    0    0 -0.45065121360E-02  0.35781781595E-01 -0.78710704343E-01  0.86581064009E-01  0.51100000000E-03 0.  1.
</event>
<event>
 8    1  0.1078274E+005  0.1043930E+01  0.7957747E-01            NaN
         13   -1    0    0    0    0  0.00000000000E+00  0.00000000000E+00  0.74505805969E-08  0.10566000000E+00  0.10566000000E+00 0.  1.
     999900   -1    0    0    0    0 -0.00000000000E+00 -0.00000000000E+00 -0.74505805969E-08  0.93827000000E+00  0.93827000000E+00 0. -1.
     999902    2    1    2    0    0 -0.45967150944E-03 -0.19815205328E-01 -0.13199463662E-01  0.10201165689E+01  0.10198385826E+01 0.  0.
     999903    2    3    3    0    0  0.50952705801E-01 -0.12136859110E+00 -0.90318618536E-02  0.13277577100E+00  0.14876750346E-01 0.  0.
         14    1    1    2    0    0  0.45967150944E-03  0.19815205328E-01  0.13199463662E-01  0.23813431106E-01  0.00000000000E+00 0. -1.
     999901    1    3    3    0    0 -0.51412377310E-01  0.10155338578E+00 -0.41676018084E-02  0.88734079789E+00  0.88000000000E+00 0. -1.
        -11    1    4    4    0    0  0.13148582208E-01 -0.38303069174E-01 -0.91034745336E-02  0.41510778019E-01  0.51100000000E-03 0. -1.
         11    1    4    4    0    0  0.37804123593E-01 -0.83065521931E-01  0.71612680081E-04  0.91264992980E-01  0.51100000000E-03 0.  1.
</event>
<event>
 8    1  0.1078274E+005  0.1043930E+01  0.7957747E-01            NaN
         13   -1    0    0    0    0  0.00000000000E+00  0.00000000000E+00  0.74505805969E-08  0.10566000000E+00  0.10566000000E+00 0. -1.
     999900   -1    0    0    0    0 -0.00000000000E+00 -0.00000000000E+00 -0.74505805969E-08  0.93827000000E+00  0.93827000000E+00 0.  1.
     999902    2    1    2    0    0 -0.20305657038E-02 -0.20626310976E-01 -0.12499221859E-01  0.10197267265E+01  0.10194394530E+01 0.  0.
     999903    2    3    3    0    0  0.16366600972E-01  0.24956427416E-01 -0.12609292767E+00  0.13106493943E+00  0.19695254301E-01 0.  0.
         14    1    1    2    0    0  0.20305657038E-02  0.20626310976E-01  0.12499221859E-01  0.24203273511E-01  0.00000000000E+00 0. -1.
     999901    1    3    3    0    0 -0.18397166676E-01 -0.45582738392E-01  0.11359370581E+00  0.88866178706E+00  0.88000000000E+00 0. -1.
        -11    1    4    4    0    0  0.11725674792E-01  0.16335004084E-01 -0.43892335845E-01  0.48281695027E-01  0.51100000000E-03 0.  1.
         11    1    4    4    0    0  0.46409261803E-02  0.86214233321E-02 -0.82200591826E-01  0.82783244402E-01  0.51100000000E-03 0. -1.
</event>
<event>
 8    1  0.1078274E+005  0.1043930E+01  0.7957747E-01            NaN
         13   -1    0    0    0    0  0.00000000000E+00  0.00000000000E+00  0.74505805969E-08  0.10566000000E+00  0.10566000000E+00 0.  1.
     999900   -1    0    0    0    0 -0.00000000000E+00 -0.00000000000E+00 -0.74505805969E-08  0.93827000000E+00  0.93827000000E+00 0.  1.
     999902    2    1    2    0    0  0.12121937764E-02 -0.22873475232E-01  0.39688871474E-02  0.10206831218E+01  0.10204183542E+01 0.  0.
     999903    2    3    3    0    0  0.39836316093E-02 -0.77821717313E-01 -0.10502335259E+00  0.13225400331E+00  0.19726322396E-01 0.  0.
         14    1    1    2    0    0 -0.12121937764E-02  0.22873475232E-01 -0.39688871474E-02  0.23246878245E-01  0.00000000000E+00 0.  1.
     999901    1    3    3    0    0 -0.27714378328E-02  0.54948242081E-01  0.10899223974E+00  0.88842911844E+00  0.88000000000E+00 0. -1.
        -11    1    4    4    0    0  0.10168044765E-01 -0.67457964372E-01 -0.91265840875E-01  0.11394595615E+00  0.51100000000E-03 0. -1.
         11    1    4    4    0    0 -0.61844131557E-02 -0.10363752941E-01 -0.13757511719E-01  0.18308047160E-01  0.51100000000E-03 0.  1.
</event>
<event>
 8    1  0.1078274E+005  0.1043930E+01  0.7957747E-01            NaN
         13   -1    0    0    0    0  0.00000000000E+00  0.00000000000E+00  0.74505805969E-08  0.10566000000E+00  0.10566000000E+00 0. -1.
     999900   -1    0    0    0    0 -0.00000000000E+00 -0.00000000000E+00 -0.74505805969E-08  0.93827000000E+00  0.93827000000E+00 0.  1.
     999902    2    1    2    0    0  0.16994004790E-01  0.13513872174E-01 -0.94339920351E-02  0.10202567842E+01  0.10199821001E+01 0.  0.
     999903    2    3    3    0    0 -0.54123916835E-01 -0.42312436196E-01 -0.10833699933E+00  0.13011289678E+00  0.21742121666E-01 0.  0.
         14    1    1    2    0    0 -0.16994004790E-01 -0.13513872174E-01  0.94339920351E-02  0.23673215786E-01  0.00000000000E+00 0. -1.
     999901    1    3    3    0    0  0.71117921625E-01  0.55826308370E-01  0.98903007295E-01  0.89014388743E+00  0.88000000000E+00 0. -1.
        -11    1    4    4    0    0 -0.20223633711E-01 -0.68988272551E-02 -0.21046615750E-01  0.29996838725E-01  0.51100000000E-03 0.  1.
         11    1    4    4    0    0 -0.33900283124E-01 -0.35413608941E-01 -0.87290383580E-01  0.10011605806E+00  0.51100000000E-03 0. -1.
</event>
<event>
 7    1  0.1078274E+005  0.1043930E+01  0.7957747E-01            NaN
         13   -1    0    0    0    0  0.00000000000E+00  0.00000000000E+00  0.74505805969E-08  0.10566000000E+00  0.10566000000E+00 0. -1.
     999900   -1    0    0    0    0 -0.00000000000E+00 -0.00000000000E+00 -0.74505805969E-08  0.93827000000E+00  0.93827000000E+00 0.  1.
     999903    2    1    2    0    0  0.65341069919E-01  0.61581134739E-01  0.34315631398E-01  0.99689864168E-01  0.26435107068E-01 0.  0.
         14    1    1    2    0    0 -0.14935755687E-01 -0.14856800323E-01  0.53212730431E-01  0.57231075419E-01  0.00000000000E+00 0. -1.
     999901    1    1    2    0    0 -0.50405314232E-01 -0.46724334416E-01 -0.87528361828E-01  0.88700906041E+00  0.88000000000E+00 0.  1.
        -11    1    3    3    0    0  0.13023092768E-01  0.19638620197E-01  0.20471603657E-01  0.31218969005E-01  0.51100000000E-03 0.  1.
         11    1    3    3    0    0  0.52317977151E-01  0.41942514543E-01  0.13844027741E-01  0.68470895163E-01  0.51100000000E-03 0. -1.
</event>
<event>
 8    1  0.1078274E+005  0.1043930E+01  0.7957747E-01            NaN
         13   -1    0    0    0    0  0.00000000000E+00  0.00000000000E+00  0.74505805969E-08  0.10566000000E+00  0.10566000000E+00 0.  1.
     999900   -1    0    0    0    0 -0.00000000000E+00 -0.00000000000E+00 -0.74505805969E-08  0.93827000000E+00  0.93827000000E+00 0. -1.
     999902    2    1    2    0    0 -0.77373903623E-02 -0.92456456310E-02  0.20279632301E-01  0.10203373601E+01  0.10200645645E+01 0.  0.
     999903    2    3    3    0    0 -0.21449886647E-01  0.81815655696E-01 -0.94240124235E-01  0.12815185929E+00  0.19692609535E-01 0.  0.
         14    1    1    2    0    0  0.77373903623E-02  0.92456456310E-02 -0.20279632301E-01  0.23592639934E-01  0.00000000000E+00 0. -1.
     999901    1    3    3    0    0  0.13712496285E-01 -0.91061301327E-01  0.11451975654E+00  0.89218550077E+00  0.88000000000E+00 0.  1.
        -11    1    4    4    0    0 -0.21582307487E-01  0.47501424897E-01 -0.51166142805E-01  0.73078154425E-01  0.51100000000E-03 0. -1.
         11    1    4    4    0    0  0.13242083944E-03  0.34314230799E-01 -0.43073981430E-01  0.55073704867E-01  0.51100000000E-03 0.  1.
</event>
<event>
 8    1  0.1078274E+005  0.1043930E+01  0.7957747E-01            NaN
         13   -1    0    0    0    0  0.00000000000E+00  0.00000000000E+00  0.74505805969E-08  0.10566000000E+00  0.10566000000E+00 0.  1.
     999900   -1    0    0    0    0 -0.00000000000E+00 -0.00000000000E+00 -0.74505805969E-08  0.93827000000E+00  0.93827000000E+00 0. -1.
     999902    2    1    2    0    0  0.41915813082E-02  0.10253097312E-01  0.22128077494E-01  0.10191843504E+01  0.10188838957E+01 0.  0.
     999903    2    3    3    0    0 -0.96906276426E-01 -0.21190295668E-01  0.82704626162E-01  0.13077060559E+00  0.20519284978E-01 0.  0.
         14    1    1    2    0    0 -0.41915813082E-02 -0.10253097312E-01 -0.22128077494E-01  0.24745649556E-01  0.00000000000E+00 0. -1.
     999901    1    3    3    0    0  0.10109785773E+00  0.31443392980E-01 -0.60576548668E-01  0.88841374486E+00  0.88000000000E+00 0. -1.
        -11    1    4    4    0    0 -0.47361795849E-01 -0.20814211835E-01  0.41266333588E-01  0.66178112161E-01  0.51100000000E-03 0. -1.
         11    1    4    4    0    0 -0.49544480577E-01 -0.37608383230E-03  0.41438292574E-01  0.64592493427E-01  0.51100000000E-03 0.  1.
</event>
<event>
 8    1  0.1078274E+005  0.1043930E+01  0.7957747E-01            NaN
         13   -1    0    0    0    0  0.00000000000E+00  0.00000000000E+00  0.74505805969E-08  0.10566000000E+00  0.10566000000E+00 0.  1.
     999900   -1    0    0    0    0 -0.00000000000E+00 -0.00000000000E+00 -0.74505805969E-08  0.93827000000E+00  0.93827000000E+00 0. -1.
     999902    2    1    2    0    0  0.21599921086E-01 -0.10198287032E-01  0.13537244699E-01  0.10164742421E+01  0.10161033738E+01 0.  0.
     999903    2    3    3    0    0  0.13231536516E-01 -0.12507565499E+00 -0.19875845444E-01  0.12833952587E+00  0.16030958792E-01 0.  0.
         14    1    1    2    0    0 -0.21599921086E-01  0.10198287032E-01 -0.13537244699E-01  0.27455757927E-01  0.00000000000E+00 0. -1.
     999901    1    3    3    0    0  0.83683845700E-02  0.11487736796E+00  0.33413090142E-01  0.88813471620E+00  0.88000000000E+00 0. -1.
        -11    1    4    4    0    0 -0.63398451005E-03 -0.50233429828E-01 -0.27258503337E-02  0.50313922424E-01  0.51100000000E-03 0.  1.
         11    1    4    4    0    0  0.13865521026E-01 -0.74842225160E-01 -0.17149995110E-01  0.78025603449E-01  0.51100000000E-03 0. -1.
</event>
<event>
 8    1  0.1078274E+005  0.1043930E+01  0.7957747E-01            NaN
         13   -1    0    0    0    0  0.00000000000E+00  0.00000000000E+00  0.74505805969E-08  0.10566000000E+00  0.10566000000E+00 0.  1.
     999900   -1    0    0    0    0 -0.00000000000E+00 -0.00000000000E+00 -0.74505805969E-08  0.93827000000E+00  0.93827000000E+00 0. -1.
     999902    2    1    2    0    0  0.13939263550E-01  0.12946138219E-01  0.12601941096E-01  0.10211108308E+01  0.10208558245E+01 0.  0.
     999903    2    3    3    0    0 -0.10323323683E+00  0.57562254053E-01 -0.50210232232E-01  0.13000737904E+00  0.20256774308E-01 0.  0.
         14    1    1    2    0    0 -0.13939263550E-01 -0.12946138219E-01 -0.12601941096E-01  0.22819169189E-01  0.00000000000E+00 0. -1.
     999901    1    3    3    0    0  0.11717250038E+00 -0.44616115833E-01  0.62812173328E-01  0.89110345177E+00  0.88000000000E+00 0.  1.
        -11    1    4    4    0    0 -0.73990874379E-01  0.40189206675E-01 -0.45367670694E-01  0.95646790275E-01  0.51100000000E-03 0.  1.
         11    1    4    4    0    0 -0.29242362455E-01  0.17373047377E-01 -0.48425615380E-02  0.34360588766E-01  0.51100000000E-03 0. -1.
</event>
<event>
 8    1  0.1078274E+005  0.1043930E+01  0.7957747E-01            NaN
         13   -1    0    0    0    0  0.00000000000E+00  0.00000000000E+00  0.74505805969E-08  0.10566000000E+00  0.10566000000E+00 0. -1.
     999900   -1    0    0    0    0 -0.00000000000E+00 -0.00000000000E+00 -0.74505805969E-08  0.93827000000E+00  0.93827000000E+00 0.  1.
     999902    2    1    2    0    0 -0.11630771571E-01  0.19196175656E-01 -0.61363438746E-02  0.10206615079E+01  0.10203962422E+01 0.  0.
     999903    2    3    3    0    0 -0.69811844562E-01 -0.18199963311E-01 -0.10879820391E+00  0.13199792368E+00  0.19531266655E-01 0.  0.
         14    1    1    2    0    0  0.11630771571E-01 -0.19196175656E-01  0.61363438746E-02  0.23268492072E-01  0.00000000000E+00 0. -1.
     999901    1    3    3    0    0  0.58181072990E-01  0.37396138967E-01  0.10266186003E+00  0.88866358425E+00  0.88000000000E+00 0. -1.
        -11    1    4    4    0    0 -0.51261771730E-01 -0.18939282588E-01 -0.68528997648E-01  0.87652440385E-01  0.51100000000E-03 0.  1.
         11    1    4    4    0    0 -0.18550072832E-01  0.73931927658E-03 -0.40269206257E-01  0.44345483295E-01  0.51100000000E-03 0. -1.
</event>
<event>
 8    1  0.1078274E+005  0.1043930E+01  0.7957747E-01            NaN
         13   -1    0    0    0    0  0.00000000000E+00  0.00000000000E+00  0.74505805969E-08  0.10566000000E+00  0.10566000000E+00 0.  1.
     999900   -1    0    0    0    0 -0.00000000000E+00 -0.00000000000E+00 -0.74505805969E-08  0.93827000000E+00  0.93827000000E+00 0.  1.
     999902    2    1    2    0    0  0.21045584908E-02  0.21457227994E-01 -0.88076099440E-02  0.10206401783E+01  0.10203744204E+01 0.  0.
     999903    2    3    3    0    0  0.38020662143E-01 -0.56936631066E-01 -0.10943067974E+00  0.13071851561E+00  0.20613246892E-01 0.  0.
         14    1    1    2    0    0 -0.21045584908E-02 -0.21457227994E-01  0.88076099440E-02  0.23289821652E-01  0.00000000000E+00 0. -1.
     999901    1    3    3    0    0 -0.35916103652E-01  0.78393859060E-01  0.10062306980E+00  0.88992166274E+00  0.88000000000E+00 0. -1.
        -11    1    4    4    0    0  0.75036779071E-02 -0.74954601541E-03 -0.11511426265E-01  0.13771022367E-01  0.51100000000E-03 0.  1.
         11    1    4    4    0    0  0.30516984235E-01 -0.56187085050E-01 -0.97919253474E-01  0.11694749324E+00  0.51100000000E-03 0. -1.
</event>
<event>
 8    1  0.1078274E+005  0.1043930E+01  0.7957747E-01            NaN
         13   -1    0    0    0    0  0.00000000000E+00  0.00000000000E+00  0.74505805969E-08  0.10566000000E+00  0.10566000000E+00 0. -1.
     999900   -1    0    0    0    0 -0.00000000000E+00 -0.00000000000E+00 -0.74505805969E-08  0.93827000000E+00  0.93827000000E+00 0. -1.
     999902    2    1    2    0    0 -0.18495085753E-01  0.11504218135E-01 -0.25152173886E-02  0.10220041807E+01  0.10217689582E+01 0.  0.
     999903    2    3    3    0    0  0.10817496187E+00  0.70406413023E-01  0.57245396899E-02  0.13094713255E+00  0.21342347510E-01 0.  0.
         14    1    1    2    0    0  0.18495085753E-01 -0.11504218135E-01  0.25152173886E-02  0.21925819265E-01  0.00000000000E+00 0.  1.
     999901    1    3    3    0    0 -0.12667004762E+00 -0.58902194888E-01 -0.82397570785E-02  0.89105704819E+00  0.88000000000E+00 0. -1.
        -11    1    4    4    0    0  0.38139494163E-01  0.17838842237E-01 -0.62224045488E-02  0.42565534729E-01  0.51100000000E-03 0. -1.
         11    1    4    4    0    0  0.70035467709E-01  0.52567570785E-01  0.11946944239E-01  0.88381597819E-01  0.51100000000E-03 0.  1.
</event>
<event>
 8    1  0.1078274E+005  0.1043930E+01  0.7957747E-01            NaN
         13   -1    0    0    0    0  0.00000000000E+00  0.00000000000E+00  0.74505805969E-08  0.10566000000E+00  0.10566000000E+00 0.  1.
     999900   -1    0    0    0    0 -0.00000000000E+00 -0.00000000000E+00 -0.74505805969E-08  0.93827000000E+00  0.93827000000E+00 0.  1.
     999902    2    1    2    0    0 -0.26300726466E-01  0.12223091080E-03  0.21648993315E-01  0.10098650317E+01  0.10092903250E+01 0.  0.
     999903    2    3    3    0    0 -0.44726352732E-02 -0.84741485274E-01  0.87714795677E-01  0.12304881279E+00  0.15684424020E-01 0.  0.
         14    1    1    2    0    0  0.26300726466E-01 -0.12223091080E-03 -0.21648993315E-01  0.34064968290E-01  0.00000000000E+00 0. -1.
     999901    1    3    3    0    0 -0.21828091193E-01  0.84863716185E-01 -0.66065802362E-01  0.88681621892E+00  0.88000000000E+00 0.  1.
        -11    1    4    4    0    0 -0.87101569882E-02 -0.63798817806E-01  0.59679351627E-01  0.87795456146E-01  0.51100000000E-03 0. -1.
         11    1    4    4    0    0  0.42375217150E-02 -0.20942667468E-01  0.28035444049E-01  0.35253356649E-01  0.51100000000E-03 0.  1.
</event>
<event>
 8    1  0.1078274E+005  0.1043930E+01  0.7957747E-01            NaN
         13   -1    0    0    0    0  0.00000000000E+00  0.00000000000E+00  0.74505805969E-08  0.10566000000E+00  0.10566000000E+00 0.  1.
     999900   -1    0    0    0    0 -0.00000000000E+00 -0.00000000000E+00 -0.74505805969E-08  0.93827000000E+00  0.93827000000E+00 0.  1.
     999902    2    1    2    0    0 -0.11103353396E-01 -0.20122039271E-01 -0.56671967490E-02  0.10202593845E+01  0.10199847614E+01 0.  0.
     999903    2    3    3    0    0 -0.87223906835E-01  0.25209116217E-01 -0.93054829338E-01  0.13150415908E+00  0.19764440991E-01 0.  0.
         14    1    1    2    0    0  0.11103353396E-01  0.20122039271E-01  0.56671967490E-02  0.23670615540E-01  0.00000000000E+00 0.  1.
     999901    1    3    3    0    0  0.76120553439E-01 -0.45331155489E-01  0.87387632589E-01  0.88875522538E+00  0.88000000000E+00 0. -1.
        -11    1    4    4    0    0 -0.27940031449E-01  0.16644990121E-01 -0.39352111595E-01  0.51054391207E-01  0.51100000000E-03 0.  1.
         11    1    4    4    0    0 -0.59283875386E-01  0.85641260959E-02 -0.53702717743E-01  0.80449767871E-01  0.51100000000E-03 0. -1.
</event>
<event>
 8    1  0.1078274E+005  0.1043930E+01  0.7957747E-01            NaN
         13   -1    0    0    0    0  0.00000000000E+00  0.00000000000E+00  0.74505805969E-08  0.10566000000E+00  0.10566000000E+00 0.  1.
     999900   -1    0    0    0    0 -0.00000000000E+00 -0.00000000000E+00 -0.74505805969E-08  0.93827000000E+00  0.93827000000E+00 0. -1.
     999902    2    1    2    0    0  0.23070905078E-02  0.15499049109E-01  0.18258053262E-01  0.10198696654E+01  0.10195858153E+01 0.  0.
     999903    2    3    3    0    0  0.99022432145E-01  0.82898766547E-01 -0.98415483838E-02  0.13156444379E+00  0.23123564410E-01 0.  0.
         14    1    1    2    0    0 -0.23070905078E-02 -0.15499049109E-01 -0.18258053262E-01  0.24060334553E-01  0.00000000000E+00 0. -1.
     999901    1    3    3    0    0 -0.96715341637E-01 -0.67399717437E-01  0.28099601646E-01  0.88830522166E+00  0.88000000000E+00 0. -1.
        -11    1    4    4    0    0  0.72653143722E-01  0.46898232099E-01 -0.88180658712E-02  0.86924926652E-01  0.51100000000E-03 0. -1.
         11    1    4    4    0    0  0.26369288423E-01  0.36000534447E-01 -0.10234825126E-02  0.44639517133E-01  0.51100000000E-03 0.  1.
</event>
<event>
 8    1  0.1078274E+005  0.1043930E+01  0.7957747E-01            NaN
         13   -1    0    0    0    0  0.00000000000E+00  0.00000000000E+00  0.74505805969E-08  0.10566000000E+00  0.10566000000E+00 0.  1.
     999900   -1    0    0    0    0 -0.00000000000E+00 -0.00000000000E+00 -0.74505805969E-08  0.93827000000E+00  0.93827000000E+00 0. -1.
     999902    2    1    2    0    0 -0.67333073971E-02 -0.19802632010E-01 -0.28772084602E-01  0.10083587403E+01  0.10077311321E+01 0.  0.
     999903    2    3    3    0    0 -0.59554579748E-01  0.10004205248E+00 -0.23389780379E-03  0.11820860505E+00  0.20446500104E-01 0.  0.
         14    1    1    2    0    0  0.67333073971E-02  0.19802632010E-01  0.28772084602E-01  0.35571259683E-01  0.00000000000E+00 0.  1.
     999901    1    3    3    0    0  0.52821272350E-01 -0.11984468449E+00 -0.28538186799E-01  0.89015013527E+00  0.88000000000E+00 0. -1.
        -11    1    4    4    0    0 -0.31904418234E-01  0.34171594945E-01  0.82936472869E-03  0.46760440233E-01  0.51100000000E-03 0. -1.
         11    1    4    4    0    0 -0.27650161514E-01  0.65870457533E-01 -0.10632625325E-02  0.71448164816E-01  0.51100000000E-03 0.  1.
</event>
<event>
 8    1  0.1078274E+005  0.1043930E+01  0.7957747E-01            NaN
         13   -1    0    0    0    0  0.00000000000E+00  0.00000000000E+00  0.74505805969E-08  0.10566000000E+00  0.10566000000E+00 0.  1.
     999900   -1    0    0    0    0 -0.00000000000E+00 -0.00000000000E+00 -0.74505805969E-08  0.93827000000E+00  0.93827000000E+00 0.  1.
     999902    2    1    2    0    0  0.16013939176E-01  0.17863434125E-01  0.69065941284E-03  0.10199294680E+01  0.10196470439E+01 0.  0.
     999903    2    3    3    0    0  0.70260638848E-01  0.11089473455E+00 -0.91514520295E-02  0.13330982324E+00  0.21296956946E-01 0.  0.
         14    1    1    2    0    0 -0.16013939176E-01 -0.17863434125E-01 -0.69065941284E-03  0.24000532017E-01  0.00000000000E+00 0.  1.
     999901    1    3    3    0    0 -0.54246699672E-01 -0.93031300430E-01  0.98421114424E-02  0.88661964474E+00  0.88000000000E+00 0. -1.
        -11    1    4    4    0    0  0.38978424409E-01  0.57695413614E-01 -0.15287252222E-01  0.71288424888E-01  0.51100000000E-03 0.  1.
         11    1    4    4    0    0  0.31282214439E-01  0.53199320941E-01  0.61358001922E-02  0.62021398354E-01  0.51100000000E-03 0. -1.
</event>
<event>
 8    1  0.1078274E+005  0.1043930E+01  0.7957747E-01            NaN
         13   -1    0    0    0    0  0.00000000000E+00  0.00000000000E+00  0.74505805969E-08  0.10566000000E+00  0.10566000000E+00 0. -1.
     999900   -1    0    0    0    0 -0.00000000000E+00 -0.00000000000E+00 -0.74505805969E-08  0.93827000000E+00  0.93827000000E+00 0. -1.
     999902    2    1    2    0    0  0.21776786272E-01 -0.96552866577E-02  0.61679318786E-02  0.10193231643E+01  0.10190261120E+01 0.  0.
     999903    2    3    3    0    0 -0.88431153388E-01  0.85447905545E-01  0.25207583139E-01  0.12716123085E+00  0.20325917741E-01 0.  0.
         14    1    1    2    0    0 -0.21776786272E-01  0.96552866577E-02 -0.61679318786E-02  0.24606835726E-01  0.00000000000E+00 0.  1.
     999901    1    3    3    0    0  0.11020793966E+00 -0.95103192203E-01 -0.19039651261E-01  0.89216193342E+00  0.88000000000E+00 0.  1.
        -11    1    4    4    0    0 -0.18819115249E-01  0.30654766640E-01  0.92517158169E-02  0.37144705990E-01  0.51100000000E-03 0. -1.
         11    1    4    4    0    0 -0.69612038139E-01  0.54793138906E-01  0.15955867322E-01  0.90016524860E-01  0.51100000000E-03 0.  1.
</event>
<event>
 8    1  0.1078274E+005  0.1043930E+01  0.7957747E-01            NaN
         13   -1    0    0    0    0  0.00000000000E+00  0.00000000000E+00  0.74505805969E-08  0.10566000000E+00  0.10566000000E+00 0.  1.
     999900   -1    0    0    0    0 -0.00000000000E+00 -0.00000000000E+00 -0.74505805969E-08  0.93827000000E+00  0.93827000000E+00 0. -1.
     999902    2    1    2    0    0  0.10591595138E-01  0.19724353697E-01 -0.65417199009E-02  0.10206056326E+01  0.10203390766E+01 0.  0.
     999903    2    3    3    0    0  0.88813173057E-01  0.97756693003E-01 -0.13747031663E-02  0.13368153250E+00  0.20608531940E-01 0.  0.
         14    1    1    2    0    0 -0.10591595138E-01 -0.19724353697E-01  0.65417199009E-02  0.23324367421E-01  0.00000000000E+00 0.  1.
     999901    1    3    3    0    0 -0.78221577918E-01 -0.78032339306E-01 -0.51670167347E-02  0.88692410007E+00  0.88000000000E+00 0. -1.
        -11    1    4    4    0    0  0.13279739693E-01  0.10368632117E-01 -0.64840140823E-02  0.18059999388E-01  0.51100000000E-03 0. -1.
         11    1    4    4    0    0  0.75533433364E-01  0.87388060886E-01  0.51093109161E-02  0.11562153312E+00  0.51100000000E-03 0.  1.
</event>
<event>
 8    1  0.1078274E+005  0.1043930E+01  0.7957747E-01            NaN
         13   -1    0    0    0    0  0.00000000000E+00  0.00000000000E+00  0.74505805969E-08  0.10566000000E+00  0.10566000000E+00 0. -1.
     999900   -1    0    0    0    0 -0.00000000000E+00 -0.00000000000E+00 -0.74505805969E-08  0.93827000000E+00  0.93827000000E+00 0.  1.
     999902    2    1    2    0    0 -0.17593068918E-01 -0.13296329942E-01  0.82141376576E-02  0.10203974582E+01  0.10201260669E+01 0.  0.
     999903    2    3    3    0    0  0.41955668630E-01  0.55236671245E-01 -0.10613103464E+00  0.12836738991E+00  0.20075415224E-01 0.  0.
         14    1    1    2    0    0  0.17593068918E-01  0.13296329942E-01 -0.82141376576E-02  0.23532541753E-01  0.00000000000E+00 0. -1.
     999901    1    3    3    0    0 -0.59548737548E-01 -0.68533001187E-01  0.11434517230E+00  0.89203006834E+00  0.88000000000E+00 0.  1.
        -11    1    4    4    0    0  0.14391954206E-01  0.64817427019E-02 -0.29342617349E-01  0.33322539642E-01  0.51100000000E-03 0. -1.
         11    1    4    4    0    0  0.27563714424E-01  0.48754928543E-01 -0.76788417295E-01  0.95044850264E-01  0.51100000000E-03 0.  1.
</event>
<event>
 8    1  0.1078274E+005  0.1043930E+01  0.7957747E-01            NaN
         13   -1    0    0    0    0  0.00000000000E+00  0.00000000000E+00  0.74505805969E-08  0.10566000000E+00  0.10566000000E+00 0.  1.
     999900   -1    0    0    0    0 -0.00000000000E+00 -0.00000000000E+00 -0.74505805969E-08  0.93827000000E+00  0.93827000000E+00 0. -1.
     999902    2    1    2    0    0 -0.17380866181E-01  0.13301383884E-01  0.75777445586E-02  0.10207687493E+01  0.10205059510E+01 0.  0.
     999903    2    3    3    0    0 -0.48046631871E-01 -0.13229077650E-01  0.12121316654E+00  0.13253608623E+00  0.19740696049E-01 0.  0.
         14    1    1    2    0    0  0.17380866181E-01 -0.13301383884E-01 -0.75777445586E-02  0.23161250723E-01  0.00000000000E+00 0. -1.
     999901    1    3    3    0    0  0.30665765689E-01  0.26530461534E-01 -0.11363542198E+00  0.88823266305E+00  0.88000000000E+00 0. -1.
        -11    1    4    4    0    0 -0.12710080046E-02 -0.31651355643E-02  0.23331972293E-01  0.23585495470E-01  0.51100000000E-03 0.  1.
         11    1    4    4    0    0 -0.46775623866E-01 -0.10063942085E-01  0.97881194249E-01  0.10895059076E+00  0.51100000000E-03 0. -1.
</event>
<event>
 8    1  0.1078274E+005  0.1043930E+01  0.7957747E-01            NaN
         13   -1    0    0    0    0  0.00000000000E+00  0.00000000000E+00  0.74505805969E-08  0.10566000000E+00  0.10566000000E+00 0. -1.
     999900   -1    0    0    0    0 -0.00000000000E+00 -0.00000000000E+00 -0.74505805969E-08  0.93827000000E+00  0.93827000000E+00 0.  1.
     999902    2    1    2    0    0  0.97233457247E-02  0.15413882370E-01 -0.14877319645E-01  0.10204041448E+01  0.10201329094E+01 0.  0.
     999903    2    3    3    0    0  0.98797264549E-01  0.85404811140E-01  0.12627309783E-01  0.13271647579E+00  0.19983311662E-01 0.  0.
         14    1    1    2    0    0 -0.97233457247E-02 -0.15413882370E-01  0.14877319645E-01  0.23525855173E-01  0.00000000000E+00 0. -1.
     999901    1    3    3    0    0 -0.89073918824E-01 -0.69990928770E-01 -0.27504629428E-01  0.88768766904E+00  0.88000000000E+00 0.  1.
        -11    1    4    4    0    0  0.48227522214E-01  0.32819770884E-01  0.12953642364E-01  0.59758591276E-01  0.51100000000E-03 0.  1.
         11    1    4    4    0    0  0.50569742335E-01  0.52585040255E-01 -0.32633258063E-03  0.72957884512E-01  0.51100000000E-03 0. -1.
</event>
<event>
 8    1  0.1078274E+005  0.1043930E+01  0.7957747E-01            NaN
         13   -1    0    0    0    0  0.00000000000E+00  0.00000000000E+00  0.74505805969E-08  0.10566000000E+00  0.10566000000E+00 0.  1.
     999900   -1    0    0    0    0 -0.00000000000E+00 -0.00000000000E+00 -0.74505805969E-08  0.93827000000E+00  0.93827000000E+00 0.  1.
     999902    2    1    2    0    0 -0.17214067608E-01 -0.35071034795E-02 -0.15411999964E-01  0.10205600697E+01  0.10202924592E+01 0.  0.
     999903    2    3    3    0    0  0.35427858347E-01 -0.91038312120E-01 -0.86260666853E-01  0.13182365297E+00  0.19835962692E-01 0.  0.
         14    1    1    2    0    0  0.17214067608E-01  0.35071034795E-02  0.15411999964E-01  0.23369930281E-01  0.00000000000E+00 0.  1.
     999901    1    3    3    0    0 -0.52641925955E-01  0.87531208641E-01  0.70848666889E-01  0.88873641675E+00  0.88000000000E+00 0. -1.
        -11    1    4    4    0    0  0.27835795579E-01 -0.70764986859E-01 -0.55231490727E-01  0.93985602991E-01  0.51100000000E-03 0.  1.
         11    1    4    4    0    0  0.75920627676E-02 -0.20273325262E-01 -0.31029176126E-01  0.37838049980E-01  0.51100000000E-03 0. -1.
</event>
<event>
 8    1  0.1078274E+005  0.1043930E+01  0.7957747E-01            NaN
         13   -1    0    0    0    0  0.00000000000E+00  0.00000000000E+00  0.74505805969E-08  0.10566000000E+00  0.10566000000E+00 0.  1.
     999900   -1    0    0    0    0 -0.00000000000E+00 -0.00000000000E+00 -0.74505805969E-08  0.93827000000E+00  0.93827000000E+00 0.  1.
     999902    2    1    2    0    0 -0.16455904232E-01 -0.19696951786E-02  0.16661471345E-01  0.10204293381E+01  0.10201586901E+01 0.  0.
     999903    2    3    3    0    0 -0.65681255793E-01 -0.80144349470E-01  0.81356290218E-01  0.13323159722E+00  0.19866263465E-01 0.  0.
         14    1    1    2    0    0  0.16455904232E-01  0.19696951786E-02 -0.16661471345E-01  0.23500661918E-01  0.00000000000E+00 0.  1.
     999901    1    3    3    0    0  0.49225351561E-01  0.78174654291E-01 -0.64694818874E-01  0.88719774087E+00  0.88000000000E+00 0.  1.
        -11    1    4    4    0    0 -0.40394740438E-02 -0.14156055507E-01  0.72642012370E-02  0.16423793675E-01  0.51100000000E-03 0.  1.
         11    1    4    4    0    0 -0.61641781749E-01 -0.65988293962E-01  0.74092088982E-01  0.11680780354E+00  0.51100000000E-03 0. -1.
</event>
<event>
 8    1  0.1078274E+005  0.1043930E+01  0.7957747E-01            NaN
         13   -1    0    0    0    0  0.00000000000E+00  0.00000000000E+00  0.74505805969E-08  0.10566000000E+00  0.10566000000E+00 0. -1.
     999900   -1    0    0    0    0 -0.00000000000E+00 -0.00000000000E+00 -0.74505805969E-08  0.93827000000E+00  0.93827000000E+00 0.  1.
     999902    2    1    2    0    0  0.63250011606E-02  0.14104219121E-01  0.15332435640E-01  0.10221580405E+01  0.10219261429E+01 0.  0.
     999903    2    3    3    0    0  0.22082709516E-01 -0.67440401572E-01  0.11085118361E+00  0.13310142717E+00  0.19802807490E-01 0.  0.
         14    1    1    2    0    0 -0.63250011606E-02 -0.14104219121E-01 -0.15332435640E-01  0.21771959474E-01  0.00000000000E+00 0.  1.
     999901    1    3    3    0    0 -0.15757708356E-01  0.81544620692E-01 -0.95518747965E-01  0.88905661335E+00  0.88000000000E+00 0.  1.
        -11    1    4    4    0    0  0.27328581616E-02 -0.39969887614E-01  0.59652283548E-01  0.71859004189E-01  0.51100000000E-03 0. -1.
         11    1    4    4    0    0  0.19349851355E-01 -0.27470513958E-01  0.51198900057E-01  0.61242422982E-01  0.51100000000E-03 0.  1.
</event>
<event>
 8    1  0.1078274E+005  0.1043930E+01  0.7957747E-01            NaN
         13   -1    0    0    0    0  0.00000000000E+00  0.00000000000E+00  0.74505805969E-08  0.10566000000E+00  0.10566000000E+00 0. -1.
     999900   -1    0    0    0    0 -0.00000000000E+00 -0.00000000000E+00 -0.74505805969E-08  0.93827000000E+00  0.93827000000E+00 0.  1.
     999902    2    1    2    0    0 -0.16956720144E-01 -0.16952015574E-01 -0.33972800772E-02  0.10197134209E+01  0.10194258277E+01 0.  0.
     999903    2    3    3    0    0 -0.10808660443E+00 -0.74532389160E-01  0.18827489635E-02  0.13311992110E+00  0.21899259312E-01 0.  0.
         14    1    1    2    0    0  0.16956720144E-01  0.16952015574E-01  0.33972800772E-02  0.24216579073E-01  0.00000000000E+00 0. -1.
     999901    1    3    3    0    0  0.91129884286E-01  0.57580373586E-01 -0.52800290407E-02  0.88659349983E+00  0.88000000000E+00 0.  1.
        -11    1    4    4    0    0 -0.64251634637E-01 -0.54004791066E-01  0.80617396588E-02  0.84321069602E-01  0.51100000000E-03 0.  1.
         11    1    4    4    0    0 -0.43834969793E-01 -0.20527598094E-01 -0.61789906953E-02  0.48798851496E-01  0.51100000000E-03 0. -1.
</event>
<event>
 8    1  0.1078274E+005  0.1043930E+01  0.7957747E-01            NaN
         13   -1    0    0    0    0  0.00000000000E+00  0.00000000000E+00  0.74505805969E-08  0.10566000000E+00  0.10566000000E+00 0. -1.
     999900   -1    0    0    0    0 -0.00000000000E+00 -0.00000000000E+00 -0.74505805969E-08  0.93827000000E+00  0.93827000000E+00 0.  1.
     999902    2    1    2    0    0 -0.33390727556E-02  0.12273723017E-01 -0.20429329712E-01  0.10198644396E+01  0.10195804647E+01 0.  0.
     999903    2    3    3    0    0  0.12243356291E+00 -0.37396502636E-01 -0.44452242911E-02  0.12939188035E+00  0.18276294651E-01 0.  0.
         14    1    1    2    0    0  0.33390727556E-02 -0.12273723017E-01  0.20429329712E-01  0.24065560373E-01  0.00000000000E+00 0. -1.
     999901    1    3    3    0    0 -0.12577263566E+00  0.49670225653E-01 -0.15984105421E-01  0.89047255928E+00  0.88000000000E+00 0. -1.
        -11    1    4    4    0    0  0.51068180884E-01 -0.25066768379E-01 -0.20816651561E-02  0.56928871643E-01  0.51100000000E-03 0. -1.
         11    1    4    4    0    0  0.71365382023E-01 -0.12329734257E-01 -0.23635591350E-02  0.72463008708E-01  0.51100000000E-03 0.  1.
</event>
<event>
 8    1  0.1083949E+005  0.1043930E+01  0.7957747E-01            NaN
         13   -1    0    0    0    0  0.00000000000E+00  0.00000000000E+00  0.74505805969E-08  0.10566000000E+00  0.10566000000E+00 0.  1.
     999900   -1    0    0    0    0 -0.00000000000E+00 -0.00000000000E+00 -0.74505805969E-08  0.93827000000E+00  0.93827000000E+00 0. -1.
     999902    2    1    2    0    0  0.19373231635E-01  0.11449444964E-01 -0.25761171835E-02  0.10212794311E+01  0.10210282210E+01 0.  0.
     999903    2    3    3    0    0  0.86451771074E-01  0.10062289712E+00  0.42860578072E-02  0.13420642139E+00  0.19852382856E-01 0.  0.
         14    1    1    2    0    0 -0.19373231635E-01 -0.11449444964E-01  0.25761171835E-02  0.22650568949E-01  0.00000000000E+00 0. -1.
     999901    1    3    3    0    0 -0.67078539439E-01 -0.89173452152E-01 -0.68621749907E-02  0.88707300966E+00  0.88000000000E+00 0.  1.
        -11    1    4    4    0    0  0.43168099595E-01  0.64824068255E-01  0.17409987426E-03  0.77884119559E-01  0.51100000000E-03 0. -1.
         11    1    4    4    0    0  0.43283671479E-01  0.35798828862E-01  0.41119579329E-02  0.56322301832E-01  0.51100000000E-03 0.  1.
</event>
<event>
 8    1  0.1078274E+005  0.1043930E+01  0.7957747E-01            NaN
         13   -1    0    0    0    0  0.00000000000E+00  0.00000000000E+00  0.74505805969E-08  0.10566000000E+00  0.10566000000E+00 0. -1.
     999900   -1    0    0    0    0 -0.00000000000E+00 -0.00000000000E+00 -0.74505805969E-08  0.93827000000E+00  0.93827000000E+00 0. -1.
     999902    2    1    2    0    0 -0.59026171678E-03  0.42265784650E-04 -0.23183531795E-01  0.10207389168E+01  0.10204754332E+01 0.  0.
     999903    2    3    3    0    0  0.22169866232E-02  0.12904122050E+00  0.68620118220E-02  0.13082243436E+00  0.20269940961E-01 0.  0.
         14    1    1    2    0    0  0.59026171678E-03 -0.42265784650E-04  0.23183531795E-01  0.23191083239E-01  0.00000000000E+00 0. -1.
     999901    1    3    3    0    0 -0.28072483400E-02 -0.12899895472E+00 -0.30045543617E-01  0.88991648240E+00  0.88000000000E+00 0.  1.
        -11    1    4    4    0    0  0.97257734573E-02  0.67652043775E-01  0.89831390172E-02  0.68937272966E-01  0.51100000000E-03 0.  1.
         11    1    4    4    0    0 -0.75087868341E-02  0.61389176727E-01 -0.21211271952E-02  0.61885161393E-01  0.51100000000E-03 0. -1.
</event>
<event>
 8    1  0.1078274E+005  0.1043930E+01  0.7957747E-01            NaN
         13   -1    0    0    0    0  0.00000000000E+00  0.00000000000E+00  0.74505805969E-08  0.10566000000E+00  0.10566000000E+00 0.  1.
     999900   -1    0    0    0    0 -0.00000000000E+00 -0.00000000000E+00 -0.74505805969E-08  0.93827000000E+00  0.93827000000E+00 0. -1.
     999902    2    1    2    0    0  0.30402851236E-02  0.21779641386E-01  0.70307604016E-02  0.10208426072E+01  0.10205815014E+01 0.  0.
     999903    2    3    3    0    0 -0.20173695368E-01 -0.12119895728E+00 -0.31180447070E-01  0.12818261321E+00  0.19036722947E-01 0.  0.
         14    1    1    2    0    0 -0.30402851236E-02 -0.21779641386E-01 -0.70307604016E-02  0.23087392758E-01  0.00000000000E+00 0. -1.
     999901    1    3    3    0    0  0.23213980491E-01  0.14297859866E+00  0.38211207472E-01  0.89265999403E+00  0.88000000000E+00 0.  1.
        -11    1    4    4    0    0 -0.75344165673E-02 -0.94199297827E-01 -0.22851567757E-01  0.97225153196E-01  0.51100000000E-03 0.  1.
         11    1    4    4    0    0 -0.12639278800E-01 -0.26999659450E-01 -0.83288793139E-02  0.30957460016E-01  0.51100000000E-03 0. -1.
</event>
<event>
 8    1  0.1078274E+005  0.1043930E+01  0.7957747E-01            NaN
         13   -1    0    0    0    0  0.00000000000E+00  0.00000000000E+00  0.74505805969E-08  0.10566000000E+00  0.10566000000E+00 0.  1.
     999900   -1    0    0    0    0 -0.00000000000E+00 -0.00000000000E+00 -0.74505805969E-08  0.93827000000E+00  0.93827000000E+00 0. -1.
     999902    2    1    2    0    0 -0.16138493398E-01 -0.14649709999E-01  0.71383869247E-02  0.10209948405E+01  0.10207372056E+01 0.  0.
     999903    2    3    3    0    0 -0.43037646376E-01  0.80672455244E-01 -0.90348612625E-01  0.13008878785E+00  0.19998421934E-01 0.  0.
         14    1    1    2    0    0  0.16138493398E-01  0.14649709999E-01 -0.71383869247E-02  0.22935159474E-01  0.00000000000E+00 0. -1.
     999901    1    3    3    0    0  0.26899152978E-01 -0.95322165242E-01  0.97486999550E-01  0.89090605268E+00  0.88000000000E+00 0.  1.
        -11    1    4    4    0    0 -0.30150861115E-01  0.45913392442E-01 -0.65368243353E-01  0.85383736107E-01  0.51100000000E-03 0. -1.
         11    1    4    4    0    0 -0.12886785261E-01  0.34759062802E-01 -0.24980369272E-01  0.44705051741E-01  0.51100000000E-03 0.  1.
</event>
<event>
 7    1  0.1417235E+005  0.1043930E+01  0.7957747E-01            NaN
         13   -1    0    0    0    0  0.00000000000E+00  0.00000000000E+00  0.74505805969E-08  0.10566000000E+00  0.10566000000E+00 0.  1.
     999900   -1    0    0    0    0 -0.00000000000E+00 -0.00000000000E+00 -0.74505805969E-08  0.93827000000E+00  0.93827000000E+00 0.  1.
     999903    2    1    2    0    0 -0.99433756561E-01 -0.24639325250E-02  0.54617204659E-01  0.11519275737E+00  0.19829003967E-01 0.  0.
         14    1    1    2    0    0  0.35098297958E-01  0.35212043595E-02  0.24348024153E-01  0.42861587463E-01  0.00000000000E+00 0.  1.
     999901    1    1    2    0    0  0.64335458603E-01 -0.10572718344E-02 -0.78965228812E-01  0.88587565517E+00  0.88000000000E+00 0.  1.
        -11    1    3    3    0    0 -0.50171179934E-01 -0.40384251338E-02  0.38373149843E-01  0.63294675316E-01  0.51100000000E-03 0.  1.
         11    1    3    3    0    0 -0.49262576627E-01  0.15744926088E-02  0.16244054815E-01  0.51898082053E-01  0.51100000000E-03 0. -1.
</event>
<event>
 8    1  0.1078274E+005  0.1043930E+01  0.7957747E-01            NaN
         13   -1    0    0    0    0  0.00000000000E+00  0.00000000000E+00  0.74505805969E-08  0.10566000000E+00  0.10566000000E+00 0.  1.
     999900   -1    0    0    0    0 -0.00000000000E+00 -0.00000000000E+00 -0.74505805969E-08  0.93827000000E+00  0.93827000000E+00 0.  1.
     999902    2    1    2    0    0  0.16607899246E-01  0.38644630839E-02 -0.15149952293E-01  0.10211204089E+01  0.10208656190E+01 0.  0.
     999903    2    3    3    0    0  0.82095293286E-01  0.63674749122E-01  0.78566809063E-01  0.13171122271E+00  0.19519012427E-01 0.  0.
         14    1    1    2    0    0 -0.16607899246E-01 -0.38644630839E-02  0.15149952293E-01  0.22809591114E-01  0.00000000000E+00 0. -1.
     999901    1    3    3    0    0 -0.65487394041E-01 -0.59810286038E-01 -0.93716761356E-01  0.88940918618E+00  0.88000000000E+00 0.  1.
        -11    1    4    4    0    0  0.28371904174E-01  0.20738381395E-01  0.15556324104E-01  0.38435735325E-01  0.51100000000E-03 0.  1.
         11    1    4    4    0    0  0.53723389112E-01  0.42936367727E-01  0.63010484959E-01  0.93275487386E-01  0.51100000000E-03 0. -1.
</event>
<event>
 8    1  0.1078274E+005  0.1043930E+01  0.7957747E-01            NaN
         13   -1    0    0    0    0  0.00000000000E+00  0.00000000000E+00  0.74505805969E-08  0.10566000000E+00  0.10566000000E+00 0.  1.
     999900   -1    0    0    0    0 -0.00000000000E+00 -0.00000000000E+00 -0.74505805969E-08  0.93827000000E+00  0.93827000000E+00 0.  1.
     999902    2    1    2    0    0  0.12401291421E-02 -0.57862777431E-02 -0.22984299045E-01  0.10201961227E+01  0.10199200124E+01 0.  0.
     999903    2    3    3    0    0 -0.12819180399E+00  0.62138742089E-02  0.82980657734E-02  0.13009769255E+00  0.19616341896E-01 0.  0.
         14    1    1    2    0    0 -0.12401291421E-02  0.57862777431E-02  0.22984299045E-01  0.23733877327E-01  0.00000000000E+00 0.  1.
     999901    1    3    3    0    0  0.12943193313E+00 -0.12000151952E-01 -0.31282364818E-01  0.89009843012E+00  0.88000000000E+00 0.  1.
        -11    1    4    4    0    0 -0.42548647197E-01 -0.48743412641E-02 -0.33282981871E-02  0.42959111617E-01  0.51100000000E-03 0. -1.
         11    1    4    4    0    0 -0.85643156788E-01  0.11088215473E-01  0.11626363961E-01  0.87138580932E-01  0.51100000000E-03 0.  1.
</event>
<event>
 8    1  0.1078274E+005  0.1043930E+01  0.7957747E-01            NaN
         13   -1    0    0    0    0  0.00000000000E+00  0.00000000000E+00  0.74505805969E-08  0.10566000000E+00  0.10566000000E+00 0. -1.
     999900   -1    0    0    0    0 -0.00000000000E+00 -0.00000000000E+00 -0.74505805969E-08  0.93827000000E+00  0.93827000000E+00 0.  1.
     999902    2    1    2    0    0  0.19113773006E-01 -0.69423932832E-02 -0.11706352473E-01  0.10204657329E+01  0.10201959322E+01 0.  0.
     999903    2    3    3    0    0 -0.70054816315E-01 -0.99894559122E-01 -0.43318062160E-01  0.13052728409E+00  0.16562522495E-01 0.  0.
         14    1    1    2    0    0 -0.19113773006E-01  0.69423932832E-02  0.11706352473E-01  0.23464267115E-01  0.00000000000E+00 0. -1.
     999901    1    3    3    0    0  0.89168589321E-01  0.92952165838E-01  0.31611709687E-01  0.88993844880E+00  0.88000000000E+00 0.  1.
        -11    1    4    4    0    0 -0.48126925092E-01 -0.80451822019E-01 -0.31118114307E-01  0.98779019756E-01  0.51100000000E-03 0.  1.
         11    1    4    4    0    0 -0.21927891223E-01 -0.19442737102E-01 -0.12199947853E-01  0.31748264333E-01  0.51100000000E-03 0. -1.
</event>
<event>
 8    1  0.1078274E+005  0.1043930E+01  0.7957747E-01            NaN
         13   -1    0    0    0    0  0.00000000000E+00  0.00000000000E+00  0.74505805969E-08  0.10566000000E+00  0.10566000000E+00 0. -1.
     999900   -1    0    0    0    0 -0.00000000000E+00 -0.00000000000E+00 -0.74505805969E-08  0.93827000000E+00  0.93827000000E+00 0. -1.
     999902    2    1    2    0    0 -0.68252615354E-02 -0.72954768878E-02 -0.21225306428E-01  0.10204710612E+01  0.10202013845E+01 0.  0.
     999903    2    3    3    0    0  0.71978153975E-01  0.98375089304E-01  0.34808505807E-01  0.12889042266E+00  0.23293692952E-01 0.  0.
         14    1    1    2    0    0  0.68252615354E-02  0.72954768878E-02  0.21225306428E-01  0.23458938830E-01  0.00000000000E+00 0. -1.
     999901    1    3    3    0    0 -0.78803415510E-01 -0.10567056619E+00 -0.56033812236E-01  0.89158063851E+00  0.88000000000E+00 0.  1.
        -11    1    4    4    0    0  0.16254021389E-01  0.12926923292E-01  0.13200358282E-01  0.24613190303E-01  0.51100000000E-03 0.  1.
         11    1    4    4    0    0  0.55724132586E-01  0.85448166013E-01  0.21608147525E-01  0.10427723236E+00  0.51100000000E-03 0. -1.
</event>
<event>
 8    1  0.1078274E+005  0.1043930E+01  0.7957747E-01            NaN
         13   -1    0    0    0    0  0.00000000000E+00  0.00000000000E+00  0.74505805969E-08  0.10566000000E+00  0.10566000000E+00 0.  1.
     999900   -1    0    0    0    0 -0.00000000000E+00 -0.00000000000E+00 -0.74505805969E-08  0.93827000000E+00  0.93827000000E+00 0. -1.
     999902    2    1    2    0    0  0.77710981313E-02  0.20177992739E-01  0.82166805429E-02  0.10207987398E+01  0.10205366295E+01 0.  0.
     999903    2    3    3    0    0  0.10091197439E+00 -0.78595146625E-01  0.14606719736E-01  0.13036503176E+00  0.20524658277E-01 0.  0.
         14    1    1    2    0    0 -0.77710981313E-02 -0.20177992739E-01 -0.82166805429E-02  0.23131260154E-01  0.00000000000E+00 0. -1.
     999901    1    3    3    0    0 -0.93140876256E-01  0.98773139364E-01 -0.63900391928E-02  0.89043370808E+00  0.88000000000E+00 0. -1.
        -11    1    4    4    0    0  0.48192668798E-01 -0.30978419603E-01  0.15372003801E-01  0.59319098348E-01  0.51100000000E-03 0. -1.
         11    1    4    4    0    0  0.52719305590E-01 -0.47616727021E-01 -0.76528406558E-03  0.71045933415E-01  0.51100000000E-03 0.  1.
</event>
<event>
 8    1  0.1078274E+005  0.1043930E+01  0.7957747E-01            NaN
         13   -1    0    0    0    0  0.00000000000E+00  0.00000000000E+00  0.74505805969E-08  0.10566000000E+00  0.10566000000E+00 0.  1.
     999900   -1    0    0    0    0 -0.00000000000E+00 -0.00000000000E+00 -0.74505805969E-08  0.93827000000E+00  0.93827000000E+00 0.  1.
     999902    2    1    2    0    0  0.22131526698E-02 -0.95387847688E-02  0.21887563109E-01  0.10199518458E+01  0.10196699544E+01 0.  0.
     999903    2    3    3    0    0 -0.12672862948E+00 -0.18329838415E-01  0.14829547977E-01  0.13048398164E+00  0.20249085525E-01 0.  0.
         14    1    1    2    0    0 -0.22131526698E-02  0.95387847688E-02 -0.21887563109E-01  0.23978154192E-01  0.00000000000E+00 0. -1.
     999901    1    3    3    0    0  0.12894178215E+00  0.87910536459E-02  0.70580151317E-02  0.88946786417E+00  0.88000000000E+00 0. -1.
        -11    1    4    4    0    0 -0.96898269828E-01 -0.22239812749E-01  0.89111461978E-02  0.99817601726E-01  0.51100000000E-03 0. -1.
         11    1    4    4    0    0 -0.29830359655E-01  0.39099743343E-02  0.59184017793E-02  0.30666379915E-01  0.51100000000E-03 0.  1.
</event>
<event>
 8    1  0.1078274E+005  0.1043930E+01  0.7957747E-01            NaN
         13   -1    0    0    0    0  0.00000000000E+00  0.00000000000E+00  0.74505805969E-08  0.10566000000E+00  0.10566000000E+00 0. -1.
     999900   -1    0    0    0    0 -0.00000000000E+00 -0.00000000000E+00 -0.74505805969E-08  0.93827000000E+00  0.93827000000E+00 0.  1.
     999902    2    1    2    0    0  0.40213689284E-03  0.11105316304E-01 -0.20426144255E-01  0.10206766748E+01  0.10204117587E+01 0.  0.
     999903    2    3    3    0    0  0.11607781340E-01  0.48886775735E-01 -0.12247719671E+00  0.13390307208E+00  0.20117444427E-01 0.  0.
         14    1    1    2    0    0 -0.40213689284E-03 -0.11105316304E-01  0.20426144255E-01  0.23253325212E-01  0.00000000000E+00 0. -1.
     999901    1    3    3    0    0 -0.11205644447E-01 -0.37781459431E-01  0.10205105246E+00  0.88677360270E+00  0.88000000000E+00 0. -1.
        -11    1    4    4    0    0  0.11661279241E-01  0.13505478579E-01 -0.53151402496E-01  0.56068851365E-01  0.51100000000E-03 0.  1.
         11    1    4    4    0    0 -0.53497901132E-04  0.35381297156E-01 -0.69325794215E-01  0.77834220719E-01  0.51100000000E-03 0. -1.
</event>
<event>
 8    1  0.1078274E+005  0.1043930E+01  0.7957747E-01            NaN
         13   -1    0    0    0    0  0.00000000000E+00  0.00000000000E+00  0.74505805969E-08  0.10566000000E+00  0.10566000000E+00 0.  1.
     999900   -1    0    0    0    0 -0.00000000000E+00 -0.00000000000E+00 -0.74505805969E-08  0.93827000000E+00  0.93827000000E+00 0. -1.
     999902    2    1    2    0    0 -0.17631884708E-01 -0.41179977807E-03 -0.14481584947E-01  0.10211096310E+01  0.10208545975E+01 0.  0.
     999903    2    3    3    0    0 -0.26316392385E-02 -0.51334533013E-01 -0.12112101067E+00  0.13308367463E+00  0.19970113244E-01 0.  0.
         14    1    1    2    0    0  0.17631884708E-01  0.41179977807E-03  0.14481584947E-01  0.22820368972E-01  0.00000000000E+00 0.  1.
     999901    1    3    3    0    0 -0.15000245470E-01  0.50922733235E-01  0.10663942572E+00  0.88802595640E+00  0.88000000000E+00 0.  1.
        -11    1    4    4    0    0  0.47491967108E-02 -0.24073440671E-01 -0.37471247906E-01  0.44793313739E-01  0.51100000000E-03 0.  1.
         11    1    4    4    0    0 -0.73808359493E-02 -0.27261092342E-01 -0.83649762760E-01  0.88290360888E-01  0.51100000000E-03 0. -1.
</event>
<event>
 8    1  0.1078274E+005  0.1043930E+01  0.7957747E-01            NaN
         13   -1    0    0    0    0  0.00000000000E+00  0.00000000000E+00  0.74505805969E-08  0.10566000000E+00  0.10566000000E+00 0. -1.
     999900   -1    0    0    0    0 -0.00000000000E+00 -0.00000000000E+00 -0.74505805969E-08  0.93827000000E+00  0.93827000000E+00 0. -1.
     999902    2    1    2    0    0 -0.48403770000E-02 -0.61412638221E-02 -0.23504973077E-01  0.10191584815E+01  0.10188573905E+01 0.  0.
     999903    2    3    3    0    0 -0.10224321166E+00  0.18888323392E-01 -0.78318793068E-01  0.13173617654E+00  0.20252006539E-01 0.  0.
         14    1    1    2    0    0  0.48403770000E-02  0.61412638221E-02  0.23504973077E-01  0.24771518528E-01  0.00000000000E+00 0. -1.
     999901    1    3    3    0    0  0.97402834663E-01 -0.25029587214E-01  0.54813819991E-01  0.88742230494E+00  0.88000000000E+00 0.  1.
        -11    1    4    4    0    0 -0.58579644497E-01  0.17378832247E-01 -0.54989958202E-01  0.82205566622E-01  0.51100000000E-03 0.  1.
         11    1    4    4    0    0 -0.43663567166E-01  0.15094911454E-02 -0.23328834867E-01  0.49530609913E-01  0.51100000000E-03 0. -1.
</event>
<event>
 8    1  0.1078274E+005  0.1043930E+01  0.7957747E-01            NaN
         13   -1    0    0    0    0  0.00000000000E+00  0.00000000000E+00  0.74505805969E-08  0.10566000000E+00  0.10566000000E+00 0.  1.
     999900   -1    0    0    0    0 -0.00000000000E+00 -0.00000000000E+00 -0.74505805969E-08  0.93827000000E+00  0.93827000000E+00 0. -1.
     999902    2    1    2    0    0  0.17169480365E-01  0.14586229800E-01  0.63604898158E-02  0.10205204937E+01  0.10202519655E+01 0.  0.
     999903    2    3    3    0    0 -0.11455257857E+00  0.20726830151E-01  0.53676049387E-01  0.12943847166E+00  0.17924980369E-01 0.  0.
         14    1    1    2    0    0 -0.17169480365E-01 -0.14586229800E-01 -0.63604898158E-02  0.23409506327E-01  0.00000000000E+00 0. -1.
     999901    1    3    3    0    0  0.13172205894E+00 -0.61406003503E-02 -0.47315559571E-01  0.89108202202E+00  0.88000000000E+00 0. -1.
        -11    1    4    4    0    0 -0.10247367389E+00  0.14012908143E-01  0.51132283325E-01  0.11537758428E+00  0.51100000000E-03 0.  1.
         11    1    4    4    0    0 -0.12078904687E-01  0.67139220074E-02  0.25437660619E-02  0.14060887380E-01  0.51100000000E-03 0. -1.
</event>
<event>
 8    1  0.1078274E+005  0.1043930E+01  0.7957747E-01            NaN
         13   -1    0    0    0    0  0.00000000000E+00  0.00000000000E+00  0.74505805969E-08  0.10566000000E+00  0.10566000000E+00 0. -1.
     999900   -1    0    0    0    0 -0.00000000000E+00 -0.00000000000E+00 -0.74505805969E-08  0.93827000000E+00  0.93827000000E+00 0. -1.
     999902    2    1    2    0    0 -0.42064645396E-02  0.23825688328E-01 -0.27850496357E-02  0.10195760625E+01  0.10192851579E+01 0.  0.
     999903    2    3    3    0    0 -0.10400564075E+00  0.86456490472E-02  0.76106023362E-01  0.13029876576E+00  0.17138290816E-01 0.  0.
         14    1    1    2    0    0  0.42064645396E-02 -0.23825688328E-01  0.27850496357E-02  0.24353937457E-01  0.00000000000E+00 0.  1.
     999901    1    3    3    0    0  0.99799176213E-01  0.15180039280E-01 -0.78891072998E-01  0.88927729678E+00  0.88000000000E+00 0. -1.
        -11    1    4    4    0    0 -0.53351089469E-01  0.30614841327E-02  0.49332565774E-01  0.72730149178E-01  0.51100000000E-03 0.  1.
         11    1    4    4    0    0 -0.50654551283E-01  0.55841649145E-02  0.26773457589E-01  0.57568616587E-01  0.51100000000E-03 0. -1.
</event>
<event>
 8    1  0.1078274E+005  0.1043930E+01  0.7957747E-01            NaN
         13   -1    0    0    0    0  0.00000000000E+00  0.00000000000E+00  0.74505805969E-08  0.10566000000E+00  0.10566000000E+00 0.  1.
     999900   -1    0    0    0    0 -0.00000000000E+00 -0.00000000000E+00 -0.74505805969E-08  0.93827000000E+00  0.93827000000E+00 0. -1.
     999902    2    1    2    0    0  0.17991426009E-02  0.23699853728E-01  0.81119625528E-03  0.10201481157E+01  0.10198708742E+01 0.  0.
     999903    2    3    3    0    0  0.49705192560E-01 -0.11608238537E+00 -0.24855573665E-02  0.12782254028E+00  0.19664624298E-01 0.  0.
         14    1    1    2    0    0 -0.17991426009E-02 -0.23699853728E-01 -0.81119625528E-03  0.23781884286E-01  0.00000000000E+00 0. -1.
     999901    1    3    3    0    0 -0.47906049959E-01  0.13978223909E+00  0.32967536218E-02  0.89232557543E+00  0.88000000000E+00 0.  1.
        -11    1    4    4    0    0  0.45174957725E-01 -0.89833801202E-01 -0.70153573258E-02  0.10079863592E+00  0.51100000000E-03 0. -1.
         11    1    4    4    0    0  0.45302348357E-02 -0.26248584163E-01  0.45297999593E-02  0.27023904361E-01  0.51100000000E-03 0.  1.
</event>
<event>
 8    1  0.1078274E+005  0.1043930E+01  0.7957747E-01            NaN
         13   -1    0    0    0    0  0.00000000000E+00  0.00000000000E+00  0.74505805969E-08  0.10566000000E+00  0.10566000000E+00 0. -1.
     999900   -1    0    0    0    0 -0.00000000000E+00 -0.00000000000E+00 -0.74505805969E-08  0.93827000000E+00  0.93827000000E+00 0.  1.
     999902    2    1    2    0    0 -0.11284814890E-01 -0.16156176053E-01  0.11917832176E-01  0.10208995029E+01  0.10206396971E+01 0.  0.
     999903    2    3    3    0    0  0.15078983377E-01 -0.11105437546E+00  0.69815937097E-01  0.13351406882E+00  0.19781088250E-01 0.  0.
         14    1    1    2    0    0  0.11284814890E-01  0.16156176053E-01 -0.11917832176E-01  0.23030497075E-01  0.00000000000E+00 0.  1.
     999901    1    3    3    0    0 -0.26363798267E-01  0.94898199403E-01 -0.57898104921E-01  0.88738543411E+00  0.88000000000E+00 0.  1.
        -11    1    4    4    0    0  0.14914305487E-01 -0.70241745236E-01  0.35089835483E-01  0.79924320186E-01  0.51100000000E-03 0. -1.
         11    1    4    4    0    0  0.16467789018E-03 -0.40812630220E-01  0.34726101614E-01  0.53589748634E-01  0.51100000000E-03 0.  1.
</event>
<event>
 8    1  0.1078274E+005  0.1043930E+01  0.7957747E-01            NaN
         13   -1    0    0    0    0  0.00000000000E+00  0.00000000000E+00  0.74505805969E-08  0.10566000000E+00  0.10566000000E+00 0. -1.
     999900   -1    0    0    0    0 -0.00000000000E+00 -0.00000000000E+00 -0.74505805969E-08  0.93827000000E+00  0.93827000000E+00 0.  1.
     999902    2    1    2    0    0 -0.53645065430E-02 -0.52350795743E-02  0.22028624376E-01  0.10206610447E+01  0.10203957683E+01 0.  0.
     999903    2    3    3    0    0  0.90842209886E-01 -0.76959456899E-01 -0.47776512297E-01  0.12977784490E+00  0.19611955453E-01 0.  0.
         14    1    1    2    0    0  0.53645065430E-02  0.52350795743E-02 -0.22028624376E-01  0.23268955295E-01  0.00000000000E+00 0.  1.
     999901    1    3    3    0    0 -0.96206716429E-01  0.71724377324E-01  0.69805136673E-01  0.89088319980E+00  0.88000000000E+00 0. -1.
        -11    1    4    4    0    0  0.36871543933E-01 -0.34586793613E-01 -0.30400252627E-01  0.58993165072E-01  0.51100000000E-03 0. -1.
         11    1    4    4    0    0  0.53970665953E-01 -0.42372663285E-01 -0.17376259670E-01  0.70784679829E-01  0.51100000000E-03 0.  1.
</event>
<event>
 8    1  0.1078274E+005  0.1043930E+01  0.7957747E-01            NaN
         13   -1    0    0    0    0  0.00000000000E+00  0.00000000000E+00  0.74505805969E-08  0.10566000000E+00  0.10566000000E+00 0.  1.
     999900   -1    0    0    0    0 -0.00000000000E+00 -0.00000000000E+00 -0.74505805969E-08  0.93827000000E+00  0.93827000000E+00 0.  1.
     999902    2    1    2    0    0  0.13537158351E-01 -0.18724485979E-01  0.74516407055E-02  0.10196526859E+01  0.10193636308E+01 0.  0.
     999903    2    3    3    0    0 -0.11446609793E+00  0.51623812327E-01 -0.92709107754E-02  0.12745687755E+00  0.19793945379E-01 0.  0.
         14    1    1    2    0    0 -0.13537158351E-01  0.18724485979E-01 -0.74516407055E-02  0.24277314114E-01  0.00000000000E+00 0.  1.
     999901    1    3    3    0    0  0.12800325628E+00 -0.70348298306E-01  0.16722551481E-01  0.89219580834E+00  0.88000000000E+00 0. -1.
        -11    1    4    4    0    0 -0.95867935142E-01  0.49647142227E-01 -0.11683007175E-01  0.10859214289E+00  0.51100000000E-03 0. -1.
         11    1    4    4    0    0 -0.18598162783E-01  0.19766700999E-02  0.24120963997E-02  0.18864734656E-01  0.51100000000E-03 0.  1.
</event>
<event>
 8    1  0.1078274E+005  0.1043930E+01  0.7957747E-01            NaN
         13   -1    0    0    0    0  0.00000000000E+00  0.00000000000E+00  0.74505805969E-08  0.10566000000E+00  0.10566000000E+00 0. -1.
     999900   -1    0    0    0    0 -0.00000000000E+00 -0.00000000000E+00 -0.74505805969E-08  0.93827000000E+00  0.93827000000E+00 0.  1.
     999902    2    1    2    0    0  0.15220920483E-01 -0.58297916711E-02 -0.16608893929E-01  0.10206594553E+01  0.10203941422E+01 0.  0.
     999903    2    3    3    0    0  0.48825959656E-01 -0.45430317865E-01  0.10962073659E+00  0.13013633944E+00  0.21699604476E-01 0.  0.
         14    1    1    2    0    0 -0.15220920483E-01  0.58297916711E-02  0.16608893929E-01  0.23270544661E-01  0.00000000000E+00 0. -1.
     999901    1    3    3    0    0 -0.33605039173E-01  0.39600526193E-01 -0.12622963052E+00  0.89052311590E+00  0.88000000000E+00 0.  1.
        -11    1    4    4    0    0  0.16329015096E-03 -0.75532344485E-02  0.19660382987E-01  0.21068217639E-01  0.51100000000E-03 0.  1.
         11    1    4    4    0    0  0.48662669505E-01 -0.37877083416E-01  0.89960353603E-01  0.10906812180E+00  0.51100000000E-03 0. -1.
</event>
<event>
 8    1  0.1139725E+005  0.1043930E+01  0.7957747E-01            NaN
         13   -1    0    0    0    0  0.00000000000E+00  0.00000000000E+00  0.74505805969E-08  0.10566000000E+00  0.10566000000E+00 0. -1.
     999900   -1    0    0    0    0 -0.00000000000E+00 -0.00000000000E+00 -0.74505805969E-08  0.93827000000E+00  0.93827000000E+00 0.  1.
     999902    2    1    2    0    0 -0.25110975663E-01  0.10134198703E-01  0.46653304634E-02  0.10164522201E+01  0.10160807484E+01 0.  0.
     999903    2    3    3    0    0 -0.70878172630E-02 -0.37273321289E-01 -0.11880692259E+00  0.12638609641E+00  0.20465162548E-01 0.  0.
         14    1    1    2    0    0  0.25110975663E-01 -0.10134198703E-01 -0.46653304634E-02  0.27477779940E-01  0.00000000000E+00 0.  1.
     999901    1    3    3    0    0 -0.18023158400E-01  0.47407519992E-01  0.12347225305E+00  0.89006612365E+00  0.88000000000E+00 0. -1.
        -11    1    4    4    0    0  0.28667673873E-02 -0.20884966865E-01 -0.39320333858E-01  0.44617821237E-01  0.51100000000E-03 0. -1.
         11    1    4    4    0    0 -0.99545846504E-02 -0.16388354424E-01 -0.79486588730E-01  0.81768275176E-01  0.51100000000E-03 0.  1.
</event>
<event>
 8    1  0.1078274E+005  0.1043930E+01  0.7957747E-01            NaN
         13   -1    0    0    0    0  0.00000000000E+00  0.00000000000E+00  0.74505805969E-08  0.10566000000E+00  0.10566000000E+00 0. -1.
     999900   -1    0    0    0    0 -0.00000000000E+00 -0.00000000000E+00 -0.74505805969E-08  0.93827000000E+00  0.93827000000E+00 0.  1.
     999902    2    1    2    0    0 -0.28071836867E-02 -0.10112951880E-01  0.20277870550E-01  0.10210970390E+01  0.10208417208E+01 0.  0.
     999903    2    3    3    0    0  0.56535254333E-01  0.29582314199E-01  0.11490026743E+00  0.13314960972E+00  0.21340075396E-01 0.  0.
         14    1    1    2    0    0  0.28071836867E-02  0.10112951880E-01 -0.20277870550E-01  0.22832961044E-01  0.00000000000E+00 0.  1.
     999901    1    3    3    0    0 -0.59342438020E-01 -0.39695266080E-01 -0.94622396875E-01  0.88794742924E+00  0.88000000000E+00 0.  1.
        -11    1    4    4    0    0  0.32551002188E-01  0.28044476030E-01  0.67795709034E-01  0.80265681731E-01  0.51100000000E-03 0.  1.
         11    1    4    4    0    0  0.23984252145E-01  0.15378381687E-02  0.47104558391E-01  0.52883927988E-01  0.51100000000E-03 0. -1.
</event>
<event>
 8    1  0.1078274E+005  0.1043930E+01  0.7957747E-01            NaN
         13   -1    0    0    0    0  0.00000000000E+00  0.00000000000E+00  0.74505805969E-08  0.10566000000E+00  0.10566000000E+00 0.  1.
     999900   -1    0    0    0    0 -0.00000000000E+00 -0.00000000000E+00 -0.74505805969E-08  0.93827000000E+00  0.93827000000E+00 0. -1.
     999902    2    1    2    0    0  0.51994976616E-03  0.23986444778E-01  0.54600572997E-02  0.10193244700E+01  0.10190274496E+01 0.  0.
     999903    2    3    3    0    0 -0.37471840234E-01 -0.85514079098E-01  0.85207588904E-01  0.12814917320E+00  0.21096939339E-01 0.  0.
         14    1    1    2    0    0 -0.51994976616E-03 -0.23986444778E-01 -0.54600572997E-02  0.24605530000E-01  0.00000000000E+00 0.  1.
     999901    1    3    3    0    0  0.37991790000E-01  0.10950052388E+00 -0.79747531605E-01  0.89117529680E+00  0.88000000000E+00 0. -1.
        -11    1    4    4    0    0 -0.24642209037E-01 -0.41051086981E-01  0.54809580585E-01  0.72778990468E-01  0.51100000000E-03 0.  1.
         11    1    4    4    0    0 -0.12829631197E-01 -0.44462992117E-01  0.30398008319E-01  0.55370182728E-01  0.51100000000E-03 0. -1.
</event>
<event>
 8    1  0.1078274E+005  0.1043930E+01  0.7957747E-01            NaN
         13   -1    0    0    0    0  0.00000000000E+00  0.00000000000E+00  0.74505805969E-08  0.10566000000E+00  0.10566000000E+00 0.  1.
     999900   -1    0    0    0    0 -0.00000000000E+00 -0.00000000000E+00 -0.74505805969E-08  0.93827000000E+00  0.93827000000E+00 0. -1.
     999902    2    1    2    0    0  0.12009069310E-01 -0.84597149542E-02  0.19260533404E-01  0.10197070219E+01  0.10194192748E+01 0.  0.
     999903    2    3    3    0    0  0.12605726943E+00 -0.29097751042E-01 -0.12041895808E-01  0.13155570449E+00  0.20610236235E-01 0.  0.
         14    1    1    2    0    0 -0.12009069310E-01  0.84597149542E-02 -0.19260533404E-01  0.24222978137E-01  0.00000000000E+00 0. -1.
     999901    1    3    3    0    0 -0.11404820011E+00  0.20638036088E-01  0.31302429213E-01  0.88815131738E+00  0.88000000000E+00 0.  1.
        -11    1    4    4    0    0  0.86278900952E-01 -0.14543078902E-01  0.70306481021E-04  0.87497519722E-01  0.51100000000E-03 0.  1.
         11    1    4    4    0    0  0.39778368473E-01 -0.14554672140E-01 -0.12112202289E-01  0.44058184764E-01  0.51100000000E-03 0. -1.
</event>
<event>
 8    1  0.1078274E+005  0.1043930E+01  0.7957747E-01            NaN
         13   -1    0    0    0    0  0.00000000000E+00  0.00000000000E+00  0.74505805969E-08  0.10566000000E+00  0.10566000000E+00 0.  1.
     999900   -1    0    0    0    0 -0.00000000000E+00 -0.00000000000E+00 -0.74505805969E-08  0.93827000000E+00  0.93827000000E+00 0.  1.
     999902    2    1    2    0    0 -0.73217953121E-02  0.87835564889E-02  0.19829230377E-01  0.10210398727E+01  0.10207832599E+01 0.  0.
     999903    2    3    3    0    0 -0.11117329981E-01  0.42713101178E-01  0.12504127115E+00  0.13411530227E+00  0.20089568787E-01 0.  0.
         14    1    1    2    0    0  0.73217953121E-02 -0.87835564889E-02 -0.19829230377E-01  0.22890127316E-01  0.00000000000E+00 0. -1.
     999901    1    3    3    0    0  0.37955346687E-02 -0.33929544689E-01 -0.10521204077E+00  0.88692457042E+00  0.88000000000E+00 0.  1.
        -11    1    4    4    0    0  0.53491521828E-02  0.52612856092E-02  0.21890666864E-01  0.23146424607E-01  0.51100000000E-03 0.  1.
         11    1    4    4    0    0 -0.16466482164E-01  0.37451815569E-01  0.10315060428E+00  0.11096887766E+00  0.51100000000E-03 0. -1.
</event>
<event>
 8    1  0.1078274E+005  0.1043930E+01  0.7957747E-01            NaN
         13   -1    0    0    0    0  0.00000000000E+00  0.00000000000E+00  0.74505805969E-08  0.10566000000E+00  0.10566000000E+00 0. -1.
     999900   -1    0    0    0    0 -0.00000000000E+00 -0.00000000000E+00 -0.74505805969E-08  0.93827000000E+00  0.93827000000E+00 0. -1.
     999902    2    1    2    0    0 -0.79666778784E-02  0.16164028504E-01  0.14478917363E-01  0.10208132783E+01  0.10205515011E+01 0.  0.
     999903    2    3    3    0    0  0.10829801646E+00 -0.63113175734E-01 -0.22953051843E-01  0.12884718782E+00  0.19053133590E-01 0.  0.
         14    1    1    2    0    0  0.79666778784E-02 -0.16164028504E-01 -0.14478917363E-01  0.23116721694E-01  0.00000000000E+00 0.  1.
     999901    1    3    3    0    0 -0.11626469434E+00  0.79277204238E-01  0.37431969206E-01  0.89196609049E+00  0.88000000000E+00 0.  1.
        -11    1    4    4    0    0  0.14651475915E-01 -0.16847556376E-01 -0.39819803941E-02  0.22685307827E-01  0.51100000000E-03 0.  1.
         11    1    4    4    0    0  0.93646540544E-01 -0.46265619358E-01 -0.18971071449E-01  0.10616187999E+00  0.51100000000E-03 0. -1.
</event>
<event>
 8    1  0.1078274E+005  0.1043930E+01  0.7957747E-01            NaN
         13   -1    0    0    0    0  0.00000000000E+00  0.00000000000E+00  0.74505805969E-08  0.10566000000E+00  0.10566000000E+00 0.  1.
     999900   -1    0    0    0    0 -0.00000000000E+00 -0.00000000000E+00 -0.74505805969E-08  0.93827000000E+00  0.93827000000E+00 0.  1.
     999902    2    1    2    0    0 -0.15814633142E-01 -0.64361251013E-02  0.16364181151E-01  0.10202802061E+01  0.10200060716E+01 0.  0.
     999903    2    3    3    0    0  0.55892684747E-01  0.11282856577E+00 -0.17302732040E-01  0.12870885898E+00  0.20305378146E-01 0.  0.
         14    1    1    2    0    0  0.15814633142E-01  0.64361251013E-02 -0.16364181151E-01  0.23649793920E-01  0.00000000000E+00 0. -1.
     999901    1    3    3    0    0 -0.71707317889E-01 -0.11926469087E+00  0.33666913191E-01  0.89157134710E+00  0.88000000000E+00 0.  1.
        -11    1    4    4    0    0  0.56971611723E-02  0.31090993816E-01 -0.37281737293E-02  0.31831869915E-01  0.51100000000E-03 0. -1.
         11    1    4    4    0    0  0.50195523574E-01  0.81737571954E-01 -0.13574558311E-01  0.96876989064E-01  0.51100000000E-03 0.  1.
</event>
<event>
 8    1  0.1078274E+005  0.1043930E+01  0.7957747E-01            NaN
         13   -1    0    0    0    0  0.00000000000E+00  0.00000000000E+00  0.74505805969E-08  0.10566000000E+00  0.10566000000E+00 0. -1.
     999900   -1    0    0    0    0 -0.00000000000E+00 -0.00000000000E+00 -0.74505805969E-08  0.93827000000E+00  0.93827000000E+00 0.  1.
     999902    2    1    2    0    0 -0.21444854177E-01  0.11183475208E-01  0.50668858289E-02  0.10192191680E+01  0.10189195685E+01 0.  0.
     999903    2    3    3    0    0 -0.13018466390E+00  0.26306859068E-02  0.14263692160E-01  0.13243730206E+00  0.19524826245E-01 0.  0.
         14    1    1    2    0    0  0.21444854177E-01 -0.11183475208E-01 -0.50668858289E-02  0.24710832046E-01  0.00000000000E+00 0.  1.
     999901    1    3    3    0    0  0.10873980973E+00  0.85527893015E-02 -0.91968063314E-02  0.88678186589E+00  0.88000000000E+00 0.  1.
        -11    1    4    4    0    0 -0.37652646481E-01  0.94088723334E-02  0.62049126860E-02  0.39306624480E-01  0.51100000000E-03 0. -1.
         11    1    4    4    0    0 -0.92532017423E-01 -0.67781864267E-02  0.80587794743E-02  0.93130677584E-01  0.51100000000E-03 0.  1.
</event>
<event>
 8    1  0.1078274E+005  0.1043930E+01  0.7957747E-01            NaN
         13   -1    0    0    0    0  0.00000000000E+00  0.00000000000E+00  0.74505805969E-08  0.10566000000E+00  0.10566000000E+00 0.  1.
     999900   -1    0    0    0    0 -0.00000000000E+00 -0.00000000000E+00 -0.74505805969E-08  0.93827000000E+00  0.93827000000E+00 0. -1.
     999902    2    1    2    0    0  0.92691763420E-02  0.15349409556E-01  0.15986873672E-01  0.10199070499E+01  0.10196240916E+01 0.  0.
     999903    2    3    3    0    0 -0.10237419651E+00  0.22287261377E-01  0.75738115903E-01  0.13081617293E+00  0.19985263748E-01 0.  0.
         14    1    1    2    0    0 -0.92691763420E-02 -0.15349409556E-01 -0.15986873672E-01  0.24022950144E-01  0.00000000000E+00 0. -1.
     999901    1    3    3    0    0  0.11164337286E+00 -0.69378518210E-02 -0.59751242231E-01  0.88909087693E+00  0.88000000000E+00 0. -1.
        -11    1    4    4    0    0 -0.78254461918E-01  0.11984769004E-01  0.47739783076E-01  0.92448599271E-01  0.51100000000E-03 0. -1.
         11    1    4    4    0    0 -0.24119734597E-01  0.10302492373E-01  0.27998332827E-01  0.38367573656E-01  0.51100000000E-03 0.  1.
</event>
<event>
 8    1  0.1078274E+005  0.1043930E+01  0.7957747E-01            NaN
         13   -1    0    0    0    0  0.00000000000E+00  0.00000000000E+00  0.74505805969E-08  0.10566000000E+00  0.10566000000E+00 0.  1.
     999900   -1    0    0    0    0 -0.00000000000E+00 -0.00000000000E+00 -0.74505805969E-08  0.93827000000E+00  0.93827000000E+00 0. -1.
     999902    2    1    2    0    0 -0.12990098843E-01 -0.15316177456E-01  0.11119707050E-01  0.10209740456E+01  0.10207159379E+01 0.  0.
     999903    2    3    3    0    0 -0.81652444940E-01 -0.10360211857E+00  0.11427671568E-01  0.13389512008E+00  0.19919607601E-01 0.  0.
         14    1    1    2    0    0  0.12990098843E-01  0.15316177456E-01 -0.11119707050E-01  0.22955954450E-01  0.00000000000E+00 0. -1.
     999901    1    3    3    0    0  0.68662346097E-01  0.88285941114E-01 -0.30796451815E-03  0.88707892547E+00  0.88000000000E+00 0.  1.
        -11    1    4    4    0    0 -0.13839055934E-01 -0.31171101338E-01  0.48832848609E-02  0.34456706456E-01  0.51100000000E-03 0. -1.
         11    1    4    4    0    0 -0.67813389006E-01 -0.72431017233E-01  0.65443867073E-02  0.99438413625E-01  0.51100000000E-03 0.  1.
</event>
<event>
 8    1  0.1078274E+005  0.1043930E+01  0.7957747E-01            NaN
         13   -1    0    0    0    0  0.00000000000E+00  0.00000000000E+00  0.74505805969E-08  0.10566000000E+00  0.10566000000E+00 0. -1.
     999900   -1    0    0    0    0 -0.00000000000E+00 -0.00000000000E+00 -0.74505805969E-08  0.93827000000E+00  0.93827000000E+00 0.  1.
     999902    2    1    2    0    0 -0.14948232230E-01 -0.43313456532E-03  0.18459242523E-01  0.10201732981E+01  0.10198966503E+01 0.  0.
     999903    2    3    3    0    0 -0.20082550683E-01 -0.91411379498E-01  0.91475448396E-01  0.13246007376E+00  0.20458845000E-01 0.  0.
         14    1    1    2    0    0  0.14948232230E-01  0.43313456532E-03 -0.18459242523E-01  0.23756701936E-01  0.00000000000E+00 0.  1.
     999901    1    3    3    0    0  0.51343184530E-02  0.90978244933E-01 -0.73016205873E-01  0.88771322430E+00  0.88000000000E+00 0.  1.
        -11    1    4    4    0    0  0.14136906206E-02 -0.31347866979E-01  0.23277792777E-01  0.39074339954E-01  0.51100000000E-03 0. -1.
         11    1    4    4    0    0 -0.21496241304E-01 -0.60063512520E-01  0.68197655619E-01  0.93385733810E-01  0.51100000000E-03 0.  1.
</event>
<event>
 8    1  0.1078274E+005  0.1043930E+01  0.7957747E-01            NaN
         13   -1    0    0    0    0  0.00000000000E+00  0.00000000000E+00  0.74505805969E-08  0.10566000000E+00  0.10566000000E+00 0. -1.
     999900   -1    0    0    0    0 -0.00000000000E+00 -0.00000000000E+00 -0.74505805969E-08  0.93827000000E+00  0.93827000000E+00 0.  1.
     999902    2    1    2    0    0 -0.83906526798E-02  0.18384004225E-01 -0.14421986025E-01  0.10191032333E+01  0.10188007812E+01 0.  0.
     999903    2    3    3    0    0 -0.18400732322E-01 -0.89752487424E-01 -0.89015678259E-01  0.12929543302E+00  0.19985546668E-01 0.  0.
         14    1    1    2    0    0  0.83906526798E-02 -0.18384004225E-01  0.14421986025E-01  0.24826766697E-01  0.00000000000E+00 0. -1.
     999901    1    3    3    0    0  0.10010079643E-01  0.10813649165E+00  0.74593692234E-01  0.88980780028E+00  0.88000000000E+00 0. -1.
        -11    1    4    4    0    0 -0.11060053285E-02 -0.28053138176E-01 -0.16685454362E-01  0.32662934920E-01  0.51100000000E-03 0.  1.
         11    1    4    4    0    0 -0.17294726994E-01 -0.61699349248E-01 -0.72330223897E-01  0.96632498102E-01  0.51100000000E-03 0. -1.
</event>
<event>
 8    1  0.1078274E+005  0.1043930E+01  0.7957747E-01            NaN
         13   -1    0    0    0    0  0.00000000000E+00  0.00000000000E+00  0.74505805969E-08  0.10566000000E+00  0.10566000000E+00 0.  1.
     999900   -1    0    0    0    0 -0.00000000000E+00 -0.00000000000E+00 -0.74505805969E-08  0.93827000000E+00  0.93827000000E+00 0.  1.
     999902    2    1    2    0    0 -0.77864695845E-02 -0.40719927819E-03 -0.14687748650E-01  0.10273009627E+01  0.10271663659E+01 0.  0.
     999903    2    3    3    0    0 -0.13556413373E+00  0.60192616795E-02 -0.15339148052E-01  0.13804911136E+00  0.20208953987E-01 0.  0.
         14    1    1    2    0    0  0.77864695845E-02  0.40719927819E-03  0.14687748650E-01  0.16629037262E-01  0.00000000000E+00 0.  1.
     999901    1    3    3    0    0  0.12777766414E+00 -0.64264609577E-02  0.65139940226E-03  0.88925185138E+00  0.88000000000E+00 0. -1.
        -11    1    4    4    0    0 -0.42201619041E-01 -0.67091941934E-02 -0.10763395609E-02  0.42748211240E-01  0.51100000000E-03 0.  1.
         11    1    4    4    0    0 -0.93362514684E-01  0.12728455873E-01 -0.14262808492E-01  0.95300900123E-01  0.51100000000E-03 0. -1.
</event>
<event>
 8    1  0.1078274E+005  0.1043930E+01  0.7957747E-01            NaN
         13   -1    0    0    0    0  0.00000000000E+00  0.00000000000E+00  0.74505805969E-08  0.10566000000E+00  0.10566000000E+00 0.  1.
     999900   -1    0    0    0    0 -0.00000000000E+00 -0.00000000000E+00 -0.74505805969E-08  0.93827000000E+00  0.93827000000E+00 0. -1.
     999902    2    1    2    0    0  0.12714358702E-01 -0.18524721029E-01  0.64111261947E-02  0.10205650103E+01  0.10202975142E+01 0.  0.
     999903    2    3    3    0    0  0.81701777099E-01  0.95664935720E-01 -0.27003686638E-01  0.12988263628E+00  0.17701406929E-01 0.  0.
         14    1    1    2    0    0 -0.12714358702E-01  0.18524721029E-01 -0.64111261947E-02  0.23364989738E-01  0.00000000000E+00 0. -1.
     999901    1    3    3    0    0 -0.68987418398E-01 -0.11418965675E+00  0.33414812832E-01  0.89068237398E+00  0.88000000000E+00 0.  1.
        -11    1    4    4    0    0  0.46977484524E-01  0.42970600624E-01 -0.93485648157E-02  0.64350705943E-01  0.51100000000E-03 0.  1.
         11    1    4    4    0    0  0.34724292575E-01  0.52694335096E-01 -0.17655121822E-01  0.65531930336E-01  0.51100000000E-03 0. -1.
</event>
<event>
 8    1  0.1078274E+005  0.1043930E+01  0.7957747E-01            NaN
         13   -1    0    0    0    0  0.00000000000E+00  0.00000000000E+00  0.74505805969E-08  0.10566000000E+00  0.10566000000E+00 0.  1.
     999900   -1    0    0    0    0 -0.00000000000E+00 -0.00000000000E+00 -0.74505805969E-08  0.93827000000E+00  0.93827000000E+00 0.  1.
     999902    2    1    2    0    0 -0.64447623616E-02 -0.23959572080E-02  0.22691847194E-01  0.10202193378E+01  0.10199437738E+01 0.  0.
     999903    2    3    3    0    0 -0.81469395752E-01 -0.84770447070E-01  0.57899987603E-01  0.13249535742E+00  0.19476140077E-01 0.  0.
         14    1    1    2    0    0  0.64447623616E-02  0.23959572080E-02 -0.22691847194E-01  0.23710662199E-01  0.00000000000E+00 0. -1.
     999901    1    3    3    0    0  0.75024633391E-01  0.82374489862E-01 -0.35208140409E-01  0.88772398038E+00  0.88000000000E+00 0. -1.
        -11    1    4    4    0    0 -0.48021886530E-01 -0.50175841416E-01  0.44697879664E-01  0.82594662147E-01  0.51100000000E-03 0.  1.
         11    1    4    4    0    0 -0.33447509222E-01 -0.34594605654E-01  0.13202107939E-01  0.49900695271E-01  0.51100000000E-03 0. -1.
</event>
<event>
 8    1  0.1078274E+005  0.1043930E+01  0.7957747E-01            NaN
         13   -1    0    0    0    0  0.00000000000E+00  0.00000000000E+00  0.74505805969E-08  0.10566000000E+00  0.10566000000E+00 0.  1.
     999900   -1    0    0    0    0 -0.00000000000E+00 -0.00000000000E+00 -0.74505805969E-08  0.93827000000E+00  0.93827000000E+00 0. -1.
     999902    2    1    2    0    0 -0.23407858375E-01  0.83974443558E-03 -0.26211227382E-02  0.10203608827E+01  0.10200886372E+01 0.  0.
     999903    2    3    3    0    0 -0.75117670796E-01 -0.10201792678E+00 -0.32352940293E-01  0.13236449411E+00  0.20574856130E-01 0.  0.
         14    1    1    2    0    0  0.23407858375E-01 -0.83974443558E-03  0.26211227382E-02  0.23569117269E-01  0.00000000000E+00 0. -1.
     999901    1    3    3    0    0  0.51709812421E-01  0.10285767122E+00  0.29731817555E-01  0.88799638862E+00  0.88000000000E+00 0.  1.
        -11    1    4    4    0    0 -0.32357395385E-01 -0.33750617183E-01 -0.38556304240E-02  0.46917291091E-01  0.51100000000E-03 0. -1.
         11    1    4    4    0    0 -0.42760275411E-01 -0.68267309598E-01 -0.28497309869E-01  0.85447203019E-01  0.51100000000E-03 0.  1.
</event>
<event>
 8    1  0.1078274E+005  0.1043930E+01  0.7957747E-01            NaN
         13   -1    0    0    0    0  0.00000000000E+00  0.00000000000E+00  0.74505805969E-08  0.10566000000E+00  0.10566000000E+00 0. -1.
     999900   -1    0    0    0    0 -0.00000000000E+00 -0.00000000000E+00 -0.74505805969E-08  0.93827000000E+00  0.93827000000E+00 0. -1.
     999902    2    1    2    0    0 -0.16963756261E-01  0.14459973120E-01  0.84183116376E-02  0.10201029603E+01  0.10198246525E+01 0.  0.
     999903    2    3    3    0    0  0.35755557945E-01  0.58129873440E-01 -0.10853589385E+00  0.12972962712E+00  0.19803883168E-01 0.  0.
         14    1    1    2    0    0  0.16963756261E-01 -0.14459973120E-01 -0.84183116376E-02  0.23827039681E-01  0.00000000000E+00 0.  1.
     999901    1    3    3    0    0 -0.52719314206E-01 -0.43669900321E-01  0.11695420549E+00  0.89037333320E+00  0.88000000000E+00 0.  1.
        -11    1    4    4    0    0  0.21949623101E-02  0.20322468112E-01 -0.28923403006E-01  0.35420967409E-01  0.51100000000E-03 0.  1.
         11    1    4    4    0    0  0.33560595635E-01  0.37807405328E-01 -0.79612490849E-01  0.94308659714E-01  0.51100000000E-03 0. -1.
</event>
<event>
 8    1  0.1078274E+005  0.1043930E+01  0.7957747E-01            NaN
         13   -1    0    0    0    0  0.00000000000E+00  0.00000000000E+00  0.74505805969E-08  0.10566000000E+00  0.10566000000E+00 0.  1.
     999900   -1    0    0    0    0 -0.00000000000E+00 -0.00000000000E+00 -0.74505805969E-08  0.93827000000E+00  0.93827000000E+00 0. -1.
     999902    2    1    2    0    0 -0.89722340978E-03  0.19580011897E-01 -0.54415775567E-02  0.10235881062E+01  0.10233859578E+01 0.  0.
     999903    2    3    3    0    0  0.12978743934E+00  0.25468882573E-01  0.27040825868E-02  0.13388056347E+00  0.20573036256E-01 0.  0.
         14    1    1    2    0    0  0.89722340978E-03 -0.19580011897E-01  0.54415775567E-02  0.20341893767E-01  0.00000000000E+00 0.  1.
     999901    1    3    3    0    0 -0.13068466275E+00 -0.58888706757E-02 -0.81456601435E-02  0.88970754277E+00  0.88000000000E+00 0. -1.
        -11    1    4    4    0    0  0.16258300793E-01  0.10032134783E-01  0.27330025617E-02  0.19305607916E-01  0.51100000000E-03 0. -1.
         11    1    4    4    0    0  0.11352913855E+00  0.15436747790E-01 -0.28919974923E-04  0.11457495555E+00  0.51100000000E-03 0.  1.
</event>
<event>
 8    1  0.1078274E+005  0.1043930E+01  0.7957747E-01            NaN
         13   -1    0    0    0    0  0.00000000000E+00  0.00000000000E+00  0.74505805969E-08  0.10566000000E+00  0.10566000000E+00 0.  1.
     999900   -1    0    0    0    0 -0.00000000000E+00 -0.00000000000E+00 -0.74505805969E-08  0.93827000000E+00  0.93827000000E+00 0.  1.
     999902    2    1    2    0    0 -0.20487747746E-01 -0.36597205229E-02  0.72331052923E-02  0.10218968619E+01  0.10216593058E+01 0.  0.
     999903    2    3    3    0    0  0.30115689868E-01  0.88752551942E-02 -0.12506357921E+00  0.13048211767E+00  0.19973964457E-01 0.  0.
         14    1    1    2    0    0  0.20487747746E-01  0.36597205229E-02 -0.72331052923E-02  0.22033138092E-01  0.00000000000E+00 0. -1.
     999901    1    3    3    0    0 -0.50603437615E-01 -0.12534975717E-01  0.13229668450E+00  0.89141474424E+00  0.88000000000E+00 0. -1.
        -11    1    4    4    0    0  0.14801900128E-01 -0.52869015172E-02 -0.42289582552E-01  0.45118926057E-01  0.51100000000E-03 0.  1.
         11    1    4    4    0    0  0.15313789740E-01  0.14162156711E-01 -0.82773996656E-01  0.85363191613E-01  0.51100000000E-03 0. -1.
</event>
<event>
 8    1  0.1078274E+005  0.1043930E+01  0.7957747E-01            NaN
         13   -1    0    0    0    0  0.00000000000E+00  0.00000000000E+00  0.74505805969E-08  0.10566000000E+00  0.10566000000E+00 0. -1.
     999900   -1    0    0    0    0 -0.00000000000E+00 -0.00000000000E+00 -0.74505805969E-08  0.93827000000E+00  0.93827000000E+00 0. -1.
     999902    2    1    2    0    0  0.20994528498E-01 -0.34084500346E-02  0.10418818508E-01  0.10202458378E+01  0.10199708967E+01 0.  0.
     999903    2    3    3    0    0  0.10860246652E+00 -0.60361508554E-01  0.44119318331E-01  0.13342312423E+00  0.20425679395E-01 0.  0.
         14    1    1    2    0    0 -0.20994528498E-01  0.34084500346E-02 -0.10418818508E-01  0.23684162168E-01  0.00000000000E+00 0.  1.
     999901    1    3    3    0    0 -0.87607938023E-01  0.56953058519E-01 -0.33700499823E-01  0.88682271361E+00  0.88000000000E+00 0. -1.
        -11    1    4    4    0    0  0.78519514294E-01 -0.35557257858E-01  0.23644615813E-01  0.89380991767E-01  0.51100000000E-03 0.  1.
         11    1    4    4    0    0  0.30082952228E-01 -0.24804250696E-01  0.20474702519E-01  0.44042132459E-01  0.51100000000E-03 0. -1.
</event>
<event>
 8    1  0.1078274E+005  0.1043930E+01  0.7957747E-01            NaN
         13   -1    0    0    0    0  0.00000000000E+00  0.00000000000E+00  0.74505805969E-08  0.10566000000E+00  0.10566000000E+00 0. -1.
     999900   -1    0    0    0    0 -0.00000000000E+00 -0.00000000000E+00 -0.74505805969E-08  0.93827000000E+00  0.93827000000E+00 0. -1.
     999902    2    1    2    0    0  0.56189598096E-03  0.22527763403E-01  0.78262142140E-02  0.10200749066E+01  0.10197959353E+01 0.  0.
     999903    2    3    3    0    0  0.69520951067E-01 -0.13068742278E-01 -0.10640504030E+00  0.12930487906E+00  0.19843499863E-01 0.  0.
         14    1    1    2    0    0 -0.56189598096E-03 -0.22527763403E-01 -0.78262142140E-02  0.23855093375E-01  0.00000000000E+00 0.  1.
     999901    1    3    3    0    0 -0.68959055086E-01  0.35596505680E-01  0.11423125451E+00  0.89077002756E+00  0.88000000000E+00 0. -1.
        -11    1    4    4    0    0  0.25562340613E-01  0.23441110094E-02 -0.49508588591E-01  0.55769970229E-01  0.51100000000E-03 0.  1.
         11    1    4    4    0    0  0.43958610453E-01 -0.15412853287E-01 -0.56896451707E-01  0.73534908834E-01  0.51100000000E-03 0. -1.
</event>
<event>
 8    1  0.1078274E+005  0.1043930E+01  0.7957747E-01            NaN
         13   -1    0    0    0    0  0.00000000000E+00  0.00000000000E+00  0.74505805969E-08  0.10566000000E+00  0.10566000000E+00 0. -1.
     999900   -1    0    0    0    0 -0.00000000000E+00 -0.00000000000E+00 -0.74505805969E-08  0.93827000000E+00  0.93827000000E+00 0.  1.
     999902    2    1    2    0    0 -0.10423803020E-01  0.16827352368E-01 -0.13568406417E-01  0.10199317269E+01  0.10196493566E+01 0.  0.
     999903    2    3    3    0    0 -0.45248548766E-01 -0.36818123374E-01  0.11283237068E+00  0.12860251928E+00  0.20111159008E-01 0.  0.
         14    1    1    2    0    0  0.10423803020E-01 -0.16827352368E-01  0.13568406417E-01  0.23998273059E-01  0.00000000000E+00 0. -1.
     999901    1    3    3    0    0  0.34824745746E-01  0.53645475742E-01 -0.12640077710E+00  0.89132920766E+00  0.88000000000E+00 0.  1.
        -11    1    4    4    0    0 -0.23705200025E-01 -0.30994160228E-01  0.64933241096E-01  0.75757253096E-01  0.51100000000E-03 0. -1.
         11    1    4    4    0    0 -0.21543348741E-01 -0.58239631464E-02  0.47899129585E-01  0.52845266181E-01  0.51100000000E-03 0.  1.
</event>
<event>
 8    1  0.1078274E+005  0.1043930E+01  0.7957747E-01            NaN
         13   -1    0    0    0    0  0.00000000000E+00  0.00000000000E+00  0.74505805969E-08  0.10566000000E+00  0.10566000000E+00 0. -1.
     999900   -1    0    0    0    0 -0.00000000000E+00 -0.00000000000E+00 -0.74505805969E-08  0.93827000000E+00  0.93827000000E+00 0.  1.
     999902    2    1    2    0    0 -0.89691248645E-03 -0.11556833788E-01  0.25458736244E-01  0.10159565821E+01  0.10155713981E+01 0.  0.
     999903    2    3    3    0    0 -0.78693471687E-01 -0.88473841030E-01 -0.40485599102E-01  0.12673378323E+00  0.20052058345E-01 0.  0.
         14    1    1    2    0    0  0.89691248645E-03  0.11556833788E-01 -0.25458736244E-01  0.27973417924E-01  0.00000000000E+00 0.  1.
     999901    1    3    3    0    0  0.77796559201E-01  0.76917007242E-01  0.65944335346E-01  0.88922279885E+00  0.88000000000E+00 0.  1.
        -11    1    4    4    0    0 -0.22626557015E-01 -0.13583116522E-01 -0.63689059358E-02  0.27153014945E-01  0.51100000000E-03 0.  1.
         11    1    4    4    0    0 -0.56066914672E-01 -0.74890724508E-01 -0.34116693166E-01  0.99580768283E-01  0.51100000000E-03 0. -1.
</event>
<event>
 8    1  0.1078274E+005  0.1043930E+01  0.7957747E-01            NaN
         13   -1    0    0    0    0  0.00000000000E+00  0.00000000000E+00  0.74505805969E-08  0.10566000000E+00  0.10566000000E+00 0.  1.
     999900   -1    0    0    0    0 -0.00000000000E+00 -0.00000000000E+00 -0.74505805969E-08  0.93827000000E+00  0.93827000000E+00 0.  1.
     999902    2    1    2    0    0  0.18326128244E-01 -0.22814597941E-02  0.14000618535E-01  0.10207552432E+01  0.10204921347E+01 0.  0.
     999903    2    3    3    0    0 -0.82911189824E-01  0.22627131530E-01  0.96506872149E-01  0.13076832507E+00  0.20013145424E-01 0.  0.
         14    1    1    2    0    0 -0.18326128244E-01  0.22814597941E-02 -0.14000618535E-01  0.23174756839E-01  0.00000000000E+00 0. -1.
     999901    1    3    3    0    0  0.10123731807E+00 -0.24908591324E-01 -0.82506253614E-01  0.88998691809E+00  0.88000000000E+00 0.  1.
        -11    1    4    4    0    0 -0.69205377236E-02  0.81663682302E-02  0.14543821041E-01  0.18065637657E-01  0.51100000000E-03 0. -1.
         11    1    4    4    0    0 -0.75990652101E-01  0.14460763300E-01  0.81963051107E-01  0.11270268741E+00  0.51100000000E-03 0.  1.
</event>
<event>
 8    1  0.1078274E+005  0.1043930E+01  0.7957747E-01            NaN
         13   -1    0    0    0    0  0.00000000000E+00  0.00000000000E+00  0.74505805969E-08  0.10566000000E+00  0.10566000000E+00 0. -1.
     999900   -1    0    0    0    0 -0.00000000000E+00 -0.00000000000E+00 -0.74505805969E-08  0.93827000000E+00  0.93827000000E+00 0.  1.
     999902    2    1    2    0    0 -0.36336991547E-02 -0.13280245376E-01  0.21348760490E-01  0.10185264912E+01  0.10182096419E+01 0.  0.
     999903    2    3    3    0    0 -0.67806756186E-01  0.10574872579E+00 -0.10608294044E-01  0.12762395409E+00  0.19869286986E-01 0.  0.
         14    1    1    2    0    0  0.36336991547E-02  0.13280245376E-01 -0.21348760490E-01  0.25403508838E-01  0.00000000000E+00 0.  1.
     999901    1    3    3    0    0  0.64173057031E-01 -0.11902897116E+00  0.31957054534E-01  0.89090253707E+00  0.88000000000E+00 0. -1.
        -11    1    4    4    0    0 -0.23575802041E-01  0.25837960567E-01 -0.96287802778E-02  0.36282133051E-01  0.51100000000E-03 0. -1.
         11    1    4    4    0    0 -0.44230954145E-01  0.79910765220E-01 -0.97951376575E-03  0.91341821040E-01  0.51100000000E-03 0.  1.
</event>
<event>
 8    1  0.1078274E+005  0.1043930E+01  0.7957747E-01            NaN
         13   -1    0    0    0    0  0.00000000000E+00  0.00000000000E+00  0.74505805969E-08  0.10566000000E+00  0.10566000000E+00 0. -1.
     999900   -1    0    0    0    0 -0.00000000000E+00 -0.00000000000E+00 -0.74505805969E-08  0.93827000000E+00  0.93827000000E+00 0. -1.
     999902    2    1    2    0    0  0.32987413349E-02  0.21778282376E-01  0.95783375450E-02  0.10199108446E+01  0.10196279768E+01 0.  0.
     999903    2    3    3    0    0 -0.95277443339E-01  0.61283845115E-01  0.64144525117E-01  0.13184810889E+00  0.20878286178E-01 0.  0.
         14    1    1    2    0    0 -0.32987413349E-02 -0.21778282376E-01 -0.95783375450E-02  0.24019155434E-01  0.00000000000E+00 0. -1.
     999901    1    3    3    0    0  0.98576184674E-01 -0.39505562739E-01 -0.54566187572E-01  0.88806273568E+00  0.88000000000E+00 0. -1.
        -11    1    4    4    0    0 -0.74483002236E-01  0.37537420818E-01  0.42878046082E-01  0.93784665807E-01  0.51100000000E-03 0. -1.
         11    1    4    4    0    0 -0.20794441103E-01  0.23746424297E-01  0.21266479035E-01  0.38063443082E-01  0.51100000000E-03 0.  1.
</event>
<event>
 8    1  0.1128335E+005  0.1043930E+01  0.7957747E-01            NaN
         13   -1    0    0    0    0  0.00000000000E+00  0.00000000000E+00  0.74505805969E-08  0.10566000000E+00  0.10566000000E+00 0.  1.
     999900   -1    0    0    0    0 -0.00000000000E+00 -0.00000000000E+00 -0.74505805969E-08  0.93827000000E+00  0.93827000000E+00 0. -1.
     999902    2    1    2    0    0 -0.34010612209E-02 -0.20804852341E-01 -0.74248310241E-02  0.10215796708E+01  0.10213351490E+01 0.  0.
     999903    2    3    3    0    0 -0.12923484938E+00  0.10619042297E-01 -0.13435290562E-01  0.13205298263E+00  0.21049295382E-01 0.  0.
         14    1    1    2    0    0  0.34010612209E-02  0.20804852341E-01  0.74248310241E-02  0.22350329172E-01  0.00000000000E+00 0. -1.
     999901    1    3    3    0    0  0.12583378815E+00 -0.31423894638E-01  0.60104595377E-02  0.88952668820E+00  0.88000000000E+00 0. -1.
        -11    1    4    4    0    0 -0.78644217907E-01  0.16560365385E-01 -0.10106512367E-01  0.81003465513E-01  0.51100000000E-03 0.  1.
         11    1    4    4    0    0 -0.50590631469E-01 -0.59413230880E-02 -0.33287781952E-02  0.51049517116E-01  0.51100000000E-03 0. -1.
</event>
<event>
 8    1  0.1137388E+005  0.1043930E+01  0.7957747E-01            NaN
         13   -1    0    0    0    0  0.00000000000E+00  0.00000000000E+00  0.74505805969E-08  0.10566000000E+00  0.10566000000E+00 0.  1.
     999900   -1    0    0    0    0 -0.00000000000E+00 -0.00000000000E+00 -0.74505805969E-08  0.93827000000E+00  0.93827000000E+00 0.  1.
     999902    2    1    2    0    0 -0.14756006196E-01 -0.60463452722E-02  0.17480048801E-01  0.10202688480E+01  0.10199944470E+01 0.  0.
     999903    2    3    3    0    0  0.15159982658E-01  0.91824508258E-01  0.90468341212E-01  0.13133636391E+00  0.20078703457E-01 0.  0.
         14    1    1    2    0    0  0.14756006196E-01  0.60463452722E-02 -0.17480048801E-01  0.23661152045E-01  0.00000000000E+00 0. -1.
     999901    1    3    3    0    0 -0.29915988854E-01 -0.97870853530E-01 -0.72988292411E-01  0.88893248404E+00  0.88000000000E+00 0.  1.
        -11    1    4    4    0    0 -0.29143576444E-02  0.43582138681E-01  0.40731041088E-01  0.59725832951E-01  0.51100000000E-03 0. -1.
         11    1    4    4    0    0  0.18074340302E-01  0.48242369577E-01  0.49737300124E-01  0.71610530960E-01  0.51100000000E-03 0.  1.
</event>
<event>
 8    1  0.1078274E+005  0.1043930E+01  0.7957747E-01            NaN
         13   -1    0    0    0    0  0.00000000000E+00  0.00000000000E+00  0.74505805969E-08  0.10566000000E+00  0.10566000000E+00 0.  1.
     999900   -1    0    0    0    0 -0.00000000000E+00 -0.00000000000E+00 -0.74505805969E-08  0.93827000000E+00  0.93827000000E+00 0. -1.
     999902    2    1    2    0    0 -0.40133785841E-02  0.14112033944E-01 -0.13662969105E-01  0.10238817224E+01  0.10236854244E+01 0.  0.
     999903    2    3    3    0    0 -0.71368016561E-01  0.10381559308E+00 -0.47703589908E-01  0.13610802397E+00  0.19459972875E-01 0.  0.
         14    1    1    2    0    0  0.40133785841E-02 -0.14112033944E-01  0.13662969105E-01  0.20048277594E-01  0.00000000000E+00 0.  1.
     999901    1    3    3    0    0  0.67354637977E-01 -0.89703559131E-01  0.34040620802E-01  0.88777369844E+00  0.88000000000E+00 0. -1.
        -11    1    4    4    0    0 -0.32842261905E-01  0.64734067505E-01 -0.26653791984E-01  0.77329162745E-01  0.51100000000E-03 0. -1.
         11    1    4    4    0    0 -0.38525754656E-01  0.39081525571E-01 -0.21049797923E-01  0.58778861220E-01  0.51100000000E-03 0.  1.
</event>
<event>
 8    1  0.1078274E+005  0.1043930E+01  0.7957747E-01            NaN
         13   -1    0    0    0    0  0.00000000000E+00  0.00000000000E+00  0.74505805969E-08  0.10566000000E+00  0.10566000000E+00 0. -1.
     999900   -1    0    0    0    0 -0.00000000000E+00 -0.00000000000E+00 -0.74505805969E-08  0.93827000000E+00  0.93827000000E+00 0.  1.
     999902    2    1    2    0    0 -0.13072034153E-02  0.39387284863E-02  0.22443567152E-01  0.10211059760E+01  0.10208508599E+01 0.  0.
     999903    2    3    3    0    0 -0.11054861006E+00 -0.10054411733E-01 -0.65209124542E-01  0.12991997567E+00  0.17460921338E-01 0.  0.
         14    1    1    2    0    0  0.13072034153E-02 -0.39387284863E-02 -0.22443567152E-01  0.22824023952E-01  0.00000000000E+00 0.  1.
     999901    1    3    3    0    0  0.10924140665E+00  0.13993140220E-01  0.87652691694E-01  0.89118600037E+00  0.88000000000E+00 0. -1.
        -11    1    4    4    0    0 -0.46727117821E-01 -0.12712195974E-01 -0.30274848671E-01  0.57112617252E-01  0.51100000000E-03 0.  1.
         11    1    4    4    0    0 -0.63821492240E-01  0.26577842401E-02 -0.34934275871E-01  0.72807358423E-01  0.51100000000E-03 0. -1.
</event>
<event>
 8    1  0.1078274E+005  0.1043930E+01  0.7957747E-01            NaN
         13   -1    0    0    0    0  0.00000000000E+00  0.00000000000E+00  0.74505805969E-08  0.10566000000E+00  0.10566000000E+00 0. -1.
     999900   -1    0    0    0    0 -0.00000000000E+00 -0.00000000000E+00 -0.74505805969E-08  0.93827000000E+00  0.93827000000E+00 0. -1.
     999902    2    1    2    0    0  0.13985133173E-01 -0.39312101773E-03 -0.18922578522E-01  0.10203969919E+01  0.10201255896E+01 0.  0.
     999903    2    3    3    0    0 -0.11805597011E+00  0.20478035986E-01  0.40971066714E-01  0.12828841838E+00  0.20560348843E-01 0.  0.
         14    1    1    2    0    0 -0.13985133173E-01  0.39312101773E-03  0.18922578522E-01  0.23533008136E-01  0.00000000000E+00 0. -1.
     999901    1    3    3    0    0  0.13204110329E+00 -0.20871157004E-01 -0.59893645236E-01  0.89210857349E+00  0.88000000000E+00 0. -1.
        -11    1    4    4    0    0 -0.52958481291E-01  0.98584466005E-02  0.77191921832E-02  0.54420922070E-01  0.51100000000E-03 0.  1.
         11    1    4    4    0    0 -0.65097488822E-01  0.10619589386E-01  0.33251874531E-01  0.73867496306E-01  0.51100000000E-03 0. -1.
</event>
<event>
 8    1  0.1078274E+005  0.1043930E+01  0.7957747E-01            NaN
         13   -1    0    0    0    0  0.00000000000E+00  0.00000000000E+00  0.74505805969E-08  0.10566000000E+00  0.10566000000E+00 0.  1.
     999900   -1    0    0    0    0 -0.00000000000E+00 -0.00000000000E+00 -0.74505805969E-08  0.93827000000E+00  0.93827000000E+00 0.  1.
     999902    2    1    2    0    0  0.61622001626E-02  0.16108818355E-01 -0.15769243992E-01  0.10205604515E+01  0.10202928498E+01 0.  0.
     999903    2    3    3    0    0  0.78500834045E-01 -0.97705576333E-01 -0.28949883766E-01  0.13018956046E+00  0.20061537619E-01 0.  0.
         14    1    1    2    0    0 -0.61622001626E-02 -0.16108818355E-01  0.15769243992E-01  0.23369548471E-01  0.00000000000E+00 0.  1.
     999901    1    3    3    0    0 -0.72338633883E-01  0.11381439469E+00  0.13180639774E-01  0.89037089106E+00  0.88000000000E+00 0.  1.
        -11    1    4    4    0    0  0.49819744744E-01 -0.49179036887E-01 -0.99887693722E-02  0.70715071025E-01  0.51100000000E-03 0.  1.
         11    1    4    4    0    0  0.28681089302E-01 -0.48526539446E-01 -0.18961114394E-01  0.59474489440E-01  0.51100000000E-03 0. -1.
</event>
<event>
 8    1  0.1078274E+005  0.1043930E+01  0.7957747E-01            NaN
         13   -1    0    0    0    0  0.00000000000E+00  0.00000000000E+00  0.74505805969E-08  0.10566000000E+00  0.10566000000E+00 0.  1.
     999900   -1    0    0    0    0 -0.00000000000E+00 -0.00000000000E+00 -0.74505805969E-08  0.93827000000E+00  0.93827000000E+00 0. -1.
     999902    2    1    2    0    0 -0.89873874549E-02  0.16835748743E-01 -0.14292971701E-01  0.10200866653E+01  0.10198079722E+01 0.  0.
     999903    2    3    3    0    0  0.62238612054E-01  0.10396438786E+00  0.45093884750E-01  0.13093463024E+00  0.20692515050E-01 0.  0.
         14    1    1    2    0    0  0.89873874549E-02 -0.16835748743E-01  0.14292971701E-01  0.23843334688E-01  0.00000000000E+00 0.  1.
     999901    1    3    3    0    0 -0.71225999509E-01 -0.87128639119E-01 -0.59386856451E-01  0.88915203508E+00  0.88000000000E+00 0. -1.
        -11    1    4    4    0    0  0.12965553267E-01  0.31040082971E-01  0.42600018473E-02  0.33911665531E-01  0.51100000000E-03 0.  1.
         11    1    4    4    0    0  0.49273058787E-01  0.72924304891E-01  0.40833882902E-01  0.97022964704E-01  0.51100000000E-03 0. -1.
</event>
<event>
 7    1  0.1078274E+005  0.1043930E+01  0.7957747E-01            NaN
         13   -1    0    0    0    0  0.00000000000E+00  0.00000000000E+00  0.74505805969E-08  0.10566000000E+00  0.10566000000E+00 0. -1.
     999900   -1    0    0    0    0 -0.00000000000E+00 -0.00000000000E+00 -0.74505805969E-08  0.93827000000E+00  0.93827000000E+00 0. -1.
     999903    2    1    2    0    0 -0.64417412439E-01 -0.58169778172E-01 -0.28836331540E-01  0.93157663124E-01  0.17705650625E-01 0.  0.
         14    1    1    2    0    0  0.18089669517E-01  0.52974849560E-01  0.41111272689E-01  0.69452916219E-01  0.00000000000E+00 0.  1.
     999901    1    1    2    0    0  0.46327742922E-01  0.51949286115E-02 -0.12274941149E-01  0.88131942066E+00  0.88000000000E+00 0. -1.
        -11    1    3    3    0    0 -0.21316037185E-01 -0.24435718205E-01 -0.28173192883E-02  0.32552667701E-01  0.51100000000E-03 0.  1.
         11    1    3    3    0    0 -0.43101375254E-01 -0.33734059967E-01 -0.26019012252E-01  0.60604995423E-01  0.51100000000E-03 0. -1.
</event>
<event>
 8    1  0.1078274E+005  0.1043930E+01  0.7957747E-01            NaN
         13   -1    0    0    0    0  0.00000000000E+00  0.00000000000E+00  0.74505805969E-08  0.10566000000E+00  0.10566000000E+00 0. -1.
     999900   -1    0    0    0    0 -0.00000000000E+00 -0.00000000000E+00 -0.74505805969E-08  0.93827000000E+00  0.93827000000E+00 0.  1.
     999902    2    1    2    0    0  0.96963585812E-02 -0.16805774447E-01  0.14429638356E-01  0.10197500933E+01  0.10194633809E+01 0.  0.
     999903    2    3    3    0    0  0.51380676143E-01 -0.50914386765E-01 -0.10610254539E+00  0.12990236078E+00  0.19611846902E-01 0.  0.
         14    1    1    2    0    0 -0.96963585812E-02  0.16805774447E-01 -0.14429638356E-01  0.24179906691E-01  0.00000000000E+00 0. -1.
     999901    1    3    3    0    0 -0.41684317562E-01  0.34108612317E-01  0.12053218374E+00  0.88984773253E+00  0.88000000000E+00 0. -1.
        -11    1    4    4    0    0  0.27672531379E-01 -0.40208576512E-01 -0.65751356673E-01  0.81890174279E-01  0.51100000000E-03 0. -1.
         11    1    4    4    0    0  0.23708144764E-01 -0.10705810253E-01 -0.40351188713E-01  0.48012186503E-01  0.51100000000E-03 0.  1.
</event>
<event>
 8    1  0.1078274E+005  0.1043930E+01  0.7957747E-01            NaN
         13   -1    0    0    0    0  0.00000000000E+00  0.00000000000E+00  0.74505805969E-08  0.10566000000E+00  0.10566000000E+00 0.  1.
     999900   -1    0    0    0    0 -0.00000000000E+00 -0.00000000000E+00 -0.74505805969E-08  0.93827000000E+00  0.93827000000E+00 0.  1.
     999902    2    1    2    0    0  0.30768703677E-02  0.74085984635E-02  0.22424114805E-01  0.10201141358E+01  0.10198360921E+01 0.  0.
     999903    2    3    3    0    0  0.21317517539E-01 -0.69907980514E-01  0.10961436713E+00  0.13224437357E+00  0.11476173895E-01 0.  0.
         14    1    1    2    0    0 -0.30768703677E-02 -0.74085984635E-02 -0.22424114805E-01  0.23815864192E-01  0.00000000000E+00 0. -1.
     999901    1    3    3    0    0 -0.18240647172E-01  0.77316578977E-01 -0.87190252322E-01  0.88786976224E+00  0.88000000000E+00 0.  1.
        -11    1    4    4    0    0  0.78959571655E-02 -0.44162995083E-01  0.69473343782E-01  0.82701408038E-01  0.51100000000E-03 0.  1.
         11    1    4    4    0    0  0.13421560374E-01 -0.25744985431E-01  0.40141023344E-01  0.49542965534E-01  0.51100000000E-03 0. -1.
</event>
<event>
 8    1  0.1078274E+005  0.1043930E+01  0.7957747E-01            NaN
         13   -1    0    0    0    0  0.00000000000E+00  0.00000000000E+00  0.74505805969E-08  0.10566000000E+00  0.10566000000E+00 0. -1.
     999900   -1    0    0    0    0 -0.00000000000E+00 -0.00000000000E+00 -0.74505805969E-08  0.93827000000E+00  0.93827000000E+00 0. -1.
     999902    2    1    2    0    0  0.19909942812E-01  0.83077165971E-02 -0.93725305290E-02  0.10204083439E+01  0.10201372064E+01 0.  0.
     999903    2    3    3    0    0  0.94069061402E-01  0.20064883779E-01  0.87936245317E-01  0.13186639006E+00  0.20109045554E-01 0.  0.
         14    1    1    2    0    0 -0.19909942812E-01 -0.83077165971E-02  0.93725305290E-02  0.23521656114E-01  0.00000000000E+00 0. -1.
     999901    1    3    3    0    0 -0.74159118590E-01 -0.11757167182E-01 -0.97308775846E-01  0.88854195382E+00  0.88000000000E+00 0. -1.
        -11    1    4    4    0    0  0.70500645083E-01  0.13629651383E-01  0.76381984657E-01  0.10483595306E+00  0.51100000000E-03 0.  1.
         11    1    4    4    0    0  0.23568416319E-01  0.64352323965E-02  0.11554260661E-01  0.27030436996E-01  0.51100000000E-03 0. -1.
</event>
<event>
 8    1  0.1078274E+005  0.1043930E+01  0.7957747E-01            NaN
         13   -1    0    0    0    0  0.00000000000E+00  0.00000000000E+00  0.74505805969E-08  0.10566000000E+00  0.10566000000E+00 0. -1.
     999900   -1    0    0    0    0 -0.00000000000E+00 -0.00000000000E+00 -0.74505805969E-08  0.93827000000E+00  0.93827000000E+00 0.  1.
     999902    2    1    2    0    0 -0.21221682385E-02 -0.12248972831E-01  0.19701032330E-01  0.10206346870E+01  0.10203688023E+01 0.  0.
     999903    2    3    3    0    0  0.20042029871E-01 -0.17700068048E-01 -0.12445203823E+00  0.12861390591E+00  0.18391617772E-01 0.  0.
         14    1    1    2    0    0  0.21221682385E-02  0.12248972831E-01 -0.19701032330E-01  0.23295313012E-01  0.00000000000E+00 0.  1.
     999901    1    3    3    0    0 -0.22164198109E-01  0.54510952168E-02  0.14415307056E+00  0.89202078107E+00  0.88000000000E+00 0. -1.
        -11    1    4    4    0    0  0.12646717231E-01 -0.14817868677E-01 -0.48834800083E-01  0.52579535078E-01  0.51100000000E-03 0.  1.
         11    1    4    4    0    0  0.73953126395E-02 -0.28821993705E-02 -0.75617238147E-01  0.76034370835E-01  0.51100000000E-03 0. -1.
</event>
<event>
 8    1  0.1078274E+005  0.1043930E+01  0.7957747E-01            NaN
         13   -1    0    0    0    0  0.00000000000E+00  0.00000000000E+00  0.74505805969E-08  0.10566000000E+00  0.10566000000E+00 0. -1.
     999900   -1    0    0    0    0 -0.00000000000E+00 -0.00000000000E+00 -0.74505805969E-08  0.93827000000E+00  0.93827000000E+00 0. -1.
     999902    2    1    2    0    0 -0.22208785074E-01 -0.64340412484E-02  0.99389547195E-02  0.10187623652E+01  0.10184514455E+01 0.  0.
     999903    2    3    3    0    0 -0.35007285933E-02 -0.16223772599E-01  0.12787572562E+00  0.13064361629E+00  0.20978259585E-01 0.  0.
         14    1    1    2    0    0  0.22208785074E-01  0.64340412484E-02 -0.99389547195E-02  0.25167634814E-01  0.00000000000E+00 0. -1.
     999901    1    3    3    0    0 -0.18708056480E-01  0.97897313502E-02 -0.11793677090E+00  0.88811874890E+00  0.88000000000E+00 0. -1.
        -11    1    4    4    0    0 -0.98977891184E-02 -0.10113784694E-02  0.57535402083E-01  0.58391546731E-01  0.51100000000E-03 0.  1.
         11    1    4    4    0    0  0.63970605251E-02 -0.15212394129E-01  0.70340323538E-01  0.72252069554E-01  0.51100000000E-03 0. -1.
</event>
<event>
 8    1  0.1078274E+005  0.1043930E+01  0.7957747E-01            NaN
         13   -1    0    0    0    0  0.00000000000E+00  0.00000000000E+00  0.74505805969E-08  0.10566000000E+00  0.10566000000E+00 0.  1.
     999900   -1    0    0    0    0 -0.00000000000E+00 -0.00000000000E+00 -0.74505805969E-08  0.93827000000E+00  0.93827000000E+00 0. -1.
     999902    2    1    2    0    0  0.15208371348E-01 -0.50481167362E-02 -0.12824092132E-01  0.10234059804E+01  0.10232001590E+01 0.  0.
     999903    2    3    3    0    0 -0.82262666898E-01 -0.10230499080E+00  0.10506853399E-02  0.13259061664E+00  0.18593283064E-01 0.  0.
         14    1    1    2    0    0 -0.15208371348E-01  0.50481167362E-02  0.12824092132E-01  0.20524019603E-01  0.00000000000E+00 0.  1.
     999901    1    3    3    0    0  0.97471038247E-01  0.97256874061E-01 -0.13874777471E-01  0.89081536375E+00  0.88000000000E+00 0.  1.
        -11    1    4    4    0    0 -0.20920834451E-01 -0.39900536127E-01  0.15627369342E-02  0.45082561652E-01  0.51100000000E-03 0. -1.
         11    1    4    4    0    0 -0.61341832448E-01 -0.62404454670E-01 -0.51205159431E-03  0.87508054992E-01  0.51100000000E-03 0.  1.
</event>
<event>
 8    1  0.1078274E+005  0.1043930E+01  0.7957747E-01            NaN
         13   -1    0    0    0    0  0.00000000000E+00  0.00000000000E+00  0.74505805969E-08  0.10566000000E+00  0.10566000000E+00 0.  1.
     999900   -1    0    0    0    0 -0.00000000000E+00 -0.00000000000E+00 -0.74505805969E-08  0.93827000000E+00  0.93827000000E+00 0. -1.
     999902    2    1    2    0    0 -0.12567783631E-01  0.41737562924E-02  0.22216832550E-01  0.10180657955E+01  0.10177371993E+01 0.  0.
     999903    2    3    3    0    0  0.88244395539E-01  0.81017515311E-01 -0.37152990936E-01  0.12700303971E+00  0.19962871290E-01 0.  0.
         14    1    1    2    0    0  0.12567783631E-01 -0.41737562924E-02 -0.22216832550E-01  0.25864204521E-01  0.00000000000E+00 0. -1.
     999901    1    3    3    0    0 -0.10081217917E+00 -0.76843759019E-01  0.59369823485E-01  0.89106275576E+00  0.88000000000E+00 0.  1.
        -11    1    4    4    0    0  0.63429740336E-01  0.46366942874E-01 -0.27977165154E-01  0.83403886250E-01  0.51100000000E-03 0.  1.
         11    1    4    4    0    0  0.24814655203E-01  0.34650572437E-01 -0.91758257814E-02  0.43599153465E-01  0.51100000000E-03 0. -1.
</event>
<event>
 8    1  0.1078274E+005  0.1043930E+01  0.7957747E-01            NaN
         13   -1    0    0    0    0  0.00000000000E+00  0.00000000000E+00  0.74505805969E-08  0.10566000000E+00  0.10566000000E+00 0. -1.
     999900   -1    0    0    0    0 -0.00000000000E+00 -0.00000000000E+00 -0.74505805969E-08  0.93827000000E+00  0.93827000000E+00 0.  1.
     999902    2    1    2    0    0  0.10251583796E-01 -0.21601344272E-01  0.64603129430E-03  0.10200107525E+01  0.10197302608E+01 0.  0.
     999903    2    3    3    0    0 -0.24696670671E-01 -0.93631751549E-01  0.87697631189E-01  0.13209874047E+00  0.19554341628E-01 0.  0.
         14    1    1    2    0    0 -0.10251583796E-01  0.21601344272E-01 -0.64603129430E-03  0.23919247503E-01  0.00000000000E+00 0.  1.
     999901    1    3    3    0    0  0.34948254466E-01  0.72030407277E-01 -0.87051599895E-01  0.88791201203E+00  0.88000000000E+00 0. -1.
        -11    1    4    4    0    0 -0.97329593986E-02 -0.36004024757E-01  0.21455243741E-01  0.43030325381E-01  0.51100000000E-03 0. -1.
         11    1    4    4    0    0 -0.14963711272E-01 -0.57627726791E-01  0.66242387448E-01  0.89068415086E-01  0.51100000000E-03 0.  1.
</event>
<event>
 8    1  0.1078274E+005  0.1043930E+01  0.7957747E-01            NaN
         13   -1    0    0    0    0  0.00000000000E+00  0.00000000000E+00  0.74505805969E-08  0.10566000000E+00  0.10566000000E+00 0. -1.
     999900   -1    0    0    0    0 -0.00000000000E+00 -0.00000000000E+00 -0.74505805969E-08  0.93827000000E+00  0.93827000000E+00 0.  1.
     999902    2    1    2    0    0  0.55228489062E-03 -0.14614671611E-01  0.18585976485E-01  0.10202797956E+01  0.10200056516E+01 0.  0.
     999903    2    3    3    0    0 -0.10183063504E+00  0.73680054066E-01  0.25248323715E-01  0.12993008470E+00  0.21121563897E-01 0.  0.
         14    1    1    2    0    0 -0.55228489062E-03  0.14614671611E-01 -0.18585976485E-01  0.23650204371E-01  0.00000000000E+00 0.  1.
     999901    1    3    3    0    0  0.10238291993E+00 -0.88294725677E-01 -0.66623472298E-02  0.89034971093E+00  0.88000000000E+00 0.  1.
        -11    1    4    4    0    0 -0.54522065306E-01  0.32848894381E-01  0.34694541207E-02  0.63749538823E-01  0.51100000000E-03 0.  1.
         11    1    4    4    0    0 -0.47308569731E-01  0.40831159685E-01  0.21778869594E-01  0.66180545880E-01  0.51100000000E-03 0. -1.
</event>
<event>
 8    1  0.1078274E+005  0.1043930E+01  0.7957747E-01            NaN
         13   -1    0    0    0    0  0.00000000000E+00  0.00000000000E+00  0.74505805969E-08  0.10566000000E+00  0.10566000000E+00 0. -1.
     999900   -1    0    0    0    0 -0.00000000000E+00 -0.00000000000E+00 -0.74505805969E-08  0.93827000000E+00  0.93827000000E+00 0. -1.
     999902    2    1    2    0    0 -0.20808869492E-01 -0.75817056314E-02  0.93197858113E-02  0.10199018973E+01  0.10196188163E+01 0.  0.
     999903    2    3    3    0    0 -0.10831046352E-01  0.10789249396E-01 -0.12670995869E+00  0.12920490041E+00  0.20118975909E-01 0.  0.
         14    1    1    2    0    0  0.20808869492E-01  0.75817056314E-02 -0.93197858113E-02  0.24028102659E-01  0.00000000000E+00 0. -1.
     999901    1    3    3    0    0 -0.99778231405E-02 -0.18370955027E-01  0.13602974450E+00  0.89069699693E+00  0.88000000000E+00 0.  1.
        -11    1    4    4    0    0 -0.71479808310E-02 -0.20267036331E-02 -0.86887048658E-01  0.87205627703E-01  0.51100000000E-03 0.  1.
         11    1    4    4    0    0 -0.36830655209E-02  0.12815953029E-01 -0.39822910035E-01  0.41999272712E-01  0.51100000000E-03 0. -1.
</event>
<event>
 8    1  0.1078274E+005  0.1043930E+01  0.7957747E-01            NaN
         13   -1    0    0    0    0  0.00000000000E+00  0.00000000000E+00  0.74505805969E-08  0.10566000000E+00  0.10566000000E+00 0.  1.
     999900   -1    0    0    0    0 -0.00000000000E+00 -0.00000000000E+00 -0.74505805969E-08  0.93827000000E+00  0.93827000000E+00 0.  1.
     999902    2    1    2    0    0 -0.10774439803E-01 -0.16271462881E-01 -0.15831570276E-01  0.10188005815E+01  0.10184906171E+01 0.  0.
     999903    2    3    3    0    0 -0.11921950469E+00  0.41211933977E-01  0.20485347320E-01  0.12954044434E+00  0.21198194839E-01 0.  0.
         14    1    1    2    0    0  0.10774439803E-01  0.16271462881E-01  0.15831570276E-01  0.25129418512E-01  0.00000000000E+00 0. -1.
     999901    1    3    3    0    0  0.10844506489E+00 -0.57483396858E-01 -0.36316917596E-01  0.88926013715E+00  0.88000000000E+00 0.  1.
        -11    1    4    4    0    0 -0.19778732023E-01  0.66827078227E-02 -0.44700727059E-02  0.21356486024E-01  0.51100000000E-03 0. -1.
         11    1    4    4    0    0 -0.99440772668E-01  0.34529226154E-01  0.24955420026E-01  0.10818395832E+00  0.51100000000E-03 0.  1.
</event>
<event>
 8    1  0.1078274E+005  0.1043930E+01  0.7957747E-01            NaN
         13   -1    0    0    0    0  0.00000000000E+00  0.00000000000E+00  0.74505805969E-08  0.10566000000E+00  0.10566000000E+00 0.  1.
     999900   -1    0    0    0    0 -0.00000000000E+00 -0.00000000000E+00 -0.74505805969E-08  0.93827000000E+00  0.93827000000E+00 0.  1.
     999902    2    1    2    0    0  0.64223549953E-02  0.42100944738E-02  0.22455822868E-01  0.10201974165E+01  0.10199213367E+01 0.  0.
     999903    2    3    3    0    0 -0.32429878114E-01  0.97851640259E-01 -0.75087151082E-01  0.12902242421E+00  0.19546488034E-01 0.  0.
         14    1    1    2    0    0 -0.64223549953E-02 -0.42100944738E-02 -0.22455822868E-01  0.23732583505E-01  0.00000000000E+00 0. -1.
     999901    1    3    3    0    0  0.38852233109E-01 -0.93641545785E-01  0.97542973950E-01  0.89117499229E+00  0.88000000000E+00 0. -1.
        -11    1    4    4    0    0 -0.56763551839E-02  0.44326666587E-01 -0.26644778837E-01  0.52031526396E-01  0.51100000000E-03 0.  1.
         11    1    4    4    0    0 -0.26753522930E-01  0.53524973672E-01 -0.48442372245E-01  0.76990897809E-01  0.51100000000E-03 0. -1.
</event>
<event>
 8    1  0.1078274E+005  0.1043930E+01  0.7957747E-01            NaN
         13   -1    0    0    0    0  0.00000000000E+00  0.00000000000E+00  0.74505805969E-08  0.10566000000E+00  0.10566000000E+00 0. -1.
     999900   -1    0    0    0    0 -0.00000000000E+00 -0.00000000000E+00 -0.74505805969E-08  0.93827000000E+00  0.93827000000E+00 0.  1.
     999902    2    1    2    0    0 -0.16620212572E-01 -0.69244930809E-02  0.90357643085E-02  0.10237848987E+01  0.10235866811E+01 0.  0.
     999903    2    3    3    0    0  0.11102254785E+00  0.63989929804E-01 -0.20486970214E-01  0.13126424261E+00  0.19745080202E-01 0.  0.
         14    1    1    2    0    0  0.16620212572E-01  0.69244930809E-02 -0.90357643085E-02  0.20145101315E-01  0.00000000000E+00 0.  1.
     999901    1    3    3    0    0 -0.12764276042E+00 -0.70914422885E-01  0.29522734522E-01  0.89252065607E+00  0.88000000000E+00 0. -1.
        -11    1    4    4    0    0  0.78414271670E-01  0.39566717354E-01 -0.60594383467E-02  0.88041473396E-01  0.51100000000E-03 0. -1.
         11    1    4    4    0    0  0.32608276183E-01  0.24423212450E-01 -0.14427531867E-01  0.43222769217E-01  0.51100000000E-03 0.  1.
</event>
<event>
 8    1  0.1078274E+005  0.1043930E+01  0.7957747E-01            NaN
         13   -1    0    0    0    0  0.00000000000E+00  0.00000000000E+00  0.74505805969E-08  0.10566000000E+00  0.10566000000E+00 0. -1.
     999900   -1    0    0    0    0 -0.00000000000E+00 -0.00000000000E+00 -0.74505805969E-08  0.93827000000E+00  0.93827000000E+00 0. -1.
     999902    2    1    2    0    0  0.13873972951E-01  0.47987931234E-02 -0.17776950700E-01  0.10208749460E+01  0.10206145794E+01 0.  0.
     999903    2    3    3    0    0 -0.10350873715E+00  0.76090020115E-01 -0.35997426936E-02  0.13011003145E+00  0.20295622906E-01 0.  0.
         14    1    1    2    0    0 -0.13873972951E-01 -0.47987931234E-02  0.17776950700E-01  0.23055054046E-01  0.00000000000E+00 0. -1.
     999901    1    3    3    0    0  0.11738271010E+00 -0.71291226992E-01 -0.14177208006E-01  0.89076491450E+00  0.88000000000E+00 0. -1.
        -11    1    4    4    0    0 -0.74623402870E-01  0.47780216471E-01 -0.99447969307E-02  0.89167042392E-01  0.51100000000E-03 0. -1.
         11    1    4    4    0    0 -0.28885334284E-01  0.28309803644E-01  0.63450542372E-02  0.40942989062E-01  0.51100000000E-03 0.  1.
</event>
<event>
 8    1  0.1078274E+005  0.1043930E+01  0.7957747E-01            NaN
         13   -1    0    0    0    0  0.00000000000E+00  0.00000000000E+00  0.74505805969E-08  0.10566000000E+00  0.10566000000E+00 0. -1.
     999900   -1    0    0    0    0 -0.00000000000E+00 -0.00000000000E+00 -0.74505805969E-08  0.93827000000E+00  0.93827000000E+00 0.  1.
     999902    2    1    2    0    0  0.15045294916E-01 -0.75255597059E-02  0.16719475108E-01  0.10202121629E+01  0.10199364302E+01 0.  0.
     999903    2    3    3    0    0  0.45790035519E-01 -0.10378903099E+00 -0.62202994319E-01  0.13091994370E+00  0.20048163260E-01 0.  0.
         14    1    1    2    0    0 -0.15045294916E-01  0.75255597059E-02 -0.16719475108E-01  0.23717837082E-01  0.00000000000E+00 0.  1.
     999901    1    3    3    0    0 -0.30744740603E-01  0.96263471282E-01  0.78922469427E-01  0.88929221922E+00  0.88000000000E+00 0. -1.
        -11    1    4    4    0    0  0.19162116727E-01 -0.22009355397E-01 -0.15215523056E-01  0.32914612337E-01  0.51100000000E-03 0. -1.
         11    1    4    4    0    0  0.26627918792E-01 -0.81779675592E-01 -0.46987471263E-01  0.98005331364E-01  0.51100000000E-03 0.  1.
</event>
<event>
 8    1  0.1078274E+005  0.1043930E+01  0.7957747E-01            NaN
         13   -1    0    0    0    0  0.00000000000E+00  0.00000000000E+00  0.74505805969E-08  0.10566000000E+00  0.10566000000E+00 0.  1.
     999900   -1    0    0    0    0 -0.00000000000E+00 -0.00000000000E+00 -0.74505805969E-08  0.93827000000E+00  0.93827000000E+00 0. -1.
     999902    2    1    2    0    0 -0.20446824503E-01 -0.69127244858E-02 -0.10856266961E-01  0.10197697656E+01  0.10194835251E+01 0.  0.
     999903    2    3    3    0    0  0.37139646097E-02 -0.10821768341E+00 -0.71685849908E-01  0.13154306226E+00  0.20972735056E-01 0.  0.
         14    1    1    2    0    0  0.20446824503E-01  0.69127244858E-02  0.10856266961E-01  0.24160234362E-01  0.00000000000E+00 0.  1.
     999901    1    3    3    0    0 -0.24160789113E-01  0.10130495892E+00  0.60829582947E-01  0.88822670338E+00  0.88000000000E+00 0.  1.
        -11    1    4    4    0    0  0.73146914097E-02 -0.49464313292E-01 -0.43497949515E-01  0.66276358778E-01  0.51100000000E-03 0. -1.
         11    1    4    4    0    0 -0.36007268000E-02 -0.58753370119E-01 -0.28187900393E-01  0.65266703481E-01  0.51100000000E-03 0.  1.
</event>
<event>
 8    1  0.1078274E+005  0.1043930E+01  0.7957747E-01            NaN
         13   -1    0    0    0    0  0.00000000000E+00  0.00000000000E+00  0.74505805969E-08  0.10566000000E+00  0.10566000000E+00 0. -1.
     999900   -1    0    0    0    0 -0.00000000000E+00 -0.00000000000E+00 -0.74505805969E-08  0.93827000000E+00  0.93827000000E+00 0.  1.
     999902    2    1    2    0    0  0.14888679678E-01  0.80083618083E-02 -0.17439480135E-01  0.10196412761E+01  0.10193519460E+01 0.  0.
     999903    2    3    3    0    0  0.12309729011E+00  0.15317354561E-01  0.38565266469E-01  0.13121623346E+00  0.18516370130E-01 0.  0.
         14    1    1    2    0    0 -0.14888679678E-01 -0.80083618083E-02  0.17439480135E-01  0.24288723902E-01  0.00000000000E+00 0. -1.
     999901    1    3    3    0    0 -0.10820861043E+00 -0.73089927525E-02 -0.56004746604E-01  0.88842504264E+00  0.88000000000E+00 0.  1.
        -11    1    4    4    0    0  0.38678976218E-01 -0.80807885874E-04  0.19464109123E-01  0.43303376267E-01  0.51100000000E-03 0. -1.
         11    1    4    4    0    0  0.84418313889E-01  0.15398162447E-01  0.19101157346E-01  0.87912857191E-01  0.51100000000E-03 0.  1.
</event>
<event>
 8    1  0.1078274E+005  0.1043930E+01  0.7957747E-01            NaN
         13   -1    0    0    0    0  0.00000000000E+00  0.00000000000E+00  0.74505805969E-08  0.10566000000E+00  0.10566000000E+00 0.  1.
     999900   -1    0    0    0    0 -0.00000000000E+00 -0.00000000000E+00 -0.74505805969E-08  0.93827000000E+00  0.93827000000E+00 0. -1.
     999902    2    1    2    0    0 -0.55946464885E-02  0.23952299909E-02  0.23653744255E-01  0.10195058969E+01  0.10192132932E+01 0.  0.
     999903    2    3    3    0    0  0.11665435563E-01  0.11577032118E+00 -0.51521540399E-01  0.12888636804E+00  0.20454268205E-01 0.  0.
         14    1    1    2    0    0  0.55946464885E-02 -0.23952299909E-02 -0.23653744255E-01  0.24424103122E-01  0.00000000000E+00 0. -1.
     999901    1    3    3    0    0 -0.17260082052E-01 -0.11337509119E+00  0.75175284654E-01  0.89061952884E+00  0.88000000000E+00 0.  1.
        -11    1    4    4    0    0  0.13469912979E-01  0.73465669247E-01 -0.24300396916E-01  0.78545614294E-01  0.51100000000E-03 0.  1.
         11    1    4    4    0    0 -0.18044774155E-02  0.42304651930E-01 -0.27221143483E-01  0.50340753741E-01  0.51100000000E-03 0. -1.
</event>
<event>
 8    1  0.1078274E+005  0.1043930E+01  0.7957747E-01            NaN
         13   -1    0    0    0    0  0.00000000000E+00  0.00000000000E+00  0.74505805969E-08  0.10566000000E+00  0.10566000000E+00 0. -1.
     999900   -1    0    0    0    0 -0.00000000000E+00 -0.00000000000E+00 -0.74505805969E-08  0.93827000000E+00  0.93827000000E+00 0.  1.
     999902    2    1    2    0    0 -0.15799492874E-02  0.10700539184E-01  0.20563782498E-01  0.10206949633E+01  0.10204304686E+01 0.  0.
     999903    2    3    3    0    0 -0.12932138638E+00 -0.74904822949E-02  0.46963766481E-02  0.13114419885E+00  0.19915236319E-01 0.  0.
         14    1    1    2    0    0  0.15799492874E-02 -0.10700539184E-01 -0.20563782498E-01  0.23235036673E-01  0.00000000000E+00 0.  1.
     999901    1    3    3    0    0  0.12774143709E+00  0.18191021478E-01  0.15867405850E-01  0.88955076448E+00  0.88000000000E+00 0. -1.
        -11    1    4    4    0    0 -0.33246662329E-01 -0.98983682796E-02 -0.24052668813E-02  0.34775920986E-01  0.51100000000E-03 0. -1.
         11    1    4    4    0    0 -0.96074724053E-01  0.24078859847E-02  0.71016435294E-02  0.96368277864E-01  0.51100000000E-03 0.  1.
</event>
<event>
 8    1  0.1078274E+005  0.1043930E+01  0.7957747E-01            NaN
         13   -1    0    0    0    0  0.00000000000E+00  0.00000000000E+00  0.74505805969E-08  0.10566000000E+00  0.10566000000E+00 0.  1.
     999900   -1    0    0    0    0 -0.00000000000E+00 -0.00000000000E+00 -0.74505805969E-08  0.93827000000E+00  0.93827000000E+00 0.  1.
     999902    2    1    2    0    0  0.80377083680E-02  0.30787950333E-02 -0.22052196319E-01  0.10202575878E+01  0.10199829226E+01 0.  0.
     999903    2    3    3    0    0 -0.75880413159E-01 -0.78120679454E-01  0.65059622475E-01  0.12827996775E+00  0.19034652351E-01 0.  0.
         14    1    1    2    0    0 -0.80377083680E-02 -0.30787950333E-02  0.22052196319E-01  0.23672412153E-01  0.00000000000E+00 0.  1.
     999901    1    3    3    0    0  0.83918121527E-01  0.81199474487E-01 -0.87111818794E-01  0.89197762010E+00  0.88000000000E+00 0.  1.
        -11    1    4    4    0    0 -0.99664708227E-02 -0.19723902402E-01  0.88723133716E-02  0.23818940618E-01  0.51100000000E-03 0.  1.
         11    1    4    4    0    0 -0.65913942336E-01 -0.58396777053E-01  0.56187309104E-01  0.10446102713E+00  0.51100000000E-03 0. -1.
</event>
<event>
 8    1  0.1078274E+005  0.1043930E+01  0.7957747E-01            NaN
         13   -1    0    0    0    0  0.00000000000E+00  0.00000000000E+00  0.74505805969E-08  0.10566000000E+00  0.10566000000E+00 0. -1.
     999900   -1    0    0    0    0 -0.00000000000E+00 -0.00000000000E+00 -0.74505805969E-08  0.93827000000E+00  0.93827000000E+00 0.  1.
     999902    2    1    2    0    0 -0.17500247069E-01 -0.13897597387E-01  0.60031329001E-02  0.10207904351E+01  0.10205281343E+01 0.  0.
     999903    2    3    3    0    0  0.10686810014E+00 -0.42748304748E-01  0.57197644042E-01  0.13010489737E+00  0.20186764197E-01 0.  0.
         14    1    1    2    0    0  0.17500247069E-01  0.13897597387E-01 -0.60031329001E-02  0.23139564932E-01  0.00000000000E+00 0.  1.
     999901    1    3    3    0    0 -0.12436834721E+00  0.28850707361E-01 -0.51194511141E-01  0.89068553770E+00  0.88000000000E+00 0.  1.
        -11    1    4    4    0    0  0.58120445050E-01 -0.33827337523E-01  0.34769442044E-01  0.75706341331E-01  0.51100000000E-03 0. -1.
         11    1    4    4    0    0  0.48747655088E-01 -0.89209672250E-02  0.22428201998E-01  0.54398556034E-01  0.51100000000E-03 0.  1.
</event>
<event>
 8    1  0.1078274E+005  0.1043930E+01  0.7957747E-01            NaN
         13   -1    0    0    0    0  0.00000000000E+00  0.00000000000E+00  0.74505805969E-08  0.10566000000E+00  0.10566000000E+00 0.  1.
     999900   -1    0    0    0    0 -0.00000000000E+00 -0.00000000000E+00 -0.74505805969E-08  0.93827000000E+00  0.93827000000E+00 0. -1.
     999902    2    1    2    0    0 -0.15501322620E-01  0.13244236217E-01 -0.11389093673E-01  0.10205759372E+01  0.10203086941E+01 0.  0.
     999903    2    3    3    0    0  0.14934290704E-01  0.12180865121E+00  0.43562506544E-01  0.13168210936E+00  0.19547516472E-01 0.  0.
         14    1    1    2    0    0  0.15501322620E-01 -0.13244236217E-01  0.11389093673E-01  0.23354062829E-01  0.00000000000E+00 0.  1.
     999901    1    3    3    0    0 -0.30435613324E-01 -0.10856441499E+00 -0.54951600216E-01  0.88889382781E+00  0.88000000000E+00 0. -1.
        -11    1    4    4    0    0 -0.10733813355E-02  0.69553803328E-01  0.26241861188E-01  0.74349042392E-01  0.51100000000E-03 0. -1.
         11    1    4    4    0    0  0.16007672040E-01  0.52254847879E-01  0.17320645356E-01  0.57333066965E-01  0.51100000000E-03 0.  1.
</event>
<event>
 8    1  0.1078274E+005  0.1043930E+01  0.7957747E-01            NaN
         13   -1    0    0    0    0  0.00000000000E+00  0.00000000000E+00  0.74505805969E-08  0.10566000000E+00  0.10566000000E+00 0. -1.
     999900   -1    0    0    0    0 -0.00000000000E+00 -0.00000000000E+00 -0.74505805969E-08  0.93827000000E+00  0.93827000000E+00 0.  1.
     999902    2    1    2    0    0 -0.22720066072E-01 -0.11704379603E-02 -0.18672461781E-01  0.10144981778E+01  0.10140711615E+01 0.  0.
     999903    2    3    3    0    0 -0.49228647140E-01 -0.45632530442E-01  0.10298625071E+00  0.12462154320E+00  0.20459072817E-01 0.  0.
         14    1    1    2    0    0  0.22720066072E-01  0.11704379603E-02  0.18672461781E-01  0.29431822171E-01  0.00000000000E+00 0. -1.
     999901    1    3    3    0    0  0.26508581068E-01  0.44462092482E-01 -0.12165871249E+00  0.88987663463E+00  0.88000000000E+00 0.  1.
        -11    1    4    4    0    0 -0.75276514840E-02 -0.89943636278E-02  0.34617924025E-01  0.36554423792E-01  0.51100000000E-03 0. -1.
         11    1    4    4    0    0 -0.41700995656E-01 -0.36638166814E-01  0.68368326682E-01  0.88067119407E-01  0.51100000000E-03 0.  1.
</event>
<event>
 8    1  0.1078274E+005  0.1043930E+01  0.7957747E-01            NaN
         13   -1    0    0    0    0  0.00000000000E+00  0.00000000000E+00  0.74505805969E-08  0.10566000000E+00  0.10566000000E+00 0. -1.
     999900   -1    0    0    0    0 -0.00000000000E+00 -0.00000000000E+00 -0.74505805969E-08  0.93827000000E+00  0.93827000000E+00 0. -1.
     999902    2    1    2    0    0 -0.62255368158E-02  0.66450723617E-02  0.21561693851E-01  0.10205244251E+01  0.10202559881E+01 0.  0.
     999903    2    3    3    0    0 -0.95519476846E-01 -0.10384186084E-01 -0.84569995567E-01  0.12949842161E+00  0.19645744375E-01 0.  0.
         14    1    1    2    0    0  0.62255368158E-02 -0.66450723617E-02 -0.21561693851E-01  0.23405574914E-01  0.00000000000E+00 0.  1.
     999901    1    3    3    0    0  0.89293940030E-01  0.17029258446E-01  0.10613168942E+00  0.89102600347E+00  0.88000000000E+00 0.  1.
        -11    1    4    4    0    0 -0.55186867302E-01 -0.10033538836E-01 -0.60599987385E-01  0.82576520974E-01  0.51100000000E-03 0.  1.
         11    1    4    4    0    0 -0.40332609545E-01 -0.35064724804E-03 -0.23970008182E-01  0.46921900637E-01  0.51100000000E-03 0. -1.
</event>
<event>
 8    1  0.1078274E+005  0.1043930E+01  0.7957747E-01            NaN
         13   -1    0    0    0    0  0.00000000000E+00  0.00000000000E+00  0.74505805969E-08  0.10566000000E+00  0.10566000000E+00 0.  1.
     999900   -1    0    0    0    0 -0.00000000000E+00 -0.00000000000E+00 -0.74505805969E-08  0.93827000000E+00  0.93827000000E+00 0.  1.
     999902    2    1    2    0    0  0.10060613024E-01 -0.15302106268E-01  0.75671005697E-02  0.10241150712E+01  0.10239233603E+01 0.  0.
     999903    2    3    3    0    0 -0.95710518626E-01  0.88063765779E-01  0.19325150417E-03  0.13174384275E+00  0.20992201810E-01 0.  0.
         14    1    1    2    0    0 -0.10060613024E-01  0.15302106268E-01 -0.75671005697E-02  0.19814928758E-01  0.00000000000E+00 0. -1.
     999901    1    3    3    0    0  0.10577113165E+00 -0.10336587205E+00  0.73738490656E-02  0.89237122849E+00  0.88000000000E+00 0. -1.
        -11    1    4    4    0    0 -0.27604339196E-01  0.15648438489E-01 -0.53251952151E-02  0.32179061432E-01  0.51100000000E-03 0. -1.
         11    1    4    4    0    0 -0.68106179431E-01  0.72415327291E-01  0.55184467193E-02  0.99564781316E-01  0.51100000000E-03 0.  1.
</event>
<event>
 8    1  0.1078274E+005  0.1043930E+01  0.7957747E-01            NaN
         13   -1    0    0    0    0  0.00000000000E+00  0.00000000000E+00  0.74505805969E-08  0.10566000000E+00  0.10566000000E+00 0. -1.
     999900   -1    0    0    0    0 -0.00000000000E+00 -0.00000000000E+00 -0.74505805969E-08  0.93827000000E+00  0.93827000000E+00 0.  1.
     999902    2    1    2    0    0  0.15550522174E-01 -0.14317179541E-01 -0.11006313849E-01  0.10200985226E+01  0.10198201099E+01 0.  0.
     999903    2    3    3    0    0 -0.33489169923E-01 -0.56095360296E-01  0.11005618744E+00  0.12947714570E+00  0.19589612470E-01 0.  0.
         14    1    1    2    0    0 -0.15550522174E-01  0.14317179541E-01  0.11006313849E-01  0.23831477387E-01  0.00000000000E+00 0.  1.
     999901    1    3    3    0    0  0.49039692098E-01  0.41778180755E-01 -0.12106250129E+00  0.89062137691E+00  0.88000000000E+00 0.  1.
        -11    1    4    4    0    0 -0.30815571479E-01 -0.57043097409E-01  0.10788436099E+00  0.12586822822E+00  0.51100000000E-03 0.  1.
         11    1    4    4    0    0 -0.26735984442E-02  0.94773711324E-03  0.21718264467E-02  0.36089174819E-02  0.51100000000E-03 0. -1.
</event>
<event>
 8    1  0.1078274E+005  0.1043930E+01  0.7957747E-01            NaN
         13   -1    0    0    0    0  0.00000000000E+00  0.00000000000E+00  0.74505805969E-08  0.10566000000E+00  0.10566000000E+00 0.  1.
     999900   -1    0    0    0    0 -0.00000000000E+00 -0.00000000000E+00 -0.74505805969E-08  0.93827000000E+00  0.93827000000E+00 0.  1.
     999902    2    1    2    0    0 -0.19167728578E-01 -0.87005438429E-02  0.10624537888E-01  0.10203507276E+01  0.10200782447E+01 0.  0.
     999903    2    3    3    0    0  0.23001800953E-01 -0.12631978942E+00  0.19392200076E-01  0.13148098007E+00  0.20625679438E-01 0.  0.
         14    1    1    2    0    0  0.19167728578E-01  0.87005438429E-02 -0.10624537888E-01  0.23579272409E-01  0.00000000000E+00 0. -1.
     999901    1    3    3    0    0 -0.42169529531E-01  0.11761924557E+00 -0.87676621879E-02  0.88886974752E+00  0.88000000000E+00 0.  1.
        -11    1    4    4    0    0  0.82177548283E-03 -0.33473926921E-01 -0.23712299766E-02  0.33571758237E-01  0.51100000000E-03 0.  1.
         11    1    4    4    0    0  0.22180025470E-01 -0.92845862495E-01  0.21763430052E-01  0.97909221838E-01  0.51100000000E-03 0. -1.
</event>
<event>
 8    1  0.1078274E+005  0.1043930E+01  0.7957747E-01            NaN
         13   -1    0    0    0    0  0.00000000000E+00  0.00000000000E+00  0.74505805969E-08  0.10566000000E+00  0.10566000000E+00 0.  1.
     999900   -1    0    0    0    0 -0.00000000000E+00 -0.00000000000E+00 -0.74505805969E-08  0.93827000000E+00  0.93827000000E+00 0. -1.
     999902    2    1    2    0    0 -0.13053478711E-01 -0.16362453784E-01 -0.10993190197E-01  0.10202873810E+01  0.10200134149E+01 0.  0.
     999903    2    3    3    0    0  0.69028674932E-01 -0.11010427813E+00 -0.88766119781E-03  0.13145267690E+00  0.19776458139E-01 0.  0.
         14    1    1    2    0    0  0.13053478711E-01  0.16362453784E-01  0.10993190197E-01  0.23642618954E-01  0.00000000000E+00 0. -1.
     999901    1    3    3    0    0 -0.82082153643E-01  0.93741824346E-01 -0.10105528999E-01  0.88883470415E+00  0.88000000000E+00 0. -1.
        -11    1    4    4    0    0  0.21976852991E-01 -0.24924602840E-01 -0.69460366678E-02  0.33951825290E-01  0.51100000000E-03 0. -1.
         11    1    4    4    0    0  0.47051821941E-01 -0.85179675289E-01  0.60583754700E-02  0.97500851610E-01  0.51100000000E-03 0.  1.
</event>
<event>
 8    1  0.1078274E+005  0.1043930E+01  0.7957747E-01            NaN
         13   -1    0    0    0    0  0.00000000000E+00  0.00000000000E+00  0.74505805969E-08  0.10566000000E+00  0.10566000000E+00 0. -1.
     999900   -1    0    0    0    0 -0.00000000000E+00 -0.00000000000E+00 -0.74505805969E-08  0.93827000000E+00  0.93827000000E+00 0.  1.
     999902    2    1    2    0    0  0.15782235496E-01 -0.16184668010E-01 -0.64258384941E-02  0.10204286418E+01  0.10201579776E+01 0.  0.
     999903    2    3    3    0    0  0.11418647265E-02 -0.13121956452E+00 -0.43922595502E-02  0.13281864677E+00  0.20040534406E-01 0.  0.
         14    1    1    2    0    0 -0.15782235496E-01  0.16184668010E-01  0.64258384941E-02  0.23501358178E-01  0.00000000000E+00 0.  1.
     999901    1    3    3    0    0  0.14640370770E-01  0.11503489651E+00 -0.20335789439E-02  0.88760999505E+00  0.88000000000E+00 0.  1.
        -11    1    4    4    0    0  0.74205594929E-02 -0.11336188724E+00 -0.11790878609E-02  0.11361176678E+00  0.51100000000E-03 0. -1.
         11    1    4    4    0    0 -0.62786947664E-02 -0.17857677278E-01 -0.32131716893E-02  0.19206879992E-01  0.51100000000E-03 0.  1.
</event>
<event>
 8    1  0.1078274E+005  0.1043930E+01  0.7957747E-01            NaN
         13   -1    0    0    0    0  0.00000000000E+00  0.00000000000E+00  0.74505805969E-08  0.10566000000E+00  0.10566000000E+00 0. -1.
     999900   -1    0    0    0    0 -0.00000000000E+00 -0.00000000000E+00 -0.74505805969E-08  0.93827000000E+00  0.93827000000E+00 0.  1.
     999902    2    1    2    0    0  0.21553276739E-01  0.92225995494E-02 -0.35299058697E-02  0.10202221887E+01  0.10199466918E+01 0.  0.
     999903    2    3    3    0    0 -0.80278790335E-01 -0.61275489213E-01  0.76034560267E-01  0.12799449654E+00  0.20049115539E-01 0.  0.
         14    1    1    2    0    0 -0.21553276739E-01 -0.92225995494E-02  0.35299058697E-02  0.23707811289E-01  0.00000000000E+00 0. -1.
     999901    1    3    3    0    0  0.10183206707E+00  0.70498088762E-01 -0.79564466136E-01  0.89222769217E+00  0.88000000000E+00 0. -1.
        -11    1    4    4    0    0 -0.43710355514E-01 -0.31441038688E-01  0.28153106476E-01  0.60761769380E-01  0.51100000000E-03 0.  1.
         11    1    4    4    0    0 -0.36568434821E-01 -0.29834450525E-01  0.47881453791E-01  0.67232727161E-01  0.51100000000E-03 0. -1.
</event>
<event>
 8    1  0.1078274E+005  0.1043930E+01  0.7957747E-01            NaN
         13   -1    0    0    0    0  0.00000000000E+00  0.00000000000E+00  0.74505805969E-08  0.10566000000E+00  0.10566000000E+00 0.  1.
     999900   -1    0    0    0    0 -0.00000000000E+00 -0.00000000000E+00 -0.74505805969E-08  0.93827000000E+00  0.93827000000E+00 0. -1.
     999902    2    1    2    0    0  0.17588534636E-01  0.55915218010E-02 -0.11279704461E-01  0.10223000809E+01  0.10220712314E+01 0.  0.
     999903    2    3    3    0    0 -0.12740634675E+00 -0.14987709844E-01  0.60399854757E-02  0.13002938653E+00  0.20350707553E-01 0.  0.
         14    1    1    2    0    0 -0.17588534636E-01 -0.55915218010E-02  0.11279704461E-01  0.21629919080E-01  0.00000000000E+00 0.  1.
     999901    1    3    3    0    0  0.14499488139E+00  0.20579231644E-01 -0.17319689936E-01  0.89227069439E+00  0.88000000000E+00 0. -1.
        -11    1    4    4    0    0 -0.53816939615E-01 -0.10907348982E-01 -0.63911650331E-02  0.55284187277E-01  0.51100000000E-03 0. -1.
         11    1    4    4    0    0 -0.73589407138E-01 -0.40803608610E-02  0.12431150509E-01  0.74745199255E-01  0.51100000000E-03 0.  1.
</event>
<event>
 8    1  0.1078274E+005  0.1043930E+01  0.7957747E-01            NaN
         13   -1    0    0    0    0  0.00000000000E+00  0.00000000000E+00  0.74505805969E-08  0.10566000000E+00  0.10566000000E+00 0. -1.
     999900   -1    0    0    0    0 -0.00000000000E+00 -0.00000000000E+00 -0.74505805969E-08  0.93827000000E+00  0.93827000000E+00 0. -1.
     999902    2    1    2    0    0  0.13797798122E-01  0.39937490488E-02  0.18618969401E-01  0.10204141482E+01  0.10201431461E+01 0.  0.
     999903    2    3    3    0    0  0.65371735225E-01 -0.70747473612E-01  0.89552880820E-01  0.13290204059E+00  0.19093589034E-01 0.  0.
         14    1    1    2    0    0 -0.13797798122E-01 -0.39937490488E-02 -0.18618969401E-01  0.23515851803E-01  0.00000000000E+00 0.  1.
     999901    1    3    3    0    0 -0.51573937103E-01  0.74741222661E-01 -0.70933911419E-01  0.88751210760E+00  0.88000000000E+00 0. -1.
        -11    1    4    4    0    0  0.33904486245E-02 -0.12197304073E-01  0.15051573448E-01  0.19674357748E-01  0.51100000000E-03 0.  1.
         11    1    4    4    0    0  0.61981286600E-01 -0.58550169538E-01  0.74501307371E-01  0.11322768285E+00  0.51100000000E-03 0. -1.
</event>
<event>
 8    1  0.1078274E+005  0.1043930E+01  0.7957747E-01            NaN
         13   -1    0    0    0    0  0.00000000000E+00  0.00000000000E+00  0.74505805969E-08  0.10566000000E+00  0.10566000000E+00 0.  1.
     999900   -1    0    0    0    0 -0.00000000000E+00 -0.00000000000E+00 -0.74505805969E-08  0.93827000000E+00  0.93827000000E+00 0. -1.
     999902    2    1    2    0    0 -0.22900642451E-01  0.68091091548E-02  0.90087592591E-02  0.10183964704E+01  0.10180763280E+01 0.  0.
     999903    2    3    3    0    0 -0.73391616658E-01  0.10444675800E+00 -0.21846402545E-01  0.13102141440E+00  0.19846689255E-01 0.  0.
         14    1    1    2    0    0  0.22900642451E-01 -0.68091091548E-02 -0.90087592591E-02  0.25533529633E-01  0.00000000000E+00 0. -1.
     999901    1    3    3    0    0  0.50490974207E-01 -0.97637648843E-01  0.30855161804E-01  0.88737505597E+00  0.88000000000E+00 0.  1.
        -11    1    4    4    0    0 -0.29142953217E-01  0.42898031820E-01  0.91869317148E-03  0.51871552651E-01  0.51100000000E-03 0. -1.
         11    1    4    4    0    0 -0.44248663441E-01  0.61548726178E-01 -0.22765095717E-01  0.79149861746E-01  0.51100000000E-03 0.  1.
</event>
<event>
 8    1  0.1078274E+005  0.1043930E+01  0.7957747E-01            NaN
         13   -1    0    0    0    0  0.00000000000E+00  0.00000000000E+00  0.74505805969E-08  0.10566000000E+00  0.10566000000E+00 0. -1.
     999900   -1    0    0    0    0 -0.00000000000E+00 -0.00000000000E+00 -0.74505805969E-08  0.93827000000E+00  0.93827000000E+00 0.  1.
     999902    2    1    2    0    0  0.99482178837E-02 -0.83701014781E-02  0.20394419087E-01  0.10197440957E+01  0.10194572393E+01 0.  0.
     999903    2    3    3    0    0  0.20544198329E-02  0.12545612441E+00  0.25529909702E-01  0.12957661478E+00  0.19871160446E-01 0.  0.
         14    1    1    2    0    0 -0.99482178837E-02  0.83701014781E-02 -0.20394419087E-01  0.24185904319E-01  0.00000000000E+00 0.  1.
     999901    1    3    3    0    0  0.78937980508E-02 -0.13382622589E+00 -0.51354906152E-02  0.89016748090E+00  0.88000000000E+00 0.  1.
        -11    1    4    4    0    0 -0.75408904164E-02  0.89493081939E-01  0.17899255364E-01  0.91577951532E-01  0.51100000000E-03 0. -1.
         11    1    4    4    0    0  0.95953102493E-02  0.35963042468E-01  0.76306543384E-02  0.37998663253E-01  0.51100000000E-03 0.  1.
</event>
<event>
 8    1  0.1276065E+005  0.1043930E+01  0.7957747E-01            NaN
         13   -1    0    0    0    0  0.00000000000E+00  0.00000000000E+00  0.74505805969E-08  0.10566000000E+00  0.10566000000E+00 0.  1.
     999900   -1    0    0    0    0 -0.00000000000E+00 -0.00000000000E+00 -0.74505805969E-08  0.93827000000E+00  0.93827000000E+00 0.  1.
     999902    2    1    2    0    0  0.18751596395E-01  0.67604828053E-02 -0.10851854912E-01  0.10212344222E+01  0.10209822016E+01 0.  0.
     999903    2    3    3    0    0 -0.47763943605E-01 -0.11707405814E+00 -0.21516406840E-01  0.13001444756E+00  0.21285474226E-01 0.  0.
         14    1    1    2    0    0 -0.18751596395E-01 -0.67604828053E-02  0.10851854912E-01  0.22695577767E-01  0.00000000000E+00 0.  1.
     999901    1    3    3    0    0  0.66515540000E-01  0.12383454094E+00  0.10664551928E-01  0.89121997468E+00  0.88000000000E+00 0. -1.
        -11    1    4    4    0    0 -0.31998174897E-01 -0.51152227921E-01 -0.75623532130E-02  0.60810228787E-01  0.51100000000E-03 0. -1.
         11    1    4    4    0    0 -0.15765768708E-01 -0.65921830217E-01 -0.13954053627E-01  0.69204218771E-01  0.51100000000E-03 0.  1.
</event>
<event>
 8    1  0.1078274E+005  0.1043930E+01  0.7957747E-01            NaN
         13   -1    0    0    0    0  0.00000000000E+00  0.00000000000E+00  0.74505805969E-08  0.10566000000E+00  0.10566000000E+00 0. -1.
     999900   -1    0    0    0    0 -0.00000000000E+00 -0.00000000000E+00 -0.74505805969E-08  0.93827000000E+00  0.93827000000E+00 0. -1.
     999902    2    1    2    0    0 -0.18549452235E-01  0.13616466542E-01  0.93048887069E-02  0.10191092165E+01  0.10188069120E+01 0.  0.
     999903    2    3    3    0    0 -0.15752417386E-01  0.48848244849E-01  0.11953667116E+00  0.13152815121E+00  0.19399719892E-01 0.  0.
         14    1    1    2    0    0  0.18549452235E-01 -0.13616466542E-01 -0.93048887069E-02  0.24820783492E-01  0.00000000000E+00 0. -1.
     999901    1    3    3    0    0 -0.27970348486E-02 -0.35231778307E-01 -0.11023178245E+00  0.88758106529E+00  0.88000000000E+00 0. -1.
        -11    1    4    4    0    0 -0.30501644988E-02  0.96587900346E-03  0.16101023871E-02  0.36180072438E-02  0.51100000000E-03 0. -1.
         11    1    4    4    0    0 -0.12702252887E-01  0.47882365846E-01  0.11792656877E+00  0.12791014397E+00  0.51100000000E-03 0.  1.
</event>
<event>
 8    1  0.1078274E+005  0.1043930E+01  0.7957747E-01            NaN
         13   -1    0    0    0    0  0.00000000000E+00  0.00000000000E+00  0.74505805969E-08  0.10566000000E+00  0.10566000000E+00 0.  1.
     999900   -1    0    0    0    0 -0.00000000000E+00 -0.00000000000E+00 -0.74505805969E-08  0.93827000000E+00  0.93827000000E+00 0. -1.
     999902    2    1    2    0    0 -0.22049564568E-01  0.27968221707E-03  0.91242108320E-02  0.10200655339E+01  0.10197863407E+01 0.  0.
     999903    2    3    3    0    0  0.10604202275E+00  0.68456443642E-01  0.17206141057E-02  0.12815167101E+00  0.22106447122E-01 0.  0.
         14    1    1    2    0    0  0.22049564568E-01 -0.27968221707E-03 -0.91242108320E-02  0.23864466118E-01  0.00000000000E+00 0.  1.
     999901    1    3    3    0    0 -0.12809158732E+00 -0.68176761425E-01  0.74035967263E-02  0.89191386287E+00  0.88000000000E+00 0. -1.
        -11    1    4    4    0    0  0.65392347069E-01  0.45478002003E-01  0.11389486031E-01  0.80463589495E-01  0.51100000000E-03 0.  1.
         11    1    4    4    0    0  0.40649675682E-01  0.22978441638E-01 -0.96688719251E-02  0.47688081514E-01  0.51100000000E-03 0. -1.
</event>
<event>
 8    1  0.1078274E+005  0.1043930E+01  0.7957747E-01            NaN
         13   -1    0    0    0    0  0.00000000000E+00  0.00000000000E+00  0.74505805969E-08  0.10566000000E+00  0.10566000000E+00 0. -1.
     999900   -1    0    0    0    0 -0.00000000000E+00 -0.00000000000E+00 -0.74505805969E-08  0.93827000000E+00  0.93827000000E+00 0. -1.
     999902    2    1    2    0    0  0.16215641886E-02 -0.19174413840E-01 -0.70701745016E-02  0.10234293906E+01  0.10232240432E+01 0.  0.
     999903    2    3    3    0    0 -0.73919423550E-01  0.31716168914E-01  0.10264055936E+00  0.13195155168E+00  0.20152692495E-01 0.  0.
         14    1    1    2    0    0 -0.16215641886E-02  0.19174413840E-01  0.70701745016E-02  0.20500609357E-01  0.00000000000E+00 0. -1.
     999901    1    3    3    0    0  0.75540987739E-01 -0.50890582754E-01 -0.10971073387E+00  0.89147783897E+00  0.88000000000E+00 0. -1.
        -11    1    4    4    0    0 -0.55447659565E-01  0.32745240635E-01  0.78566640800E-01  0.10158578593E+00  0.51100000000E-03 0. -1.
         11    1    4    4    0    0 -0.18471763986E-01 -0.10290717216E-02  0.24073918564E-01  0.30365765747E-01  0.51100000000E-03 0.  1.
</event>
<event>
 8    1  0.1078274E+005  0.1043930E+01  0.7957747E-01            NaN
         13   -1    0    0    0    0  0.00000000000E+00  0.00000000000E+00  0.74505805969E-08  0.10566000000E+00  0.10566000000E+00 0. -1.
     999900   -1    0    0    0    0 -0.00000000000E+00 -0.00000000000E+00 -0.74505805969E-08  0.93827000000E+00  0.93827000000E+00 0. -1.
     999902    2    1    2    0    0  0.14055910983E-01 -0.36999016172E-02 -0.17556426260E-01  0.10211377643E+01  0.10208833663E+01 0.  0.
     999903    2    3    3    0    0  0.68095093593E-01  0.10526182651E+00  0.32240315963E-01  0.13137790512E+00  0.22443753898E-01 0.  0.
         14    1    1    2    0    0 -0.14055910983E-01  0.36999016172E-02  0.17556426260E-01  0.22792235708E-01  0.00000000000E+00 0. -1.
     999901    1    3    3    0    0 -0.54039182610E-01 -0.10896172813E+00 -0.49796742223E-01  0.88975985917E+00  0.88000000000E+00 0.  1.
        -11    1    4    4    0    0  0.65644158711E-02  0.19910019368E-02 -0.14084936041E-03  0.68801601714E-02  0.51100000000E-03 0. -1.
         11    1    4    4    0    0  0.61530677721E-01  0.10327082457E+00  0.32381165323E-01  0.12449774495E+00  0.51100000000E-03 0.  1.
</event>
<event>
 8    1  0.1078274E+005  0.1043930E+01  0.7957747E-01            NaN
         13   -1    0    0    0    0  0.00000000000E+00  0.00000000000E+00  0.74505805969E-08  0.10566000000E+00  0.10566000000E+00 0.  1.
     999900   -1    0    0    0    0 -0.00000000000E+00 -0.00000000000E+00 -0.74505805969E-08  0.93827000000E+00  0.93827000000E+00 0. -1.
     999902    2    1    2    0    0  0.21486393305E-01 -0.69009001155E-02  0.20981413001E-01  0.10131159251E+01  0.10126472093E+01 0.  0.
     999903    2    3    3    0    0  0.72493125559E-01  0.34256019336E-01  0.96982566496E-01  0.12741182436E+00  0.19985661580E-01 0.  0.
         14    1    1    2    0    0 -0.21486393305E-01  0.69009001155E-02 -0.20981413001E-01  0.30814074888E-01  0.00000000000E+00 0. -1.
     999901    1    3    3    0    0 -0.51006732254E-01 -0.41156919451E-01 -0.76001153495E-01  0.88570410075E+00  0.88000000000E+00 0. -1.
        -11    1    4    4    0    0  0.55987291580E-01  0.17416492126E-01  0.74706280468E-01  0.94969471299E-01  0.51100000000E-03 0. -1.
         11    1    4    4    0    0  0.16505833979E-01  0.16839527210E-01  0.22276286028E-01  0.32442353062E-01  0.51100000000E-03 0.  1.
</event>
<event>
 8    1  0.1078274E+005  0.1043930E+01  0.7957747E-01            NaN
         13   -1    0    0    0    0  0.00000000000E+00  0.00000000000E+00  0.74505805969E-08  0.10566000000E+00  0.10566000000E+00 0. -1.
     999900   -1    0    0    0    0 -0.00000000000E+00 -0.00000000000E+00 -0.74505805969E-08  0.93827000000E+00  0.93827000000E+00 0. -1.
     999902    2    1    2    0    0 -0.23012998737E-01  0.44323829403E-02  0.35467908561E-02  0.10202271762E+01  0.10199517965E+01 0.  0.
     999903    2    3    3    0    0 -0.16313624421E-01  0.73297052085E-01 -0.10471379508E+00  0.13089732812E+00  0.23033441811E-01 0.  0.
         14    1    1    2    0    0  0.23012998737E-01 -0.44323829403E-02 -0.35467908561E-02  0.23702823772E-01  0.00000000000E+00 0. -1.
     999901    1    3    3    0    0 -0.66993743159E-02 -0.68864669144E-01  0.10826058594E+00  0.88932984811E+00  0.88000000000E+00 0.  1.
        -11    1    4    4    0    0 -0.13997331923E-01  0.46035061779E-01 -0.48204515259E-01  0.68110855422E-01  0.51100000000E-03 0.  1.
         11    1    4    4    0    0 -0.23162924975E-02  0.27261990306E-01 -0.56509279824E-01  0.62786472696E-01  0.51100000000E-03 0. -1.
</event>
<event>
 8    1  0.1078274E+005  0.1043930E+01  0.7957747E-01            NaN
         13   -1    0    0    0    0  0.00000000000E+00  0.00000000000E+00  0.74505805969E-08  0.10566000000E+00  0.10566000000E+00 0. -1.
     999900   -1    0    0    0    0 -0.00000000000E+00 -0.00000000000E+00 -0.74505805969E-08  0.93827000000E+00  0.93827000000E+00 0. -1.
     999902    2    1    2    0    0  0.21405828892E-01 -0.39409598599E-03  0.10143683192E-01  0.10202390918E+01  0.10199639922E+01 0.  0.
     999903    2    3    3    0    0 -0.63259726726E-01 -0.11020428382E+00  0.14411322347E-01  0.12937167945E+00  0.19559346462E-01 0.  0.
         14    1    1    2    0    0 -0.21405828892E-01  0.39409598599E-03 -0.10143683192E-01  0.23690908191E-01  0.00000000000E+00 0.  1.
     999901    1    3    3    0    0  0.84665555619E-01  0.10981018783E+00 -0.42676391545E-02  0.89086741236E+00  0.88000000000E+00 0. -1.
        -11    1    4    4    0    0 -0.53852760300E-01 -0.76954543350E-01  0.12559216618E-01  0.94763477021E-01  0.51100000000E-03 0. -1.
         11    1    4    4    0    0 -0.94069664266E-02 -0.33249740470E-01  0.18521057284E-02  0.34608202428E-01  0.51100000000E-03 0.  1.
</event>
<event>
 7    1  0.1110909E+005  0.1043930E+01  0.7957747E-01            NaN
         13   -1    0    0    0    0  0.00000000000E+00  0.00000000000E+00  0.74505805969E-08  0.10566000000E+00  0.10566000000E+00 0.  1.
     999900   -1    0    0    0    0 -0.00000000000E+00 -0.00000000000E+00 -0.74505805969E-08  0.93827000000E+00  0.93827000000E+00 0. -1.
     999903    2    1    2    0    0 -0.16352440743E-01 -0.64059548489E-01 -0.87639878247E-01  0.11151799613E+00  0.19608343416E-01 0.  0.
         14    1    1    2    0    0  0.13091056333E-02 -0.39145068961E-01  0.19184509090E-01  0.43613020654E-01  0.00000000000E+00 0.  1.
     999901    1    1    2    0    0  0.15043335110E-01  0.10320461745E+00  0.68455369157E-01  0.88879898321E+00  0.88000000000E+00 0.  1.
        -11    1    3    3    0    0 -0.81644659303E-02 -0.22440672088E-01 -0.17736000609E-01  0.29750111029E-01  0.51100000000E-03 0.  1.
         11    1    3    3    0    0 -0.81879748131E-02 -0.41618876401E-01 -0.69903877638E-01  0.81767885104E-01  0.51100000000E-03 0. -1.
</event>
<event>
 7    1  0.1078274E+005  0.1043930E+01  0.7957747E-01            NaN
         13   -1    0    0    0    0  0.00000000000E+00  0.00000000000E+00  0.74505805969E-08  0.10566000000E+00  0.10566000000E+00 0.  1.
     999900   -1    0    0    0    0 -0.00000000000E+00 -0.00000000000E+00 -0.74505805969E-08  0.93827000000E+00  0.93827000000E+00 0.  1.
     999903    2    1    2    0    0 -0.52310067157E-01  0.82690085776E-01  0.65531762904E-02  0.99859460731E-01  0.18840763423E-01 0.  0.
         14    1    1    2    0    0 -0.41019949633E-01  0.18150754917E-01  0.27753200559E-01  0.52747761215E-01  0.00000000000E+00 0.  1.
     999901    1    1    2    0    0  0.93330016790E-01 -0.10084084069E+00 -0.34306376849E-01  0.89132277805E+00  0.88000000000E+00 0.  1.
        -11    1    3    3    0    0 -0.30849458806E-01  0.64522213808E-01  0.49692276635E-02  0.71692116218E-01  0.51100000000E-03 0.  1.
         11    1    3    3    0    0 -0.21460608351E-01  0.18167871969E-01  0.15839486269E-02  0.28167344513E-01  0.51100000000E-03 0. -1.
</event>
<event>
 8    1  0.1078274E+005  0.1043930E+01  0.7957747E-01            NaN
         13   -1    0    0    0    0  0.00000000000E+00  0.00000000000E+00  0.74505805969E-08  0.10566000000E+00  0.10566000000E+00 0.  1.
     999900   -1    0    0    0    0 -0.00000000000E+00 -0.00000000000E+00 -0.74505805969E-08  0.93827000000E+00  0.93827000000E+00 0. -1.
     999902    2    1    2    0    0 -0.87196723852E-02  0.18917283143E-01 -0.12405595572E-01  0.10196855142E+01  0.10193972498E+01 0.  0.
     999903    2    3    3    0    0 -0.91558924221E-01 -0.46294850243E-02  0.89678735475E-01  0.12960798808E+00  0.18747966350E-01 0.  0.
         14    1    1    2    0    0  0.87196723852E-02 -0.18917283143E-01  0.12405595572E-01  0.24244485755E-01  0.00000000000E+00 0. -1.
     999901    1    3    3    0    0  0.82839251835E-01  0.23546768167E-01 -0.10208433105E+00  0.89007752616E+00  0.88000000000E+00 0. -1.
        -11    1    4    4    0    0 -0.26473474171E-01  0.41612996007E-02  0.17451190632E-01  0.31983846306E-01  0.51100000000E-03 0. -1.
         11    1    4    4    0    0 -0.65085450050E-01 -0.87907846249E-02  0.72227544843E-01  0.97624141776E-01  0.51100000000E-03 0.  1.
</event>
<event>
 8    1  0.1078274E+005  0.1043930E+01  0.7957747E-01            NaN
         13   -1    0    0    0    0  0.00000000000E+00  0.00000000000E+00  0.74505805969E-08  0.10566000000E+00  0.10566000000E+00 0.  1.
     999900   -1    0    0    0    0 -0.00000000000E+00 -0.00000000000E+00 -0.74505805969E-08  0.93827000000E+00  0.93827000000E+00 0. -1.
     999902    2    1    2    0    0  0.18628043780E-01 -0.12446075516E-01  0.35850101177E-02  0.10212416526E+01  0.10209895944E+01 0.  0.
     999903    2    3    3    0    0 -0.24000996141E-01  0.91349514239E-01 -0.86513389236E-01  0.12955309650E+00  0.19459103963E-01 0.  0.
         14    1    1    2    0    0 -0.18628043780E-01  0.12446075516E-01 -0.35850101177E-02  0.22688347414E-01  0.00000000000E+00 0.  1.
     999901    1    3    3    0    0  0.42629039921E-01 -0.10379558975E+00  0.90098399354E-01  0.89168855609E+00  0.88000000000E+00 0.  1.
        -11    1    4    4    0    0 -0.85764093025E-03  0.19206976735E-01 -0.27295429963E-01  0.33390793958E-01  0.51100000000E-03 0.  1.
         11    1    4    4    0    0 -0.23143355210E-01  0.72142537504E-01 -0.59217959273E-01  0.96162302538E-01  0.51100000000E-03 0. -1.
</event>
<event>
 8    1  0.1078274E+005  0.1043930E+01  0.7957747E-01            NaN
         13   -1    0    0    0    0  0.00000000000E+00  0.00000000000E+00  0.74505805969E-08  0.10566000000E+00  0.10566000000E+00 0.  1.
     999900   -1    0    0    0    0 -0.00000000000E+00 -0.00000000000E+00 -0.74505805969E-08  0.93827000000E+00  0.93827000000E+00 0.  1.
     999902    2    1    2    0    0  0.16783451577E-01 -0.14002311852E-01 -0.86943961462E-02  0.10204067879E+01  0.10201356141E+01 0.  0.
     999903    2    3    3    0    0  0.68756374288E-01 -0.84949505303E-01  0.71901670047E-01  0.13235813221E+00  0.20123805557E-01 0.  0.
         14    1    1    2    0    0 -0.16783451577E-01  0.14002311852E-01  0.86943961462E-02  0.23523212119E-01  0.00000000000E+00 0.  1.
     999901    1    3    3    0    0 -0.51972922711E-01  0.70947193451E-01 -0.80596066193E-01  0.88804865567E+00  0.88000000000E+00 0.  1.
        -11    1    4    4    0    0  0.47351838771E-01 -0.52403249573E-01  0.35537596926E-01  0.79066295709E-01  0.51100000000E-03 0.  1.
         11    1    4    4    0    0  0.21404535517E-01 -0.32546255730E-01  0.36364073121E-01  0.53291836501E-01  0.51100000000E-03 0. -1.
</event>
<event>
 8    1  0.1078274E+005  0.1043930E+01  0.7957747E-01            NaN
         13   -1    0    0    0    0  0.00000000000E+00  0.00000000000E+00  0.74505805969E-08  0.10566000000E+00  0.10566000000E+00 0.  1.
     999900   -1    0    0    0    0 -0.00000000000E+00 -0.00000000000E+00 -0.74505805969E-08  0.93827000000E+00  0.93827000000E+00 0.  1.
     999902    2    1    2    0    0 -0.19262978131E-01  0.13499434640E-01 -0.24308189222E-02  0.10202824643E+01  0.10200083829E+01 0.  0.
     999903    2    3    3    0    0 -0.96320908705E-01  0.44376084337E-01  0.77383560540E-01  0.13277943487E+00  0.19879853279E-01 0.  0.
         14    1    1    2    0    0  0.19262978131E-01 -0.13499434640E-01  0.24308189222E-02  0.23647535658E-01  0.00000000000E+00 0. -1.
     999901    1    3    3    0    0  0.77057930574E-01 -0.30876649697E-01 -0.79814379463E-01  0.88750302948E+00  0.88000000000E+00 0.  1.
        -11    1    4    4    0    0 -0.23354266389E-01  0.17919799245E-01  0.14149463227E-01  0.32665109738E-01  0.51100000000E-03 0.  1.
         11    1    4    4    0    0 -0.72966642315E-01  0.26456285092E-01  0.63234097314E-01  0.10011432513E+00  0.51100000000E-03 0. -1.
</event>
<event>
 8    1  0.1078274E+005  0.1043930E+01  0.7957747E-01            NaN
         13   -1    0    0    0    0  0.00000000000E+00  0.00000000000E+00  0.74505805969E-08  0.10566000000E+00  0.10566000000E+00 0.  1.
     999900   -1    0    0    0    0 -0.00000000000E+00 -0.00000000000E+00 -0.74505805969E-08  0.93827000000E+00  0.93827000000E+00 0.  1.
     999902    2    1    2    0    0  0.15534254591E-01 -0.40368340007E-03  0.19162065417E-01  0.10192589486E+01  0.10189603248E+01 0.  0.
     999903    2    3    3    0    0 -0.53463767176E-01  0.39100142540E-01  0.11122979731E+00  0.13089092434E+00  0.19317627153E-01 0.  0.
         14    1    1    2    0    0 -0.15534254591E-01  0.40368340007E-03 -0.19162065417E-01  0.24671051397E-01  0.00000000000E+00 0. -1.
     999901    1    3    3    0    0  0.68998021767E-01 -0.39503825940E-01 -0.92067731892E-01  0.88836802426E+00  0.88000000000E+00 0.  1.
        -11    1    4    4    0    0 -0.63513220175E-02  0.14135415336E-01  0.29044888749E-01  0.32924397360E-01  0.51100000000E-03 0.  1.
         11    1    4    4    0    0 -0.47112445158E-01  0.24964727204E-01  0.82184908560E-01  0.97966526983E-01  0.51100000000E-03 0. -1.
</event>
<event>
 8    1  0.1078274E+005  0.1043930E+01  0.7957747E-01            NaN
         13   -1    0    0    0    0  0.00000000000E+00  0.00000000000E+00  0.74505805969E-08  0.10566000000E+00  0.10566000000E+00 0.  1.
     999900   -1    0    0    0    0 -0.00000000000E+00 -0.00000000000E+00 -0.74505805969E-08  0.93827000000E+00  0.93827000000E+00 0. -1.
     999902    2    1    2    0    0  0.16347785214E-01 -0.22969230987E-01 -0.21763267998E-01  0.10083143365E+01  0.10076851322E+01 0.  0.
     999903    2    3    3    0    0  0.10870179987E+00  0.44581227248E-01 -0.22441720139E-01  0.12090643212E+00  0.17639937868E-01 0.  0.
         14    1    1    2    0    0 -0.16347785214E-01  0.22969230987E-01  0.21763267998E-01  0.35615663513E-01  0.00000000000E+00 0.  1.
     999901    1    3    3    0    0 -0.92354014656E-01 -0.67550458235E-01  0.67845214177E-03  0.88740790436E+00  0.88000000000E+00 0. -1.
        -11    1    4    4    0    0  0.45701694026E-01  0.10680314147E-01 -0.13278463645E-01  0.48777993653E-01  0.51100000000E-03 0. -1.
         11    1    4    4    0    0  0.63000105844E-01  0.33900913100E-01 -0.91632564946E-02  0.72128438469E-01  0.51100000000E-03 0.  1.
</event>
<event>
 8    1  0.1078274E+005  0.1043930E+01  0.7957747E-01            NaN
         13   -1    0    0    0    0  0.00000000000E+00  0.00000000000E+00  0.74505805969E-08  0.10566000000E+00  0.10566000000E+00 0. -1.
     999900   -1    0    0    0    0 -0.00000000000E+00 -0.00000000000E+00 -0.74505805969E-08  0.93827000000E+00  0.93827000000E+00 0. -1.
     999902    2    1    2    0    0 -0.21453798268E-01  0.11362712556E-01  0.57559100081E-02  0.10189799059E+01  0.10186744040E+01 0.  0.
     999903    2    3    3    0    0 -0.19858095845E-01 -0.89615276631E-01  0.87785937788E-01  0.12941370484E+00  0.24825276457E-01 0.  0.
         14    1    1    2    0    0  0.21453798268E-01 -0.11362712556E-01 -0.57559100081E-02  0.24950094124E-01  0.00000000000E+00 0.  1.
     999901    1    3    3    0    0 -0.15957024228E-02  0.10097798919E+00 -0.82030027780E-01  0.88956620104E+00  0.88000000000E+00 0. -1.
        -11    1    4    4    0    0 -0.59630457076E-02 -0.23357374173E-01  0.95042637007E-02  0.25917503581E-01  0.51100000000E-03 0.  1.
         11    1    4    4    0    0 -0.13895050138E-01 -0.66257902458E-01  0.78281674087E-01  0.10349620126E+00  0.51100000000E-03 0. -1.
</event>
<event>
 8    1  0.1078274E+005  0.1043930E+01  0.7957747E-01            NaN
         13   -1    0    0    0    0  0.00000000000E+00  0.00000000000E+00  0.74505805969E-08  0.10566000000E+00  0.10566000000E+00 0. -1.
     999900   -1    0    0    0    0 -0.00000000000E+00 -0.00000000000E+00 -0.74505805969E-08  0.93827000000E+00  0.93827000000E+00 0.  1.
     999902    2    1    2    0    0  0.12701307103E-01 -0.20735750667E-01 -0.20419724691E-02  0.10195278647E+01  0.10192357934E+01 0.  0.
     999903    2    3    3    0    0  0.83038298892E-01  0.10240561568E-01 -0.98628111126E-01  0.13091337765E+00  0.20262772753E-01 0.  0.
         14    1    1    2    0    0 -0.12701307103E-01  0.20735750667E-01  0.20419724691E-02  0.24402135345E-01  0.00000000000E+00 0. -1.
     999901    1    3    3    0    0 -0.70336991789E-01 -0.30976312235E-01  0.96586138656E-01  0.88861448700E+00  0.88000000000E+00 0.  1.
        -11    1    4    4    0    0  0.13648460112E-03  0.13821316055E-02 -0.64706038947E-02  0.66376766706E-02  0.51100000000E-03 0. -1.
         11    1    4    4    0    0  0.82901814291E-01  0.88584299626E-02 -0.92157507231E-01  0.12427570098E+00  0.51100000000E-03 0.  1.
</event>
<event>
 8    1  0.1115537E+005  0.1043930E+01  0.7957747E-01            NaN
         13   -1    0    0    0    0  0.00000000000E+00  0.00000000000E+00  0.74505805969E-08  0.10566000000E+00  0.10566000000E+00 0. -1.
     999900   -1    0    0    0    0 -0.00000000000E+00 -0.00000000000E+00 -0.74505805969E-08  0.93827000000E+00  0.93827000000E+00 0. -1.
     999902    2    1    2    0    0  0.50784119789E-02  0.24094147231E-01  0.98347502540E-02  0.10174150889E+01  0.10170695269E+01 0.  0.
     999903    2    3    3    0    0 -0.12420718439E+00 -0.60324097539E-02  0.18335119522E-01  0.12741810510E+00  0.20865815977E-01 0.  0.
         14    1    1    2    0    0 -0.50784119789E-02 -0.24094147231E-01 -0.98347502540E-02  0.26514911118E-01  0.00000000000E+00 0.  1.
     999901    1    3    3    0    0  0.12928559637E+00  0.30126556985E-01 -0.85003692682E-02  0.88999698378E+00  0.88000000000E+00 0.  1.
        -11    1    4    4    0    0 -0.69500041308E-01 -0.13100964648E-01  0.13873012251E-01  0.72073660975E-01  0.51100000000E-03 0.  1.
         11    1    4    4    0    0 -0.54707143087E-01  0.70685548940E-02  0.44621072715E-02  0.55344444124E-01  0.51100000000E-03 0. -1.
</event>
<event>
 8    1  0.1078274E+005  0.1043930E+01  0.7957747E-01            NaN
         13   -1    0    0    0    0  0.00000000000E+00  0.00000000000E+00  0.74505805969E-08  0.10566000000E+00  0.10566000000E+00 0.  1.
     999900   -1    0    0    0    0 -0.00000000000E+00 -0.00000000000E+00 -0.74505805969E-08  0.93827000000E+00  0.93827000000E+00 0. -1.
     999902    2    1    2    0    0  0.24166911412E-02  0.16724486837E-01 -0.16037499548E-01  0.10206329992E+01  0.10203670755E+01 0.  0.
     999903    2    3    3    0    0 -0.91126176647E-01  0.76162971325E-01 -0.55822928261E-01  0.13278949838E+00  0.20299588398E-01 0.  0.
         14    1    1    2    0    0 -0.24166911412E-02 -0.16724486837E-01  0.16037499548E-01  0.23297000832E-01  0.00000000000E+00 0.  1.
     999901    1    3    3    0    0  0.93542867788E-01 -0.59438484488E-01  0.39785428713E-01  0.88784350079E+00  0.88000000000E+00 0. -1.
        -11    1    4    4    0    0 -0.22844461496E-01  0.30489350539E-01 -0.13880299283E-01  0.40551125096E-01  0.51100000000E-03 0. -1.
         11    1    4    4    0    0 -0.68281715151E-01  0.45673620786E-01 -0.41942628978E-01  0.92238373285E-01  0.51100000000E-03 0.  1.
</event>
<event>
 8    1  0.1078274E+005  0.1043930E+01  0.7957747E-01            NaN
         13   -1    0    0    0    0  0.00000000000E+00  0.00000000000E+00  0.74505805969E-08  0.10566000000E+00  0.10566000000E+00 0. -1.
     999900   -1    0    0    0    0 -0.00000000000E+00 -0.00000000000E+00 -0.74505805969E-08  0.93827000000E+00  0.93827000000E+00 0. -1.
     999902    2    1    2    0    0 -0.16852965864E-01 -0.89657067491E-02 -0.14709131739E-01  0.10198309354E+01  0.10195461598E+01 0.  0.
     999903    2    3    3    0    0 -0.57500287143E-01  0.79499038553E-01  0.81602047228E-01  0.12923896429E+00  0.20431241442E-01 0.  0.
         14    1    1    2    0    0  0.16852965864E-01  0.89657067491E-02  0.14709131739E-01  0.24099064556E-01  0.00000000000E+00 0.  1.
     999901    1    3    3    0    0  0.40647321279E-01 -0.88464745302E-01 -0.96311178967E-01  0.89059197115E+00  0.88000000000E+00 0. -1.
        -11    1    4    4    0    0 -0.24073048556E-01  0.49961606755E-01  0.41731820408E-01  0.69408067052E-01  0.51100000000E-03 0.  1.
         11    1    4    4    0    0 -0.33427238587E-01  0.29537431798E-01  0.39870226820E-01  0.59830897239E-01  0.51100000000E-03 0. -1.
</event>
<event>
 8    1  0.1078274E+005  0.1043930E+01  0.7957747E-01            NaN
         13   -1    0    0    0    0  0.00000000000E+00  0.00000000000E+00  0.74505805969E-08  0.10566000000E+00  0.10566000000E+00 0.  1.
     999900   -1    0    0    0    0 -0.00000000000E+00 -0.00000000000E+00 -0.74505805969E-08  0.93827000000E+00  0.93827000000E+00 0. -1.
     999902    2    1    2    0    0  0.10534204748E-02  0.22007719987E-01  0.64879673686E-02  0.10209616924E+01  0.10207033037E+01 0.  0.
     999903    2    3    3    0    0 -0.13167989982E-01 -0.61219530435E-01 -0.11108245004E+00  0.12913669455E+00  0.20389906943E-01 0.  0.
         14    1    1    2    0    0 -0.10534204748E-02 -0.22007719987E-01 -0.64879673686E-02  0.22968307606E-01  0.00000000000E+00 0. -1.
     999901    1    3    3    0    0  0.14221410456E-01  0.83227250421E-01  0.11757041741E+00  0.89182499784E+00  0.88000000000E+00 0.  1.
        -11    1    4    4    0    0 -0.41256604086E-02 -0.26032490300E-01 -0.28003351785E-01  0.38459855138E-01  0.51100000000E-03 0. -1.
         11    1    4    4    0    0 -0.90423295730E-02 -0.35187040134E-01 -0.83079098258E-01  0.90676839413E-01  0.51100000000E-03 0.  1.
</event>
<event>
 8    1  0.1078274E+005  0.1043930E+01  0.7957747E-01            NaN
         13   -1    0    0    0    0  0.00000000000E+00  0.00000000000E+00  0.74505805969E-08  0.10566000000E+00  0.10566000000E+00 0. -1.
     999900   -1    0    0    0    0 -0.00000000000E+00 -0.00000000000E+00 -0.74505805969E-08  0.93827000000E+00  0.93827000000E+00 0.  1.
     999902    2    1    2    0    0  0.93669197408E-03  0.19434473521E-01 -0.17025067188E-01  0.10180760048E+01  0.10177476714E+01 0.  0.
     999903    2    3    3    0    0  0.78021526320E-02 -0.88110905934E-01 -0.90892869679E-01  0.12843023520E+00  0.20209062951E-01 0.  0.
         14    1    1    2    0    0 -0.93669197408E-03 -0.19434473521E-01  0.17025067188E-01  0.25853995158E-01  0.00000000000E+00 0. -1.
     999901    1    3    3    0    0 -0.68654606579E-02  0.10754537946E+00  0.73867802492E-01  0.88964576964E+00  0.88000000000E+00 0.  1.
        -11    1    4    4    0    0  0.48165551563E-02 -0.17221258845E-01 -0.30000781713E-01  0.34929629030E-01  0.51100000000E-03 0. -1.
         11    1    4    4    0    0  0.29855974757E-02 -0.70889647089E-01 -0.60892087966E-01  0.93500606172E-01  0.51100000000E-03 0.  1.
</event>
<event>
 8    1  0.1078274E+005  0.1043930E+01  0.7957747E-01            NaN
         13   -1    0    0    0    0  0.00000000000E+00  0.00000000000E+00  0.74505805969E-08  0.10566000000E+00  0.10566000000E+00 0.  1.
     999900   -1    0    0    0    0 -0.00000000000E+00 -0.00000000000E+00 -0.74505805969E-08  0.93827000000E+00  0.93827000000E+00 0. -1.
     999902    2    1    2    0    0  0.14142180868E-01  0.19084293653E-01 -0.30495742712E-02  0.10199819010E+01  0.10197007242E+01 0.  0.
     999903    2    3    3    0    0  0.13539087354E-01 -0.15232798650E-01  0.12711373191E+00  0.12974568916E+00  0.16146144210E-01 0.  0.
         14    1    1    2    0    0 -0.14142180868E-01 -0.19084293653E-01  0.30495742712E-02  0.23948099030E-01  0.00000000000E+00 0.  1.
     999901    1    3    3    0    0  0.60309351342E-03  0.34317092302E-01 -0.13016330618E+00  0.89023621181E+00  0.88000000000E+00 0. -1.
        -11    1    4    4    0    0  0.13994114722E-01 -0.71718896186E-02  0.55833967746E-01  0.58008312532E-01  0.51100000000E-03 0. -1.
         11    1    4    4    0    0 -0.45502736765E-03 -0.80609090309E-02  0.71279764167E-01  0.71737376625E-01  0.51100000000E-03 0.  1.
</event>
<event>
 8    1  0.1357811E+005  0.1043930E+01  0.7957747E-01            NaN
         13   -1    0    0    0    0  0.00000000000E+00  0.00000000000E+00  0.74505805969E-08  0.10566000000E+00  0.10566000000E+00 0.  1.
     999900   -1    0    0    0    0 -0.00000000000E+00 -0.00000000000E+00 -0.74505805969E-08  0.93827000000E+00  0.93827000000E+00 0. -1.
     999902    2    1    2    0    0 -0.45546604126E-02  0.86232027446E-02  0.21250517948E-01  0.10205486170E+01  0.10202807411E+01 0.  0.
     999903    2    3    3    0    0  0.29139938964E-01  0.84685730199E-01 -0.91222716706E-01  0.12949807826E+00  0.20672670057E-01 0.  0.
         14    1    1    2    0    0  0.45546604126E-02 -0.86232027446E-02 -0.21250517948E-01  0.23381382981E-01  0.00000000000E+00 0. -1.
     999901    1    3    3    0    0 -0.33694599376E-01 -0.76062527455E-01  0.11247323465E+00  0.89105053876E+00  0.88000000000E+00 0.  1.
        -11    1    4    4    0    0  0.20834049149E-02  0.35569585895E-01 -0.39671299691E-01  0.53325501939E-01  0.51100000000E-03 0. -1.
         11    1    4    4    0    0  0.27056534049E-01  0.49116144304E-01 -0.51551417015E-01  0.76172576320E-01  0.51100000000E-03 0.  1.
</event>
<event>
 7    1  0.1078274E+005  0.1043930E+01  0.7957747E-01            NaN
         13   -1    0    0    0    0  0.00000000000E+00  0.00000000000E+00  0.74505805969E-08  0.10566000000E+00  0.10566000000E+00 0. -1.
     999900   -1    0    0    0    0 -0.00000000000E+00 -0.00000000000E+00 -0.74505805969E-08  0.93827000000E+00  0.93827000000E+00 0. -1.
     999903    2    1    2    0    0  0.10950159290E-01  0.50509247028E-01 -0.99654298171E-01  0.11411999692E+00  0.20525704104E-01 0.  0.
         14    1    1    2    0    0  0.39170354051E-01  0.56897856817E-02 -0.69389798182E-02  0.40185068602E-01  0.00000000000E+00 0. -1.
     999901    1    1    2    0    0 -0.50120513341E-01 -0.56199032710E-01  0.10659327799E+00  0.88962493448E+00  0.88000000000E+00 0. -1.
        -11    1    3    3    0    0 -0.42451455680E-02  0.20342082305E-01 -0.49084745701E-01  0.53304736702E-01  0.51100000000E-03 0.  1.
         11    1    3    3    0    0  0.15195304858E-01  0.30167164724E-01 -0.50569552470E-01  0.60815260216E-01  0.51100000000E-03 0. -1.
</event>
<event>
 8    1  0.1078274E+005  0.1043930E+01  0.7957747E-01            NaN
         13   -1    0    0    0    0  0.00000000000E+00  0.00000000000E+00  0.74505805969E-08  0.10566000000E+00  0.10566000000E+00 0.  1.
     999900   -1    0    0    0    0 -0.00000000000E+00 -0.00000000000E+00 -0.74505805969E-08  0.93827000000E+00  0.93827000000E+00 0. -1.
     999902    2    1    2    0    0  0.28459232352E-01 -0.18767008871E-02 -0.53838974499E-02  0.10149052474E+01  0.10144901305E+01 0.  0.
     999903    2    3    3    0    0  0.79412285077E-01  0.15832131927E-01  0.96314150489E-01  0.12740746751E+00  0.19981986140E-01 0.  0.
         14    1    1    2    0    0 -0.28459232352E-01  0.18767008871E-02  0.53838974499E-02  0.29024752609E-01  0.00000000000E+00 0. -1.
     999901    1    3    3    0    0 -0.50953052725E-01 -0.17708832814E-01 -0.10169804794E+00  0.88749777988E+00  0.88000000000E+00 0. -1.
        -11    1    4    4    0    0  0.39561415559E-01  0.37535884170E-03  0.36081866101E-01  0.53548190237E-01  0.51100000000E-03 0. -1.
         11    1    4    4    0    0  0.39850869517E-01  0.15456773086E-01  0.60232284388E-01  0.73859277272E-01  0.51100000000E-03 0.  1.
</event>
<event>
 8    1  0.1078274E+005  0.1043930E+01  0.7957747E-01            NaN
         13   -1    0    0    0    0  0.00000000000E+00  0.00000000000E+00  0.74505805969E-08  0.10566000000E+00  0.10566000000E+00 0. -1.
     999900   -1    0    0    0    0 -0.00000000000E+00 -0.00000000000E+00 -0.74505805969E-08  0.93827000000E+00  0.93827000000E+00 0.  1.
     999902    2    1    2    0    0  0.68739529026E-02 -0.10822568638E-01 -0.19146496778E-01  0.10208872667E+01  0.10206271815E+01 0.  0.
     999903    2    3    3    0    0  0.32274084281E-01  0.59312656272E-01  0.10800296770E+00  0.12862547618E+00  0.17895931944E-01 0.  0.
         14    1    1    2    0    0 -0.68739529026E-02  0.10822568638E-01  0.19146496778E-01  0.23042733329E-01  0.00000000000E+00 0. -1.
     999901    1    3    3    0    0 -0.25400131378E-01 -0.70135224910E-01 -0.12714946448E+00  0.89226179049E+00  0.88000000000E+00 0.  1.
        -11    1    4    4    0    0  0.21205620550E-01  0.45805231057E-01  0.91975013093E-01  0.10491645100E+00  0.51100000000E-03 0. -1.
         11    1    4    4    0    0  0.11068463731E-01  0.13507425215E-01  0.16027954610E-01  0.23709025186E-01  0.51100000000E-03 0.  1.
</event>
<event>
 8    1  0.1078274E+005  0.1043930E+01  0.7957747E-01            NaN
         13   -1    0    0    0    0  0.00000000000E+00  0.00000000000E+00  0.74505805969E-08  0.10566000000E+00  0.10566000000E+00 0. -1.
     999900   -1    0    0    0    0 -0.00000000000E+00 -0.00000000000E+00 -0.74505805969E-08  0.93827000000E+00  0.93827000000E+00 0.  1.
     999902    2    1    2    0    0 -0.75003900145E-02  0.73044485123E-02  0.18752214181E-01  0.10224531205E+01  0.10222275320E+01 0.  0.
     999903    2    3    3    0    0 -0.56089205877E-01  0.11903538591E+00 -0.11640664352E-01  0.13353894998E+00  0.19537757835E-01 0.  0.
         14    1    1    2    0    0  0.75003900145E-02 -0.73044485123E-02 -0.18752214181E-01  0.21476879548E-01  0.00000000000E+00 0.  1.
     999901    1    3    3    0    0  0.48588815863E-01 -0.11173093740E+00  0.30392878533E-01  0.88891417047E+00  0.88000000000E+00 0. -1.
        -11    1    4    4    0    0 -0.44307611252E-01  0.88944601272E-01 -0.16890970947E-01  0.10079619304E+00  0.51100000000E-03 0.  1.
         11    1    4    4    0    0 -0.11781594625E-01  0.30090784636E-01  0.52503065944E-02  0.32742756943E-01  0.51100000000E-03 0. -1.
</event>
<event>
 8    1  0.1078274E+005  0.1043930E+01  0.7957747E-01            NaN
         13   -1    0    0    0    0  0.00000000000E+00  0.00000000000E+00  0.74505805969E-08  0.10566000000E+00  0.10566000000E+00 0.  1.
     999900   -1    0    0    0    0 -0.00000000000E+00 -0.00000000000E+00 -0.74505805969E-08  0.93827000000E+00  0.93827000000E+00 0. -1.
     999902    2    1    2    0    0  0.15768228738E-02 -0.16511476431E-01 -0.15351539050E-01  0.10213294475E+01  0.10210793580E+01 0.  0.
     999903    2    3    3    0    0 -0.96292699132E-01 -0.17415869386E-01  0.83645841759E-01  0.13038627156E+00  0.20696776428E-01 0.  0.
         14    1    1    2    0    0 -0.15768228738E-02  0.16511476431E-01  0.15351539050E-01  0.22600552549E-01  0.00000000000E+00 0.  1.
     999901    1    3    3    0    0  0.97869522006E-01  0.90439295508E-03 -0.98997380810E-01  0.89094317589E+00  0.88000000000E+00 0.  1.
        -11    1    4    4    0    0 -0.57151937656E-01 -0.12237556494E-02  0.41599454976E-01  0.70700900497E-01  0.51100000000E-03 0. -1.
         11    1    4    4    0    0 -0.39140761476E-01 -0.16192113736E-01  0.42046386784E-01  0.59685371061E-01  0.51100000000E-03 0.  1.
</event>
<event>
 8    1  0.1078274E+005  0.1043930E+01  0.7957747E-01            NaN
         13   -1    0    0    0    0  0.00000000000E+00  0.00000000000E+00  0.74505805969E-08  0.10566000000E+00  0.10566000000E+00 0.  1.
     999900   -1    0    0    0    0 -0.00000000000E+00 -0.00000000000E+00 -0.74505805969E-08  0.93827000000E+00  0.93827000000E+00 0.  1.
     999902    2    1    2    0    0 -0.16832481789E-01  0.14053991204E-01  0.87257153607E-02  0.10203294657E+01  0.10200564853E+01 0.  0.
     999903    2    3    3    0    0  0.26634275392E-01  0.82805158506E-01 -0.95054493667E-01  0.13050565515E+00  0.20743441362E-01 0.  0.
         14    1    1    2    0    0  0.16832481789E-01 -0.14053991204E-01 -0.87257153607E-02  0.23600534326E-01  0.00000000000E+00 0. -1.
     999901    1    3    3    0    0 -0.43466757181E-01 -0.68751167303E-01  0.10378020903E+00  0.88982381052E+00  0.88000000000E+00 0. -1.
        -11    1    4    4    0    0  0.19447118135E-01  0.62210051584E-01 -0.56756148317E-01  0.86428018690E-01  0.51100000000E-03 0.  1.
         11    1    4    4    0    0  0.71871572565E-02  0.20595106922E-01 -0.38298345350E-01  0.44077636462E-01  0.51100000000E-03 0. -1.
</event>
<event>
 8    1  0.1078274E+005  0.1043930E+01  0.7957747E-01            NaN
         13   -1    0    0    0    0  0.00000000000E+00  0.00000000000E+00  0.74505805969E-08  0.10566000000E+00  0.10566000000E+00 0. -1.
     999900   -1    0    0    0    0 -0.00000000000E+00 -0.00000000000E+00 -0.74505805969E-08  0.93827000000E+00  0.93827000000E+00 0. -1.
     999902    2    1    2    0    0  0.10983708800E-02 -0.20609691127E-01 -0.12320412221E-01  0.10198933957E+01  0.10196101119E+01 0.  0.
     999903    2    3    3    0    0  0.27662459090E-01 -0.11802711836E+00 -0.51692289084E-01  0.13324467691E+00  0.19658048316E-01 0.  0.
         14    1    1    2    0    0 -0.10983708800E-02  0.20609691127E-01  0.12320412221E-01  0.24036604257E-01  0.00000000000E+00 0. -1.
     999901    1    3    3    0    0 -0.26564088210E-01  0.97417427235E-01  0.39371876863E-01  0.88664871883E+00  0.88000000000E+00 0.  1.
        -11    1    4    4    0    0  0.13915976697E-01 -0.53334545214E-01 -0.34057648487E-01  0.64795159249E-01  0.51100000000E-03 0.  1.
         11    1    4    4    0    0  0.13746482393E-01 -0.64692573148E-01 -0.17634640597E-01  0.68449517666E-01  0.51100000000E-03 0. -1.
</event>
<event>
 8    1  0.1078274E+005  0.1043930E+01  0.7957747E-01            NaN
         13   -1    0    0    0    0  0.00000000000E+00  0.00000000000E+00  0.74505805969E-08  0.10566000000E+00  0.10566000000E+00 0. -1.
     999900   -1    0    0    0    0 -0.00000000000E+00 -0.00000000000E+00 -0.74505805969E-08  0.93827000000E+00  0.93827000000E+00 0.  1.
     999902    2    1    2    0    0 -0.10434347731E-01  0.16315509380E-02  0.23640386777E-01  0.10180378109E+01  0.10177084941E+01 0.  0.
     999903    2    3    3    0    0 -0.20465864850E-01  0.12152179411E+00 -0.28460463105E-01  0.12832504806E+00  0.21700735754E-01 0.  0.
         14    1    1    2    0    0  0.10434347731E-01 -0.16315509380E-02 -0.23640386777E-01  0.25892189131E-01  0.00000000000E+00 0.  1.
     999901    1    3    3    0    0  0.10031517119E-01 -0.11989024317E+00  0.52100849882E-01  0.88971276281E+00  0.88000000000E+00 0. -1.
        -11    1    4    4    0    0 -0.22026360464E-02  0.51869787633E-01 -0.20723658019E-01  0.55902214601E-01  0.51100000000E-03 0. -1.
         11    1    4    4    0    0 -0.18263228803E-01  0.69652006477E-01 -0.77368050866E-02  0.72422833461E-01  0.51100000000E-03 0.  1.
</event>
<event>
 8    1  0.1078274E+005  0.1043930E+01  0.7957747E-01            NaN
         13   -1    0    0    0    0  0.00000000000E+00  0.00000000000E+00  0.74505805969E-08  0.10566000000E+00  0.10566000000E+00 0. -1.
     999900   -1    0    0    0    0 -0.00000000000E+00 -0.00000000000E+00 -0.74505805969E-08  0.93827000000E+00  0.93827000000E+00 0.  1.
     999902    2    1    2    0    0  0.19242255613E-01  0.12147738887E-01 -0.75485991898E-02  0.10199547354E+01  0.10196729128E+01 0.  0.
     999903    2    3    3    0    0  0.61755541195E-01 -0.11113420278E+00 -0.19837040285E-01  0.13025994374E+00  0.20238252847E-01 0.  0.
         14    1    1    2    0    0 -0.19242255613E-01 -0.12147738887E-01  0.75485991898E-02  0.23975264563E-01  0.00000000000E+00 0. -1.
     999901    1    3    3    0    0 -0.42513285582E-01  0.12328194167E+00  0.12288441095E-01  0.88969479170E+00  0.88000000000E+00 0. -1.
        -11    1    4    4    0    0  0.56472561504E-02 -0.19695495852E-01 -0.91554839506E-02  0.22447451220E-01  0.51100000000E-03 0. -1.
         11    1    4    4    0    0  0.56108285044E-01 -0.91438706932E-01 -0.10681556334E-01  0.10781249252E+00  0.51100000000E-03 0.  1.
</event>
<event>
 8    1  0.1078274E+005  0.1043930E+01  0.7957747E-01            NaN
         13   -1    0    0    0    0  0.00000000000E+00  0.00000000000E+00  0.74505805969E-08  0.10566000000E+00  0.10566000000E+00 0.  1.
     999900   -1    0    0    0    0 -0.00000000000E+00 -0.00000000000E+00 -0.74505805969E-08  0.93827000000E+00  0.93827000000E+00 0. -1.
     999902    2    1    2    0    0 -0.23664862907E-01 -0.52376670487E-02  0.32152354996E-02  0.10194801200E+01  0.10191868908E+01 0.  0.
     999903    2    3    3    0    0  0.89768904328E-01  0.50810294303E-01 -0.71527736134E-01  0.12729454215E+00  0.21155170371E-01 0.  0.
         14    1    1    2    0    0  0.23664862907E-01  0.52376670487E-02 -0.32152354996E-02  0.24449879996E-01  0.00000000000E+00 0. -1.
     999901    1    3    3    0    0 -0.11343376723E+00 -0.56047961352E-01  0.74742971633E-01  0.89218557785E+00  0.88000000000E+00 0. -1.
        -11    1    4    4    0    0  0.73775108270E-01  0.41827265468E-01 -0.67776102989E-01  0.10856402716E+00  0.51100000000E-03 0.  1.
         11    1    4    4    0    0  0.15993796058E-01  0.89830288356E-02 -0.37516331454E-02  0.18730514986E-01  0.51100000000E-03 0. -1.
</event>
<event>
 8    1  0.1078274E+005  0.1043930E+01  0.7957747E-01            NaN
         13   -1    0    0    0    0  0.00000000000E+00  0.00000000000E+00  0.74505805969E-08  0.10566000000E+00  0.10566000000E+00 0. -1.
     999900   -1    0    0    0    0 -0.00000000000E+00 -0.00000000000E+00 -0.74505805969E-08  0.93827000000E+00  0.93827000000E+00 0. -1.
     999902    2    1    2    0    0 -0.14465206086E-01  0.56261898804E-02  0.16895050664E-01  0.10209879221E+01  0.10207301300E+01 0.  0.
     999903    2    3    3    0    0 -0.71558622321E-01 -0.10649910243E+00 -0.18404443872E-01  0.13133754493E+00  0.21169126284E-01 0.  0.
         14    1    1    2    0    0  0.14465206086E-01 -0.56261898804E-02 -0.16895050664E-01  0.22942077862E-01  0.00000000000E+00 0. -1.
     999901    1    3    3    0    0  0.57093416236E-01  0.11212529231E+00  0.35299494536E-01  0.88965037721E+00  0.88000000000E+00 0.  1.
        -11    1    4    4    0    0 -0.69164684399E-02 -0.19035046323E-01 -0.90094367396E-02  0.22172090464E-01  0.51100000000E-03 0.  1.
         11    1    4    4    0    0 -0.64642153881E-01 -0.87464056104E-01 -0.93950071325E-02  0.10916545447E+00  0.51100000000E-03 0. -1.
</event>
<event>
 7    1  0.1078274E+005  0.1043930E+01  0.7957747E-01            NaN
         13   -1    0    0    0    0  0.00000000000E+00  0.00000000000E+00  0.74505805969E-08  0.10566000000E+00  0.10566000000E+00 0.  1.
     999900   -1    0    0    0    0 -0.00000000000E+00 -0.00000000000E+00 -0.74505805969E-08  0.93827000000E+00  0.93827000000E+00 0. -1.
     999902    2    1    2    0    0 -0.20468553194E-01  0.11762091937E-01 -0.63740508112E-02  0.10194772496E+01  0.10191839508E+01 0.  0.
         14    1    1    2    0    0  0.20468553194E-01 -0.11762091937E-01  0.63740508112E-02  0.24452750363E-01  0.00000000000E+00 0.  1.
     999901    1    3    3    0    0  0.24470214858E-01 -0.83047631304E-01 -0.76391358339E-01  0.88754230328E+00  0.88000000000E+00 0. -1.
        -11    1    3    3    0    0 -0.29475309820E-02  0.38999204496E-01  0.39897635643E-01  0.55872250188E-01  0.51100000000E-03 0.  1.
         11    1    3    3    0    0 -0.41991237069E-01  0.55810518745E-01  0.30119671885E-01  0.76062696170E-01  0.51100000000E-03 0. -1.
</event>
<event>
 8    1  0.1078274E+005  0.1043930E+01  0.7957747E-01            NaN
         13   -1    0    0    0    0  0.00000000000E+00  0.00000000000E+00  0.74505805969E-08  0.10566000000E+00  0.10566000000E+00 0. -1.
     999900   -1    0    0    0    0 -0.00000000000E+00 -0.00000000000E+00 -0.74505805969E-08  0.93827000000E+00  0.93827000000E+00 0. -1.
     999902    2    1    2    0    0 -0.12953816689E-01 -0.40094604323E-02  0.18235531013E-01  0.10212053057E+01  0.10209524302E+01 0.  0.
     999903    2    3    3    0    0 -0.89091083942E-01  0.25146250631E-01 -0.90511800196E-01  0.13077118630E+00  0.18416352289E-01 0.  0.
         14    1    1    2    0    0  0.12953816689E-01  0.40094604323E-02 -0.18235531013E-01  0.22724694301E-01  0.00000000000E+00 0.  1.
     999901    1    3    3    0    0  0.76137267254E-01 -0.29155711063E-01  0.10874733121E+00  0.89043411940E+00  0.88000000000E+00 0.  1.
        -11    1    4    4    0    0 -0.21847816785E-01  0.11431413096E-02 -0.30270405976E-01  0.37352275289E-01  0.51100000000E-03 0. -1.
         11    1    4    4    0    0 -0.67243267157E-01  0.24003109321E-01 -0.60241394220E-01  0.93418911006E-01  0.51100000000E-03 0.  1.
</event>
<event>
 8    1  0.1078274E+005  0.1043930E+01  0.7957747E-01            NaN
         13   -1    0    0    0    0  0.00000000000E+00  0.00000000000E+00  0.74505805969E-08  0.10566000000E+00  0.10566000000E+00 0. -1.
     999900   -1    0    0    0    0 -0.00000000000E+00 -0.00000000000E+00 -0.74505805969E-08  0.93827000000E+00  0.93827000000E+00 0.  1.
     999902    2    1    2    0    0  0.54600831932E-02 -0.36222070031E-02  0.25650318352E-01  0.10174560180E+01  0.10171115361E+01 0.  0.
     999903    2    3    3    0    0  0.46614746612E-01 -0.60356907021E-01  0.10445608595E+00  0.13115873067E+00  0.21809353746E-01 0.  0.
         14    1    1    2    0    0 -0.54600831932E-02  0.36222070031E-02 -0.25650318352E-01  0.26473982012E-01  0.00000000000E+00 0.  1.
     999901    1    3    3    0    0 -0.41154663419E-01  0.56734700018E-01 -0.78805767599E-01  0.88629728732E+00  0.88000000000E+00 0.  1.
        -11    1    4    4    0    0  0.39466964065E-01 -0.39277708376E-01  0.84866058357E-01  0.10150314581E+00  0.51100000000E-03 0.  1.
         11    1    4    4    0    0  0.71477825474E-02 -0.21079198645E-01  0.19590027594E-01  0.29655584854E-01  0.51100000000E-03 0. -1.
</event>
<event>
 8    1  0.1078274E+005  0.1043930E+01  0.7957747E-01            NaN
         13   -1    0    0    0    0  0.00000000000E+00  0.00000000000E+00  0.74505805969E-08  0.10566000000E+00  0.10566000000E+00 0. -1.
     999900   -1    0    0    0    0 -0.00000000000E+00 -0.00000000000E+00 -0.74505805969E-08  0.93827000000E+00  0.93827000000E+00 0. -1.
     999902    2    1    2    0    0 -0.12961124992E-01 -0.15557492550E-01 -0.65371550202E-02  0.10226518250E+01  0.10224304350E+01 0.  0.
     999903    2    3    3    0    0 -0.85865746581E-01  0.98242713666E-01 -0.91371713290E-02  0.13233034887E+00  0.20081735656E-01 0.  0.
         14    1    1    2    0    0  0.12961124992E-01  0.15557492550E-01  0.65371550202E-02  0.21278174998E-01  0.00000000000E+00 0. -1.
     999901    1    3    3    0    0  0.72904621589E-01 -0.11380020622E+00  0.26000163088E-02  0.89032147614E+00  0.88000000000E+00 0. -1.
        -11    1    4    4    0    0 -0.60303827621E-01  0.64491692844E-01 -0.15081275090E-01  0.89573634798E-01  0.51100000000E-03 0.  1.
         11    1    4    4    0    0 -0.25561918960E-01  0.33751020822E-01  0.59441037605E-02  0.42756714069E-01  0.51100000000E-03 0. -1.
</event>
<event>
 8    1  0.1078274E+005  0.1043930E+01  0.7957747E-01            NaN
         13   -1    0    0    0    0  0.00000000000E+00  0.00000000000E+00  0.74505805969E-08  0.10566000000E+00  0.10566000000E+00 0. -1.
     999900   -1    0    0    0    0 -0.00000000000E+00 -0.00000000000E+00 -0.74505805969E-08  0.93827000000E+00  0.93827000000E+00 0.  1.
     999902    2    1    2    0    0 -0.11995975646E-01  0.24486844843E-02 -0.15311835569E-01  0.10243251079E+01  0.10241374785E+01 0.  0.
     999903    2    3    3    0    0  0.46889832960E-01  0.11097610998E+00  0.52679943167E-01  0.13310761335E+00  0.20690744263E-01 0.  0.
         14    1    1    2    0    0  0.11995975646E-01 -0.24486844843E-02  0.15311835569E-01  0.19604892142E-01  0.00000000000E+00 0. -1.
     999901    1    3    3    0    0 -0.58885808606E-01 -0.10852742550E+00 -0.67991778736E-01  0.89121749451E+00  0.88000000000E+00 0.  1.
        -11    1    4    4    0    0  0.11524138285E-02  0.19087679011E-01  0.41702228064E-02  0.19578545066E-01  0.51100000000E-03 0. -1.
         11    1    4    4    0    0  0.45737419132E-01  0.91888430970E-01  0.48509720361E-01  0.11352906828E+00  0.51100000000E-03 0.  1.
</event>
<event>
 8    1  0.1078274E+005  0.1043930E+01  0.7957747E-01            NaN
         13   -1    0    0    0    0  0.00000000000E+00  0.00000000000E+00  0.74505805969E-08  0.10566000000E+00  0.10566000000E+00 0. -1.
     999900   -1    0    0    0    0 -0.00000000000E+00 -0.00000000000E+00 -0.74505805969E-08  0.93827000000E+00  0.93827000000E+00 0.  1.
     999902    2    1    2    0    0 -0.33856872548E-02  0.13160738577E-01 -0.19232799893E-01  0.10203807217E+01  0.10201089396E+01 0.  0.
     999903    2    3    3    0    0 -0.31184259359E-01 -0.83499287566E-01 -0.94424275130E-01  0.13146583305E+00  0.20560458888E-01 0.  0.
         14    1    1    2    0    0  0.33856872548E-02 -0.13160738577E-01  0.19232799893E-01  0.23549278329E-01  0.00000000000E+00 0. -1.
     999901    1    3    3    0    0  0.27798572104E-01  0.96660026144E-01  0.75191475238E-01  0.88891488862E+00  0.88000000000E+00 0. -1.
        -11    1    4    4    0    0 -0.87200835746E-02 -0.41181489005E-01 -0.55939822909E-01  0.70010569218E-01  0.51100000000E-03 0. -1.
         11    1    4    4    0    0 -0.22464175784E-01 -0.42317798562E-01 -0.38484452221E-01  0.61455263831E-01  0.51100000000E-03 0.  1.
</event>
<event>
 8    1  0.1078274E+005  0.1043930E+01  0.7957747E-01            NaN
         13   -1    0    0    0    0  0.00000000000E+00  0.00000000000E+00  0.74505805969E-08  0.10566000000E+00  0.10566000000E+00 0. -1.
     999900   -1    0    0    0    0 -0.00000000000E+00 -0.00000000000E+00 -0.74505805969E-08  0.93827000000E+00  0.93827000000E+00 0. -1.
     999902    2    1    2    0    0  0.14984243774E-01  0.11941148806E-01  0.13863580996E-01  0.10202801063E+01  0.10200059695E+01 0.  0.
     999903    2    3    3    0    0  0.12935554076E+00 -0.16263175142E-01 -0.12541548515E-01  0.13203829890E+00  0.16717510133E-01 0.  0.
         14    1    1    2    0    0 -0.14984243774E-01 -0.11941148806E-01 -0.13863580996E-01  0.23649893749E-01  0.00000000000E+00 0.  1.
     999901    1    3    3    0    0 -0.11437129699E+00  0.28204323948E-01  0.26405129511E-01  0.88824180735E+00  0.88000000000E+00 0. -1.
        -11    1    4    4    0    0  0.33724080492E-01 -0.65003491954E-04 -0.93108029588E-02  0.34989569921E-01  0.51100000000E-03 0.  1.
         11    1    4    4    0    0  0.95631460271E-01 -0.16198171650E-01 -0.32307455562E-02  0.97048728978E-01  0.51100000000E-03 0. -1.
</event>
<event>
 8    1  0.1078274E+005  0.1043930E+01  0.7957747E-01            NaN
         13   -1    0    0    0    0  0.00000000000E+00  0.00000000000E+00  0.74505805969E-08  0.10566000000E+00  0.10566000000E+00 0.  1.
     999900   -1    0    0    0    0 -0.00000000000E+00 -0.00000000000E+00 -0.74505805969E-08  0.93827000000E+00  0.93827000000E+00 0.  1.
     999902    2    1    2    0    0 -0.19067591030E-01 -0.30822186438E-01  0.94514546767E-02  0.10064745571E+01  0.10057773730E+01 0.  0.
     999903    2    3    3    0    0  0.13294996404E-01 -0.81484719992E-01 -0.84443795362E-01  0.11943997644E+00  0.17850402676E-01 0.  0.
         14    1    1    2    0    0  0.19067591030E-01  0.30822186438E-01 -0.94514546767E-02  0.37455442862E-01  0.00000000000E+00 0. -1.
     999901    1    3    3    0    0 -0.32362587434E-01  0.50662533554E-01  0.93895250039E-01  0.88703458070E+00  0.88000000000E+00 0. -1.
        -11    1    4    4    0    0  0.17006745861E-02 -0.17275150833E-01 -0.29062785776E-01  0.33856015247E-01  0.51100000000E-03 0. -1.
         11    1    4    4    0    0  0.11594321818E-01 -0.64209569158E-01 -0.55381009586E-01  0.85583961194E-01  0.51100000000E-03 0.  1.
</event>
<event>
 8    1  0.1078274E+005  0.1043930E+01  0.7957747E-01            NaN
         13   -1    0    0    0    0  0.00000000000E+00  0.00000000000E+00  0.74505805969E-08  0.10566000000E+00  0.10566000000E+00 0. -1.
     999900   -1    0    0    0    0 -0.00000000000E+00 -0.00000000000E+00 -0.74505805969E-08  0.93827000000E+00  0.93827000000E+00 0. -1.
     999902    2    1    2    0    0  0.11257296449E-02 -0.15715801341E-01  0.16714943249E-01  0.10209595188E+01  0.10207010806E+01 0.  0.
     999903    2    3    3    0    0  0.17189274777E-01 -0.75339887850E-01 -0.10342720872E+00  0.13065215285E+00  0.20030668319E-01 0.  0.
         14    1    1    2    0    0 -0.11257296449E-02  0.15715801341E-01 -0.16714943249E-01  0.22970481206E-01  0.00000000000E+00 0. -1.
     999901    1    3    3    0    0 -0.16063545132E-01  0.59624086509E-01  0.12014215196E+00  0.89030736594E+00  0.88000000000E+00 0.  1.
        -11    1    4    4    0    0  0.50788610161E-02 -0.50521813494E-01 -0.54663706995E-01  0.74609854922E-01  0.51100000000E-03 0. -1.
         11    1    4    4    0    0  0.12110413761E-01 -0.24818074356E-01 -0.48763501720E-01  0.56042297929E-01  0.51100000000E-03 0.  1.
</event>
<event>
 8    1  0.1078274E+005  0.1043930E+01  0.7957747E-01            NaN
         13   -1    0    0    0    0  0.00000000000E+00  0.00000000000E+00  0.74505805969E-08  0.10566000000E+00  0.10566000000E+00 0. -1.
     999900   -1    0    0    0    0 -0.00000000000E+00 -0.00000000000E+00 -0.74505805969E-08  0.93827000000E+00  0.93827000000E+00 0. -1.
     999902    2    1    2    0    0  0.21095337608E-02 -0.83325104207E-02  0.22036876546E-01  0.10202761464E+01  0.10200019167E+01 0.  0.
     999903    2    3    3    0    0 -0.77750842801E-01  0.97440654118E-01  0.32615869707E-01  0.13028875481E+00  0.19274076931E-01 0.  0.
         14    1    1    2    0    0 -0.21095337608E-02  0.83325104207E-02 -0.22036876546E-01  0.23653853608E-01  0.00000000000E+00 0.  1.
     999901    1    3    3    0    0  0.79860376562E-01 -0.10577316454E+00 -0.10578993161E-01  0.88998739158E+00  0.88000000000E+00 0. -1.
        -11    1    4    4    0    0 -0.73205898267E-01  0.86651471858E-01  0.24550101717E-01  0.11606269742E+00  0.51100000000E-03 0.  1.
         11    1    4    4    0    0 -0.45449445342E-02  0.10789182260E-01  0.80657679898E-02  0.14226057392E-01  0.51100000000E-03 0. -1.
</event>
<event>
 8    1  0.1078274E+005  0.1043930E+01  0.7957747E-01            NaN
         13   -1    0    0    0    0  0.00000000000E+00  0.00000000000E+00  0.74505805969E-08  0.10566000000E+00  0.10566000000E+00 0.  1.
     999900   -1    0    0    0    0 -0.00000000000E+00 -0.00000000000E+00 -0.74505805969E-08  0.93827000000E+00  0.93827000000E+00 0. -1.
     999902    2    1    2    0    0 -0.90049514097E-02  0.12006602812E-01  0.21910017083E-01  0.10173725809E+01  0.10170258954E+01 0.  0.
     999903    2    3    3    0    0  0.92713789196E-01 -0.67274343191E-01 -0.46066391376E-01  0.12537876775E+00  0.21818318637E-01 0.  0.
         14    1    1    2    0    0  0.90049514097E-02 -0.12006602812E-01 -0.21910017083E-01  0.26557419105E-01  0.00000000000E+00 0. -1.
     999901    1    3    3    0    0 -0.10171874061E+00  0.79280946003E-01  0.67976408458E-01  0.89199381315E+00  0.88000000000E+00 0. -1.
        -11    1    4    4    0    0  0.51805281387E-01 -0.33327375223E-01 -0.35755115602E-01  0.71226333133E-01  0.51100000000E-03 0. -1.
         11    1    4    4    0    0  0.40908507809E-01 -0.33946967968E-01 -0.10311275773E-01  0.54152434612E-01  0.51100000000E-03 0.  1.
</event>
<event>
 8    1  0.1078274E+005  0.1043930E+01  0.7957747E-01            NaN
         13   -1    0    0    0    0  0.00000000000E+00  0.00000000000E+00  0.74505805969E-08  0.10566000000E+00  0.10566000000E+00 0.  1.
     999900   -1    0    0    0    0 -0.00000000000E+00 -0.00000000000E+00 -0.74505805969E-08  0.93827000000E+00  0.93827000000E+00 0. -1.
     999902    2    1    2    0    0  0.74402394938E-02 -0.16543431381E-01  0.13419940491E-01  0.10213659337E+01  0.10211166600E+01 0.  0.
     999903    2    3    3    0    0  0.12123388725E+00 -0.50641689193E-01  0.10244261682E-01  0.13337845045E+00  0.20557967949E-01 0.  0.
         14    1    1    2    0    0 -0.74402394938E-02  0.16543431381E-01 -0.13419940491E-01  0.22564066308E-01  0.00000000000E+00 0.  1.
     999901    1    3    3    0    0 -0.11379364775E+00  0.34098257812E-01  0.31756788091E-02  0.88798748324E+00  0.88000000000E+00 0. -1.
        -11    1    4    4    0    0  0.18575247013E-01 -0.18908616019E-02 -0.31592084957E-02  0.18943518113E-01  0.51100000000E-03 0. -1.
         11    1    4    4    0    0  0.10265864023E+00 -0.48750827591E-01  0.13403470178E-01  0.11443493234E+00  0.51100000000E-03 0.  1.
</event>
<event>
 8    1  0.1078274E+005  0.1043930E+01  0.7957747E-01            NaN
         13   -1    0    0    0    0  0.00000000000E+00  0.00000000000E+00  0.74505805969E-08  0.10566000000E+00  0.10566000000E+00 0. -1.
     999900   -1    0    0    0    0 -0.00000000000E+00 -0.00000000000E+00 -0.74505805969E-08  0.93827000000E+00  0.93827000000E+00 0. -1.
     999902    2    1    2    0    0  0.21491797658E-01 -0.17168468296E-01  0.15655958898E-01  0.10122793646E+01  0.10117844382E+01 0.  0.
     999903    2    3    3    0    0  0.93402577922E-01  0.58358509272E-01  0.56147387317E-01  0.12519704577E+00  0.19799343436E-01 0.  0.
         14    1    1    2    0    0 -0.21491797658E-01  0.17168468296E-01 -0.15655958898E-01  0.31650635368E-01  0.00000000000E+00 0. -1.
     999901    1    3    3    0    0 -0.71910780264E-01 -0.75526977568E-01 -0.40491428420E-01  0.88708231886E+00  0.88000000000E+00 0.  1.
        -11    1    4    4    0    0  0.31094668705E-01  0.30783352950E-01  0.22460302696E-01  0.49185562505E-01  0.51100000000E-03 0.  1.
         11    1    4    4    0    0  0.62307909217E-01  0.27575156322E-01  0.33687084621E-01  0.76011483267E-01  0.51100000000E-03 0. -1.
</event>
<event>
 8    1  0.1078274E+005  0.1043930E+01  0.7957747E-01            NaN
         13   -1    0    0    0    0  0.00000000000E+00  0.00000000000E+00  0.74505805969E-08  0.10566000000E+00  0.10566000000E+00 0.  1.
     999900   -1    0    0    0    0 -0.00000000000E+00 -0.00000000000E+00 -0.74505805969E-08  0.93827000000E+00  0.93827000000E+00 0.  1.
     999902    2    1    2    0    0  0.17417706124E-01 -0.12594830277E-01  0.76959371971E-02  0.10210994572E+01  0.10208441937E+01 0.  0.
     999903    2    3    3    0    0 -0.45966456834E-01  0.49353185685E-01  0.11016088708E+00  0.13073201912E+00  0.20168978415E-01 0.  0.
         14    1    1    2    0    0 -0.17417706124E-01  0.12594830277E-01 -0.76959371971E-02  0.22830542824E-01  0.00000000000E+00 0. -1.
     999901    1    3    3    0    0  0.63384162957E-01 -0.61948015962E-01 -0.10246494988E+00  0.89036743806E+00  0.88000000000E+00 0.  1.
        -11    1    4    4    0    0 -0.45824798371E-01  0.44967045469E-01  0.92987862258E-01  0.11299978306E+00  0.51100000000E-03 0.  1.
         11    1    4    4    0    0 -0.14165846229E-03  0.43861402161E-02  0.17173024820E-01  0.17732236057E-01  0.51100000000E-03 0. -1.
</event>
<event>
 8    1  0.1078274E+005  0.1043930E+01  0.7957747E-01            NaN
         13   -1    0    0    0    0  0.00000000000E+00  0.00000000000E+00  0.74505805969E-08  0.10566000000E+00  0.10566000000E+00 0. -1.
     999900   -1    0    0    0    0 -0.00000000000E+00 -0.00000000000E+00 -0.74505805969E-08  0.93827000000E+00  0.93827000000E+00 0. -1.
     999902    2    1    2    0    0  0.12746064289E-01 -0.20629379153E-01  0.68618581321E-02  0.10187284418E+01  0.10184166729E+01 0.  0.
     999903    2    3    3    0    0  0.12342012353E+00  0.33000718212E-01  0.15146751962E-01  0.13013766185E+00  0.19616641933E-01 0.  0.
         14    1    1    2    0    0 -0.12746064289E-01  0.20629379153E-01 -0.68618581321E-02  0.25201558208E-01  0.00000000000E+00 0. -1.
     999901    1    3    3    0    0 -0.11067405925E+00 -0.53630097365E-01 -0.82848938298E-02  0.88859077994E+00  0.88000000000E+00 0. -1.
        -11    1    4    4    0    0  0.54229747284E-01  0.22334846015E-01  0.71223563746E-03  0.58655598519E-01  0.51100000000E-03 0. -1.
         11    1    4    4    0    0  0.69190376250E-01  0.10665872197E-01  0.14434516325E-01  0.71482063330E-01  0.51100000000E-03 0.  1.
</event>
<event>
 8    1  0.1078274E+005  0.1043930E+01  0.7957747E-01            NaN
         13   -1    0    0    0    0  0.00000000000E+00  0.00000000000E+00  0.74505805969E-08  0.10566000000E+00  0.10566000000E+00 0. -1.
     999900   -1    0    0    0    0 -0.00000000000E+00 -0.00000000000E+00 -0.74505805969E-08  0.93827000000E+00  0.93827000000E+00 0. -1.
     999902    2    1    2    0    0 -0.14334080591E-01 -0.17362147790E-01  0.60024302473E-02  0.10206289440E+01  0.10203629267E+01 0.  0.
     999903    2    3    3    0    0 -0.11238508143E+00  0.55116323451E-01 -0.34296698603E-01  0.13130833400E+00  0.19934879104E-01 0.  0.
         14    1    1    2    0    0  0.14334080591E-01  0.17362147790E-01 -0.60024302473E-02  0.23301056009E-01  0.00000000000E+00 0. -1.
     999901    1    3    3    0    0  0.98051000841E-01 -0.72478471242E-01  0.40299128850E-01  0.88932060999E+00  0.88000000000E+00 0.  1.
        -11    1    4    4    0    0 -0.22220351872E-01  0.41763598485E-02 -0.11050642904E-01  0.25170694239E-01  0.51100000000E-03 0.  1.
         11    1    4    4    0    0 -0.90164729560E-01  0.50939963603E-01 -0.23246055699E-01  0.10613763977E+00  0.51100000000E-03 0. -1.
</event>
<event>
 8    1  0.1078274E+005  0.1043930E+01  0.7957747E-01            NaN
         13   -1    0    0    0    0  0.00000000000E+00  0.00000000000E+00  0.74505805969E-08  0.10566000000E+00  0.10566000000E+00 0. -1.
     999900   -1    0    0    0    0 -0.00000000000E+00 -0.00000000000E+00 -0.74505805969E-08  0.93827000000E+00  0.93827000000E+00 0.  1.
     999902    2    1    2    0    0  0.10240986990E-01  0.16982755293E-01 -0.12523883518E-01  0.10204749483E+01  0.10202053620E+01 0.  0.
     999903    2    3    3    0    0  0.10227522397E+00 -0.74061193645E-01  0.25024545724E-01  0.13021139971E+00  0.19583127528E-01 0.  0.
         14    1    1    2    0    0 -0.10240986990E-01 -0.16982755293E-01  0.12523883518E-01  0.23455051700E-01  0.00000000000E+00 0. -1.
     999901    1    3    3    0    0 -0.92034236975E-01  0.91043948938E-01 -0.37548429242E-01  0.89026354859E+00  0.88000000000E+00 0.  1.
        -11    1    4    4    0    0  0.25609090957E-01 -0.22618206313E-01 -0.13275668114E-02  0.34196964062E-01  0.51100000000E-03 0. -1.
         11    1    4    4    0    0  0.76666133009E-01 -0.51442987332E-01  0.26352112535E-01  0.96014435645E-01  0.51100000000E-03 0.  1.
</event>
<event>
 8    1  0.1078274E+005  0.1043930E+01  0.7957747E-01            NaN
         13   -1    0    0    0    0  0.00000000000E+00  0.00000000000E+00  0.74505805969E-08  0.10566000000E+00  0.10566000000E+00 0.  1.
     999900   -1    0    0    0    0 -0.00000000000E+00 -0.00000000000E+00 -0.74505805969E-08  0.93827000000E+00  0.93827000000E+00 0.  1.
     999902    2    1    2    0    0 -0.64379266699E-04  0.23060483528E-01  0.43352632808E-03  0.10208653519E+01  0.10206047662E+01 0.  0.
     999903    2    3    3    0    0 -0.77354210104E-01 -0.47874279473E-01  0.90787551481E-01  0.13004028021E+00  0.19810969628E-01 0.  0.
         14    1    1    2    0    0  0.64379266699E-04 -0.23060483528E-01 -0.43352632808E-03  0.23064648064E-01  0.00000000000E+00 0. -1.
     999901    1    3    3    0    0  0.77289830837E-01  0.70934763001E-01 -0.90354025153E-01  0.89082507173E+00  0.88000000000E+00 0.  1.
        -11    1    4    4    0    0 -0.28487289885E-01 -0.91280124422E-02  0.21649986765E-01  0.36930060169E-01  0.51100000000E-03 0. -1.
         11    1    4    4    0    0 -0.48866920219E-01 -0.38746267031E-01  0.69137564715E-01  0.93110220042E-01  0.51100000000E-03 0.  1.
</event>
<event>
 8    1  0.1078274E+005  0.1043930E+01  0.7957747E-01            NaN
         13   -1    0    0    0    0  0.00000000000E+00  0.00000000000E+00  0.74505805969E-08  0.10566000000E+00  0.10566000000E+00 0.  1.
     999900   -1    0    0    0    0 -0.00000000000E+00 -0.00000000000E+00 -0.74505805969E-08  0.93827000000E+00  0.93827000000E+00 0.  1.
     999902    2    1    2    0    0  0.78578177338E-02  0.25461497792E-02  0.21856323041E-01  0.10205649185E+01  0.10202974202E+01 0.  0.
     999903    2    3    3    0    0  0.41895340862E-01 -0.10818859708E+00  0.59771828211E-01  0.13216280080E+00  0.20840881516E-01 0.  0.
         14    1    1    2    0    0 -0.78578177338E-02 -0.25461497792E-02 -0.21856323041E-01  0.23365081534E-01  0.00000000000E+00 0. -1.
     999901    1    3    3    0    0 -0.34037523128E-01  0.11073474686E+00 -0.37915505170E-01  0.88840211767E+00  0.88000000000E+00 0.  1.
        -11    1    4    4    0    0  0.59544528817E-02 -0.12775929154E-01  0.26070591247E-03  0.14107053677E-01  0.51100000000E-03 0.  1.
         11    1    4    4    0    0  0.35940887980E-01 -0.95412667930E-01  0.59511122298E-01  0.11805574712E+00  0.51100000000E-03 0. -1.
</event>
<event>
 8    1  0.1078274E+005  0.1043930E+01  0.7957747E-01            NaN
         13   -1    0    0    0    0  0.00000000000E+00  0.00000000000E+00  0.74505805969E-08  0.10566000000E+00  0.10566000000E+00 0. -1.
     999900   -1    0    0    0    0 -0.00000000000E+00 -0.00000000000E+00 -0.74505805969E-08  0.93827000000E+00  0.93827000000E+00 0.  1.
     999902    2    1    2    0    0 -0.14043777066E-02 -0.17953788187E-01  0.15844370462E-01  0.10199434441E+01  0.10196613528E+01 0.  0.
     999903    2    3    3    0    0 -0.35284278596E-02 -0.10877627028E+00 -0.70368570916E-01  0.13107567776E+00  0.19605375497E-01 0.  0.
         14    1    1    2    0    0  0.14043777066E-02  0.17953788187E-01 -0.15844370462E-01  0.23986555867E-01  0.00000000000E+00 0.  1.
     999901    1    3    3    0    0  0.21240501530E-02  0.90822482088E-01  0.86212941378E-01  0.88886776638E+00  0.88000000000E+00 0. -1.
        -11    1    4    4    0    0 -0.83622139153E-02 -0.24949945745E-01 -0.21003383816E-01  0.33672387307E-01  0.51100000000E-03 0. -1.
         11    1    4    4    0    0  0.48337860557E-02 -0.83826324531E-01 -0.49365187100E-01  0.97403290449E-01  0.51100000000E-03 0.  1.
</event>
<event>
 8    1  0.1078274E+005  0.1043930E+01  0.7957747E-01            NaN
         13   -1    0    0    0    0  0.00000000000E+00  0.00000000000E+00  0.74505805969E-08  0.10566000000E+00  0.10566000000E+00 0. -1.
     999900   -1    0    0    0    0 -0.00000000000E+00 -0.00000000000E+00 -0.74505805969E-08  0.93827000000E+00  0.93827000000E+00 0.  1.
     999902    2    1    2    0    0 -0.94624667554E-02  0.22008312542E-01  0.61078141183E-02  0.10192073486E+01  0.10189074590E+01 0.  0.
     999903    2    3    3    0    0  0.84754185068E-01 -0.78017577212E-01  0.50422491182E-01  0.12744182635E+00  0.20711765884E-01 0.  0.
         14    1    1    2    0    0  0.94624667554E-02 -0.22008312542E-01 -0.61078141183E-02  0.24722651382E-01  0.00000000000E+00 0.  1.
     999901    1    3    3    0    0 -0.94216651823E-01  0.10002588975E+00 -0.44314677064E-01  0.89176552227E+00  0.88000000000E+00 0. -1.
        -11    1    4    4    0    0  0.86612164731E-02 -0.14695727293E-01  0.13592791342E-01  0.21817565605E-01  0.51100000000E-03 0. -1.
         11    1    4    4    0    0  0.76092968595E-01 -0.63321849919E-01  0.36829699840E-01  0.10562426075E+00  0.51100000000E-03 0.  1.
</event>
<event>
 8    1  0.1078274E+005  0.1043930E+01  0.7957747E-01            NaN
         13   -1    0    0    0    0  0.00000000000E+00  0.00000000000E+00  0.74505805969E-08  0.10566000000E+00  0.10566000000E+00 0. -1.
     999900   -1    0    0    0    0 -0.00000000000E+00 -0.00000000000E+00 -0.74505805969E-08  0.93827000000E+00  0.93827000000E+00 0.  1.
     999902    2    1    2    0    0  0.19511358903E-01 -0.14102254565E-01 -0.46576915856E-02  0.10194093801E+01  0.10191144310E+01 0.  0.
     999903    2    3    3    0    0  0.23880613179E-01  0.62804763737E-02  0.12467962931E+00  0.12971129159E+00  0.25889788170E-01 0.  0.
         14    1    1    2    0    0 -0.19511358903E-01  0.14102254565E-01  0.46576915856E-02  0.24520619914E-01  0.00000000000E+00 0.  1.
     999901    1    3    3    0    0 -0.43692542763E-02 -0.20382730939E-01 -0.12933732089E+00  0.88969808850E+00  0.88000000000E+00 0.  1.
        -11    1    4    4    0    0  0.27258622870E-01  0.90708893462E-02  0.83689748336E-01  0.88484736830E-01  0.51100000000E-03 0. -1.
         11    1    4    4    0    0 -0.33780096913E-02 -0.27904129725E-02  0.40989880972E-01  0.41226554757E-01  0.51100000000E-03 0.  1.
</event>
<event>
 8    1  0.1078274E+005  0.1043930E+01  0.7957747E-01            NaN
         13   -1    0    0    0    0  0.00000000000E+00  0.00000000000E+00  0.74505805969E-08  0.10566000000E+00  0.10566000000E+00 0.  1.
     999900   -1    0    0    0    0 -0.00000000000E+00 -0.00000000000E+00 -0.74505805969E-08  0.93827000000E+00  0.93827000000E+00 0. -1.
     999902    2    1    2    0    0 -0.18636973425E-01 -0.14201856800E-01  0.69303688682E-03  0.10204883743E+01  0.10202191001E+01 0.  0.
     999903    2    3    3    0    0 -0.10693355471E+00  0.48499419521E-01 -0.56956379078E-01  0.13197771512E+00  0.19675094778E-01 0.  0.
         14    1    1    2    0    0  0.18636973425E-01  0.14201856800E-01 -0.69303688682E-03  0.23441625693E-01  0.00000000000E+00 0. -1.
     999901    1    3    3    0    0  0.88296581288E-01 -0.62701276321E-01  0.57649415964E-01  0.88851065918E+00  0.88000000000E+00 0.  1.
        -11    1    4    4    0    0 -0.56317521817E-01  0.19265608378E-01 -0.19875288854E-01  0.62754403493E-01  0.51100000000E-03 0. -1.
         11    1    4    4    0    0 -0.50616032896E-01  0.29233811144E-01 -0.37081090223E-01  0.69223311632E-01  0.51100000000E-03 0.  1.
</event>
<event>
 8    1  0.1078274E+005  0.1043930E+01  0.7957747E-01            NaN
         13   -1    0    0    0    0  0.00000000000E+00  0.00000000000E+00  0.74505805969E-08  0.10566000000E+00  0.10566000000E+00 0.  1.
     999900   -1    0    0    0    0 -0.00000000000E+00 -0.00000000000E+00 -0.74505805969E-08  0.93827000000E+00  0.93827000000E+00 0. -1.
     999902    2    1    2    0    0  0.23292627499E-01 -0.16241632195E-02  0.25905606609E-02  0.10204375458E+01  0.10201670890E+01 0.  0.
     999903    2    3    3    0    0  0.85907412384E-01 -0.59320021871E-01 -0.79366067441E-01  0.13253760078E+00  0.19190999522E-01 0.  0.
         14    1    1    2    0    0 -0.23292627499E-01  0.16241632195E-02 -0.25905606609E-02  0.23492454246E-01  0.00000000000E+00 0.  1.
     999901    1    3    3    0    0 -0.62614784885E-01  0.57695858651E-01  0.81956628102E-01  0.88789994497E+00  0.88000000000E+00 0.  1.
        -11    1    4    4    0    0  0.46538573833E-01 -0.21368611413E-01 -0.33848792264E-01  0.61387769685E-01  0.51100000000E-03 0.  1.
         11    1    4    4    0    0  0.39368838551E-01 -0.37951410458E-01 -0.45517275177E-01  0.71149831097E-01  0.51100000000E-03 0. -1.
</event>
<event>
 8    1  0.1078274E+005  0.1043930E+01  0.7957747E-01            NaN
         13   -1    0    0    0    0  0.00000000000E+00  0.00000000000E+00  0.74505805969E-08  0.10566000000E+00  0.10566000000E+00 0.  1.
     999900   -1    0    0    0    0 -0.00000000000E+00 -0.00000000000E+00 -0.74505805969E-08  0.93827000000E+00  0.93827000000E+00 0.  1.
     999902    2    1    2    0    0  0.21429676073E-01 -0.49691565859E-02  0.79172948723E-02  0.10205503702E+01  0.10202825349E+01 0.  0.
     999903    2    3    3    0    0  0.73224898948E-01  0.10299217054E+00 -0.31005469404E-01  0.13158840536E+00  0.19618773483E-01 0.  0.
         14    1    1    2    0    0 -0.21429676073E-01  0.49691565859E-02 -0.79172948723E-02  0.23379629848E-01  0.00000000000E+00 0. -1.
     999901    1    3    3    0    0 -0.51795222876E-01 -0.10796132713E+00  0.38922764276E-01  0.88896196479E+00  0.88000000000E+00 0.  1.
        -11    1    4    4    0    0  0.36860066063E-01  0.65542144436E-01 -0.23897030636E-01  0.78903525661E-01  0.51100000000E-03 0.  1.
         11    1    4    4    0    0  0.36364832885E-01  0.37450026107E-01 -0.71084387685E-02  0.52684879699E-01  0.51100000000E-03 0. -1.
</event>
<event>
 8    1  0.1112973E+005  0.1043930E+01  0.7957747E-01            NaN
         13   -1    0    0    0    0  0.00000000000E+00  0.00000000000E+00  0.74505805969E-08  0.10566000000E+00  0.10566000000E+00 0. -1.
     999900   -1    0    0    0    0 -0.00000000000E+00 -0.00000000000E+00 -0.74505805969E-08  0.93827000000E+00  0.93827000000E+00 0.  1.
     999902    2    1    2    0    0 -0.17484282861E-01  0.38927549249E-02  0.10499997688E-01  0.10231669646E+01  0.10229562717E+01 0.  0.
     999903    2    3    3    0    0 -0.40919078287E-01 -0.80773358376E-01  0.96633819593E-01  0.13460825766E+00  0.24136726174E-01 0.  0.
         14    1    1    2    0    0  0.17484282861E-01 -0.38927549249E-02 -0.10499997688E-01  0.20763035412E-01  0.00000000000E+00 0.  1.
     999901    1    3    3    0    0  0.23434795426E-01  0.84666113301E-01 -0.86133821904E-01  0.88855870693E+00  0.88000000000E+00 0.  1.
        -11    1    4    4    0    0 -0.35799384176E-01 -0.65808872541E-01  0.64782437857E-01  0.99042561499E-01  0.51100000000E-03 0. -1.
         11    1    4    4    0    0 -0.51196941116E-02 -0.14964485835E-01  0.31851381735E-01  0.35565696163E-01  0.51100000000E-03 0.  1.
</event>
<event>
 8    1  0.1078274E+005  0.1043930E+01  0.7957747E-01            NaN
         13   -1    0    0    0    0  0.00000000000E+00  0.00000000000E+00  0.74505805969E-08  0.10566000000E+00  0.10566000000E+00 0. -1.
     999900   -1    0    0    0    0 -0.00000000000E+00 -0.00000000000E+00 -0.74505805969E-08  0.93827000000E+00  0.93827000000E+00 0.  1.
     999902    2    1    2    0    0  0.18291080079E-01 -0.52739549375E-02 -0.16289372640E-01  0.10188756217E+01  0.10185675287E+01 0.  0.
     999903    2    3    3    0    0 -0.14942698959E-01 -0.85904456729E-02  0.12456291298E+00  0.12704892915E+00  0.18122668089E-01 0.  0.
         14    1    1    2    0    0 -0.18291080079E-01  0.52739549375E-02  0.16289372640E-01  0.25054378303E-01  0.00000000000E+00 0. -1.
     999901    1    3    3    0    0  0.33233779038E-01  0.33164907354E-02 -0.14085228562E+00  0.89182669255E+00  0.88000000000E+00 0.  1.
        -11    1    4    4    0    0  0.37234031743E-02  0.22899808478E-03  0.11079116036E-01  0.11701457365E-01  0.51100000000E-03 0. -1.
         11    1    4    4    0    0 -0.18666102133E-01 -0.88194437577E-02  0.11348379694E+00  0.11534747178E+00  0.51100000000E-03 0.  1.
</event>
<event>
 8    1  0.1078274E+005  0.1043930E+01  0.7957747E-01            NaN
         13   -1    0    0    0    0  0.00000000000E+00  0.00000000000E+00  0.74505805969E-08  0.10566000000E+00  0.10566000000E+00 0. -1.
     999900   -1    0    0    0    0 -0.00000000000E+00 -0.00000000000E+00 -0.74505805969E-08  0.93827000000E+00  0.93827000000E+00 0. -1.
     999902    2    1    2    0    0  0.78534156596E-02  0.11258566317E-01  0.19513562465E-01  0.10200718657E+01  0.10197928224E+01 0.  0.
     999903    2    3    3    0    0 -0.75127807748E-01  0.32337581586E-01 -0.96743933427E-01  0.12830619373E+00  0.20326928305E-01 0.  0.
         14    1    1    2    0    0 -0.78534156596E-02 -0.11258566317E-01 -0.19513562465E-01  0.23858134318E-01  0.00000000000E+00 0. -1.
     999901    1    3    3    0    0  0.82981223408E-01 -0.21079015268E-01  0.11625749589E+00  0.89176567195E+00  0.88000000000E+00 0.  1.
        -11    1    4    4    0    0 -0.26658591205E-01  0.22334413868E-01 -0.40602547229E-01  0.53463393928E-01  0.51100000000E-03 0.  1.
         11    1    4    4    0    0 -0.48469216543E-01  0.10003167718E-01 -0.56141386199E-01  0.74842799801E-01  0.51100000000E-03 0. -1.
</event>
<event>
 8    1  0.1078274E+005  0.1043930E+01  0.7957747E-01            NaN
         13   -1    0    0    0    0  0.00000000000E+00  0.00000000000E+00  0.74505805969E-08  0.10566000000E+00  0.10566000000E+00 0.  1.
     999900   -1    0    0    0    0 -0.00000000000E+00 -0.00000000000E+00 -0.74505805969E-08  0.93827000000E+00  0.93827000000E+00 0.  1.
     999902    2    1    2    0    0  0.21288002000E-02  0.13094404602E-01 -0.19949647697E-01  0.10199720438E+01  0.10196906327E+01 0.  0.
     999903    2    3    3    0    0 -0.63966288041E-02  0.12162757686E+00 -0.49164028046E-01  0.13278231638E+00  0.19489935218E-01 0.  0.
         14    1    1    2    0    0 -0.21288002000E-02 -0.13094404602E-01  0.19949647697E-01  0.23957956202E-01  0.00000000000E+00 0.  1.
     999901    1    3    3    0    0  0.85254290040E-02 -0.10853317226E+00  0.29214380350E-01  0.88718972742E+00  0.88000000000E+00 0. -1.
        -11    1    4    4    0    0 -0.75087679180E-02  0.15824513760E-01 -0.63418115951E-02  0.18635356897E-01  0.51100000000E-03 0. -1.
         11    1    4    4    0    0  0.11121391139E-02  0.10580306310E+00 -0.42822216451E-01  0.11414695948E+00  0.51100000000E-03 0.  1.
</event>
<event>
 8    1  0.1078274E+005  0.1043930E+01  0.7957747E-01            NaN
         13   -1    0    0    0    0  0.00000000000E+00  0.00000000000E+00  0.74505805969E-08  0.10566000000E+00  0.10566000000E+00 0.  1.
     999900   -1    0    0    0    0 -0.00000000000E+00 -0.00000000000E+00 -0.74505805969E-08  0.93827000000E+00  0.93827000000E+00 0.  1.
     999902    2    1    2    0    0 -0.41144951074E-02 -0.22259901488E-01 -0.70914247924E-02  0.10202082676E+01  0.10199324432E+01 0.  0.
     999903    2    3    3    0    0 -0.35991799686E-01  0.81390781352E-01 -0.91743759820E-01  0.12951996943E+00  0.20943640607E-01 0.  0.
         14    1    1    2    0    0  0.41144951074E-02  0.22259901488E-01  0.70914247924E-02  0.23721732438E-01  0.00000000000E+00 0.  1.
     999901    1    3    3    0    0  0.31877304578E-01 -0.10365068284E+00  0.84652335028E-01  0.89068829813E+00  0.88000000000E+00 0. -1.
        -11    1    4    4    0    0 -0.17846882235E-01  0.48640304691E-01 -0.66751697731E-01  0.84501128495E-01  0.51100000000E-03 0. -1.
         11    1    4    4    0    0 -0.18144917450E-01  0.32750476661E-01 -0.24992062090E-01  0.45018840937E-01  0.51100000000E-03 0.  1.
</event>
<event>
 8    1  0.1078274E+005  0.1043930E+01  0.7957747E-01            NaN
         13   -1    0    0    0    0  0.00000000000E+00  0.00000000000E+00  0.74505805969E-08  0.10566000000E+00  0.10566000000E+00 0. -1.
     999900   -1    0    0    0    0 -0.00000000000E+00 -0.00000000000E+00 -0.74505805969E-08  0.93827000000E+00  0.93827000000E+00 0. -1.
     999902    2    1    2    0    0  0.45671452163E-02  0.18140352474E-01 -0.26866593314E-01  0.10111924827E+01  0.10106624026E+01 0.  0.
     999903    2    3    3    0    0  0.84717774835E-01 -0.31680625885E-01 -0.83041968943E-01  0.12436559646E+00  0.19750178417E-01 0.  0.
         14    1    1    2    0    0 -0.45671452163E-02 -0.18140352474E-01  0.26866593314E-01  0.32737517310E-01  0.00000000000E+00 0. -1.
     999901    1    3    3    0    0 -0.80150629619E-01  0.49820978359E-01  0.56175375629E-01  0.88682688623E+00  0.88000000000E+00 0. -1.
        -11    1    4    4    0    0  0.23069160592E-01 -0.75480289232E-02 -0.34870037614E-01  0.42489287535E-01  0.51100000000E-03 0.  1.
         11    1    4    4    0    0  0.61648614243E-01 -0.24132596962E-01 -0.48171931329E-01  0.81876308925E-01  0.51100000000E-03 0. -1.
</event>
<event>
 8    1  0.1078274E+005  0.1043930E+01  0.7957747E-01            NaN
         13   -1    0    0    0    0  0.00000000000E+00  0.00000000000E+00  0.74505805969E-08  0.10566000000E+00  0.10566000000E+00 0.  1.
     999900   -1    0    0    0    0 -0.00000000000E+00 -0.00000000000E+00 -0.74505805969E-08  0.93827000000E+00  0.93827000000E+00 0.  1.
     999902    2    1    2    0    0 -0.25560464628E-02  0.14161328207E-01 -0.25816760160E-01  0.10143735845E+01  0.10139428915E+01 0.  0.
     999903    2    3    3    0    0  0.53620569911E-01 -0.18289470748E-01  0.10629130041E+00  0.12215085099E+00  0.20330263087E-01 0.  0.
         14    1    1    2    0    0  0.25560464628E-02 -0.14161328207E-01  0.25816760160E-01  0.29556415468E-01  0.00000000000E+00 0.  1.
     999901    1    3    3    0    0 -0.56176616373E-01  0.32450798956E-01 -0.13210806057E+00  0.89222273354E+00  0.88000000000E+00 0.  1.
        -11    1    4    4    0    0  0.41565337994E-01 -0.18790416190E-01  0.67078372833E-01  0.81120443084E-01  0.51100000000E-03 0. -1.
         11    1    4    4    0    0  0.12055231916E-01  0.50094544135E-03  0.39212927577E-01  0.41030407908E-01  0.51100000000E-03 0.  1.
</event>
<event>
 8    1  0.1078274E+005  0.1043930E+01  0.7957747E-01            NaN
         13   -1    0    0    0    0  0.00000000000E+00  0.00000000000E+00  0.74505805969E-08  0.10566000000E+00  0.10566000000E+00 0.  1.
     999900   -1    0    0    0    0 -0.00000000000E+00 -0.00000000000E+00 -0.74505805969E-08  0.93827000000E+00  0.93827000000E+00 0. -1.
     999902    2    1    2    0    0 -0.97814332917E-02  0.17081541117E-01  0.13287544966E-01  0.10201810140E+01  0.10199045480E+01 0.  0.
     999903    2    3    3    0    0 -0.11047184829E+00  0.64354733241E-01 -0.26927199918E-01  0.13226742584E+00  0.20592155961E-01 0.  0.
         14    1    1    2    0    0  0.97814332917E-02 -0.17081541117E-01 -0.13287544966E-01  0.23748985987E-01  0.00000000000E+00 0. -1.
     999901    1    3    3    0    0  0.10069041500E+00 -0.47273192124E-01  0.40214744883E-01  0.88791358818E+00  0.88000000000E+00 0.  1.
        -11    1    4    4    0    0 -0.21177903388E-01  0.22206383659E-01 -0.46172646240E-02  0.31035581527E-01  0.51100000000E-03 0.  1.
         11    1    4    4    0    0 -0.89293944900E-01  0.42148349582E-01 -0.22309935294E-01  0.10123184431E+00  0.51100000000E-03 0. -1.
</event>
<event>
 7    1  0.1078274E+005  0.1043930E+01  0.7957747E-01            NaN
         13   -1    0    0    0    0  0.00000000000E+00  0.00000000000E+00  0.74505805969E-08  0.10566000000E+00  0.10566000000E+00 0.  1.
     999900   -1    0    0    0    0 -0.00000000000E+00 -0.00000000000E+00 -0.74505805969E-08  0.93827000000E+00  0.93827000000E+00 0.  1.
     999903    2    1    2    0    0 -0.61880363623E-01 -0.47443679326E-01 -0.53325592179E-01  0.96649226959E-01  0.20429688704E-01 0.  0.
         14    1    1    2    0    0  0.52136492120E-01 -0.30392483855E-01  0.18441012632E-01  0.63102993847E-01  0.00000000000E+00 0.  1.
     999901    1    1    2    0    0  0.97438715028E-02  0.77836163181E-01  0.34884579546E-01  0.88417777919E+00  0.88000000000E+00 0. -1.
        -11    1    3    3    0    0 -0.48844317447E-01 -0.36309004935E-01 -0.50869399546E-01  0.79322557431E-01  0.51100000000E-03 0.  1.
         11    1    3    3    0    0 -0.13036046176E-01 -0.11134674391E-01 -0.24561926324E-02  0.17326669528E-01  0.51100000000E-03 0. -1.
</event>
<event>
 8    1  0.1078274E+005  0.1043930E+01  0.7957747E-01            NaN
         13   -1    0    0    0    0  0.00000000000E+00  0.00000000000E+00  0.74505805969E-08  0.10566000000E+00  0.10566000000E+00 0.  1.
     999900   -1    0    0    0    0 -0.00000000000E+00 -0.00000000000E+00 -0.74505805969E-08  0.93827000000E+00  0.93827000000E+00 0. -1.
     999902    2    1    2    0    0 -0.22439026388E-01  0.68866564405E-02  0.52071449698E-02  0.10198873233E+01  0.10196038947E+01 0.  0.
     999903    2    3    3    0    0  0.15222196696E-01  0.68973876043E-01 -0.10707810040E+00  0.12978555001E+00  0.19734704373E-01 0.  0.
         14    1    1    2    0    0  0.22439026388E-01 -0.68866564405E-02 -0.52071449698E-02  0.24042676658E-01  0.00000000000E+00 0.  1.
     999901    1    3    3    0    0 -0.37661223083E-01 -0.62087219603E-01  0.11228524537E+00  0.89010177333E+00  0.88000000000E+00 0.  1.
        -11    1    4    4    0    0  0.92338697833E-02  0.35872494817E-01 -0.73203788945E-01  0.82043622984E-01  0.51100000000E-03 0. -1.
         11    1    4    4    0    0  0.59883269125E-02  0.33101381226E-01 -0.33874311458E-01  0.47741927025E-01  0.51100000000E-03 0.  1.
</event>
<event>
 8    1  0.1078274E+005  0.1043930E+01  0.7957747E-01            NaN
         13   -1    0    0    0    0  0.00000000000E+00  0.00000000000E+00  0.74505805969E-08  0.10566000000E+00  0.10566000000E+00 0.  1.
     999900   -1    0    0    0    0 -0.00000000000E+00 -0.00000000000E+00 -0.74505805969E-08  0.93827000000E+00  0.93827000000E+00 0. -1.
     999902    2    1    2    0    0  0.13944555940E-01  0.10641620163E-01 -0.16801011247E-01  0.10196407287E+01  0.10193513854E+01 0.  0.
     999903    2    3    3    0    0 -0.44514287892E-02 -0.11897285539E+00  0.42817227683E-01  0.12796104468E+00  0.19140491958E-01 0.  0.
         14    1    1    2    0    0 -0.13944555940E-01 -0.10641620163E-01  0.16801011247E-01  0.24289271273E-01  0.00000000000E+00 0.  1.
     999901    1    3    3    0    0  0.18395984729E-01  0.12961447555E+00 -0.59618238930E-01  0.89167968405E+00  0.88000000000E+00 0. -1.
        -11    1    4    4    0    0 -0.11646332513E-01 -0.65026798643E-01  0.20942199577E-01  0.69303379765E-01  0.51100000000E-03 0. -1.
         11    1    4    4    0    0  0.71949037236E-02 -0.53946056744E-01  0.21875028107E-01  0.58657664917E-01  0.51100000000E-03 0.  1.
</event>
<event>
 8    1  0.1078274E+005  0.1043930E+01  0.7957747E-01            NaN
         13   -1    0    0    0    0  0.00000000000E+00  0.00000000000E+00  0.74505805969E-08  0.10566000000E+00  0.10566000000E+00 0.  1.
     999900   -1    0    0    0    0 -0.00000000000E+00 -0.00000000000E+00 -0.74505805969E-08  0.93827000000E+00  0.93827000000E+00 0.  1.
     999902    2    1    2    0    0 -0.17194796487E-01  0.74721432494E-02 -0.17267055769E-01  0.10184418623E+01  0.10181228716E+01 0.  0.
     999903    2    3    3    0    0 -0.40454971229E-01 -0.12062509140E-01 -0.12290133839E+00  0.13160408676E+00  0.20803553770E-01 0.  0.
         14    1    1    2    0    0  0.17194796487E-01 -0.74721432494E-02  0.17267055769E-01  0.25488137748E-01  0.00000000000E+00 0.  1.
     999901    1    3    3    0    0  0.23260174742E-01  0.19534652389E-01  0.10563428262E+00  0.88683777549E+00  0.88000000000E+00 0. -1.
        -11    1    4    4    0    0 -0.13495504358E-01 -0.85665220192E-02 -0.22624665884E-01  0.27706507624E-01  0.51100000000E-03 0.  1.
         11    1    4    4    0    0 -0.26959466871E-01 -0.34959871207E-02 -0.10027667251E+00  0.10389757914E+00  0.51100000000E-03 0. -1.
</event>
<event>
 8    1  0.1078274E+005  0.1043930E+01  0.7957747E-01            NaN
         13   -1    0    0    0    0  0.00000000000E+00  0.00000000000E+00  0.74505805969E-08  0.10566000000E+00  0.10566000000E+00 0. -1.
     999900   -1    0    0    0    0 -0.00000000000E+00 -0.00000000000E+00 -0.74505805969E-08  0.93827000000E+00  0.93827000000E+00 0. -1.
     999902    2    1    2    0    0  0.11106966258E-01  0.20838344742E-01 -0.63502780060E-02  0.10194774471E+01  0.10191841531E+01 0.  0.
     999903    2    3    3    0    0 -0.28510337805E-01  0.80986286356E-01 -0.98053572524E-01  0.13178560877E+00  0.19527561437E-01 0.  0.
         14    1    1    2    0    0 -0.11106966258E-01 -0.20838344742E-01  0.63502780060E-02  0.24452552869E-01  0.00000000000E+00 0. -1.
     999901    1    3    3    0    0  0.39617304062E-01 -0.60147941613E-01  0.91703294518E-01  0.88769183836E+00  0.88000000000E+00 0.  1.
        -11    1    4    4    0    0 -0.31663624406E-02  0.92945927867E-02 -0.22672929164E-01  0.24713116842E-01  0.51100000000E-03 0. -1.
         11    1    4    4    0    0 -0.25343975364E-01  0.71691693569E-01 -0.75380643360E-01  0.10707249193E+00  0.51100000000E-03 0.  1.
</event>
<event>
 8    1  0.1078274E+005  0.1043930E+01  0.7957747E-01            NaN
         13   -1    0    0    0    0  0.00000000000E+00  0.00000000000E+00  0.74505805969E-08  0.10566000000E+00  0.10566000000E+00 0.  1.
     999900   -1    0    0    0    0 -0.00000000000E+00 -0.00000000000E+00 -0.74505805969E-08  0.93827000000E+00  0.93827000000E+00 0.  1.
     999902    2    1    2    0    0  0.12659313238E-01 -0.14698879678E-01  0.14095293902E-01  0.10199509970E+01  0.10196690854E+01 0.  0.
     999903    2    3    3    0    0 -0.57290806868E-01  0.47718339007E-01  0.10501638602E+00  0.13031310802E+00  0.19844101369E-01 0.  0.
         14    1    1    2    0    0 -0.12659313238E-01  0.14698879678E-01 -0.14095293902E-01  0.23979003016E-01  0.00000000000E+00 0.  1.
     999901    1    3    3    0    0  0.69950120106E-01 -0.62417218685E-01 -0.90921092120E-01  0.88963788897E+00  0.88000000000E+00 0.  1.
        -11    1    4    4    0    0 -0.38988541242E-01  0.28382033393E-01  0.81924611000E-01  0.95066025352E-01  0.51100000000E-03 0. -1.
         11    1    4    4    0    0 -0.18302265626E-01  0.19336305614E-01  0.23091775022E-01  0.35247082666E-01  0.51100000000E-03 0.  1.
</event>
<event>
 8    1  0.1078274E+005  0.1043930E+01  0.7957747E-01            NaN
         13   -1    0    0    0    0  0.00000000000E+00  0.00000000000E+00  0.74505805969E-08  0.10566000000E+00  0.10566000000E+00 0. -1.
     999900   -1    0    0    0    0 -0.00000000000E+00 -0.00000000000E+00 -0.74505805969E-08  0.93827000000E+00  0.93827000000E+00 0.  1.
     999902    2    1    2    0    0  0.15479355807E-01  0.12762199963E-01 -0.12833750553E-01  0.10201142624E+01  0.10198362217E+01 0.  0.
     999903    2    3    3    0    0  0.94262345805E-01 -0.11757009509E-01 -0.90722980506E-01  0.13282925560E+00  0.19731569704E-01 0.  0.
         14    1    1    2    0    0 -0.15479355807E-01 -0.12762199963E-01  0.12833750553E-01  0.23815737598E-01  0.00000000000E+00 0. -1.
     999901    1    3    3    0    0 -0.78782989998E-01  0.24519209471E-01  0.77889229954E-01  0.88728500680E+00  0.88000000000E+00 0. -1.
        -11    1    4    4    0    0  0.34755268851E-01 -0.21992420577E-02 -0.46387887563E-01  0.58007435834E-01  0.51100000000E-03 0. -1.
         11    1    4    4    0    0  0.59507076955E-01 -0.95577674509E-02 -0.44335092944E-01  0.74821819770E-01  0.51100000000E-03 0.  1.
</event>
<event>
 8    1  0.1078274E+005  0.1043930E+01  0.7957747E-01            NaN
         13   -1    0    0    0    0  0.00000000000E+00  0.00000000000E+00  0.74505805969E-08  0.10566000000E+00  0.10566000000E+00 0. -1.
     999900   -1    0    0    0    0 -0.00000000000E+00 -0.00000000000E+00 -0.74505805969E-08  0.93827000000E+00  0.93827000000E+00 0. -1.
     999902    2    1    2    0    0 -0.13318525876E-02  0.13017711643E-01  0.23146424498E-01  0.10173406861E+01  0.10169931563E+01 0.  0.
     999903    2    3    3    0    0  0.70417365234E-03  0.12781437956E+00 -0.23906140651E-02  0.12951493701E+00  0.20769987769E-01 0.  0.
         14    1    1    2    0    0  0.13318525876E-02 -0.13017711643E-01 -0.23146424498E-01  0.26589313920E-01  0.00000000000E+00 0.  1.
     999901    1    3    3    0    0 -0.20360262399E-02 -0.11479666791E+00  0.25537038563E-01  0.88782574907E+00  0.88000000000E+00 0. -1.
        -11    1    4    4    0    0  0.73230972629E-03  0.54313908542E-01 -0.11270838025E-01  0.55478192558E-01  0.51100000000E-03 0. -1.
         11    1    4    4    0    0 -0.28136073943E-04  0.73500471014E-01  0.88802239603E-02  0.74036744455E-01  0.51100000000E-03 0.  1.
</event>
<event>
 8    1  0.1078274E+005  0.1043930E+01  0.7957747E-01            NaN
         13   -1    0    0    0    0  0.00000000000E+00  0.00000000000E+00  0.74505805969E-08  0.10566000000E+00  0.10566000000E+00 0.  1.
     999900   -1    0    0    0    0 -0.00000000000E+00 -0.00000000000E+00 -0.74505805969E-08  0.93827000000E+00  0.93827000000E+00 0.  1.
     999902    2    1    2    0    0  0.13105919205E-01 -0.20116416206E-01 -0.39153396111E-02  0.10196037754E+01  0.10193135404E+01 0.  0.
     999903    2    3    3    0    0  0.67285620380E-01  0.85832452864E-01  0.65668799407E-01  0.12887230336E+00  0.20027847682E-01 0.  0.
         14    1    1    2    0    0 -0.13105919205E-01  0.20116416206E-01  0.39153396111E-02  0.24326224603E-01  0.00000000000E+00 0.  1.
     999901    1    3    3    0    0 -0.54179701175E-01 -0.10594886907E+00 -0.69584139018E-01  0.89073147204E+00  0.88000000000E+00 0.  1.
        -11    1    4    4    0    0  0.51954608306E-01  0.59304733523E-01  0.56110150767E-01  0.96772634989E-01  0.51100000000E-03 0.  1.
         11    1    4    4    0    0  0.15331012074E-01  0.26527719341E-01  0.95586486393E-02  0.32099668370E-01  0.51100000000E-03 0. -1.
</event>
<event>
 8    1  0.1078274E+005  0.1043930E+01  0.7957747E-01            NaN
         13   -1    0    0    0    0  0.00000000000E+00  0.00000000000E+00  0.74505805969E-08  0.10566000000E+00  0.10566000000E+00 0. -1.
     999900   -1    0    0    0    0 -0.00000000000E+00 -0.00000000000E+00 -0.74505805969E-08  0.93827000000E+00  0.93827000000E+00 0. -1.
     999902    2    1    2    0    0  0.12235541231E-01  0.86361018663E-02  0.18957816537E-01  0.10197703325E+01  0.10194841056E+01 0.  0.
     999903    2    3    3    0    0  0.46628948183E-01 -0.27759495954E-01 -0.11455249541E+00  0.12829259900E+00  0.19795664390E-01 0.  0.
         14    1    1    2    0    0 -0.12235541231E-01 -0.86361018663E-02 -0.18957816537E-01  0.24159667475E-01  0.00000000000E+00 0. -1.
     999901    1    3    3    0    0 -0.34393406952E-01  0.36395597820E-01  0.13351031194E+00  0.89147773353E+00  0.88000000000E+00 0.  1.
        -11    1    4    4    0    0  0.22680468351E-01 -0.84829452256E-02 -0.31525550684E-01  0.39755320037E-01  0.51100000000E-03 0.  1.
         11    1    4    4    0    0  0.23948479833E-01 -0.19276550728E-01 -0.83026944723E-01  0.88537278958E-01  0.51100000000E-03 0. -1.
</event>
<event>
 8    1  0.1078274E+005  0.1043930E+01  0.7957747E-01            NaN
         13   -1    0    0    0    0  0.00000000000E+00  0.00000000000E+00  0.74505805969E-08  0.10566000000E+00  0.10566000000E+00 0.  1.
     999900   -1    0    0    0    0 -0.00000000000E+00 -0.00000000000E+00 -0.74505805969E-08  0.93827000000E+00  0.93827000000E+00 0.  1.
     999902    2    1    2    0    0  0.16403605054E-01  0.13328157582E-01  0.97501592364E-02  0.10206537536E+01  0.10203883089E+01 0.  0.
     999903    2    3    3    0    0 -0.11200503440E+00  0.56988206524E-01  0.28181176536E-01  0.13007266182E+00  0.18219089689E-01 0.  0.
         14    1    1    2    0    0 -0.16403605054E-01 -0.13328157582E-01 -0.97501592364E-02  0.23276246443E-01  0.00000000000E+00 0. -1.
     999901    1    3    3    0    0  0.12840863945E+00 -0.43660048941E-01 -0.18431017299E-01  0.89058109174E+00  0.88000000000E+00 0.  1.
        -11    1    4    4    0    0 -0.24755743569E-01  0.95983118436E-02  0.13209716224E-01  0.29660279055E-01  0.51100000000E-03 0.  1.
         11    1    4    4    0    0 -0.87249290829E-01  0.47389894680E-01  0.14971460311E-01  0.10041238277E+00  0.51100000000E-03 0. -1.
</event>
<event>
 8    1  0.1078274E+005  0.1043930E+01  0.7957747E-01            NaN
         13   -1    0    0    0    0  0.00000000000E+00  0.00000000000E+00  0.74505805969E-08  0.10566000000E+00  0.10566000000E+00 0. -1.
     999900   -1    0    0    0    0 -0.00000000000E+00 -0.00000000000E+00 -0.74505805969E-08  0.93827000000E+00  0.93827000000E+00 0. -1.
     999902    2    1    2    0    0  0.18253034386E-01  0.28725313084E-02  0.16874092308E-01  0.10189068169E+01  0.10185995002E+01 0.  0.
     999903    2    3    3    0    0  0.33584837519E-01  0.11396259582E+00 -0.47730695798E-01  0.12944077188E+00  0.19007355074E-01 0.  0.
         14    1    1    2    0    0 -0.18253034386E-01 -0.28725313084E-02 -0.16874092308E-01  0.25023183083E-01  0.00000000000E+00 0.  1.
     999901    1    3    3    0    0 -0.15331803134E-01 -0.11109006451E+00  0.64604788106E-01  0.88946604503E+00  0.88000000000E+00 0.  1.
        -11    1    4    4    0    0  0.24693624537E-01  0.50667113659E-01 -0.20841621978E-01  0.60096304603E-01  0.51100000000E-03 0. -1.
         11    1    4    4    0    0  0.88912129822E-02  0.63295482162E-01 -0.26889073820E-01  0.69344467280E-01  0.51100000000E-03 0.  1.
</event>
<event>
 8    1  0.1078274E+005  0.1043930E+01  0.7957747E-01            NaN
         13   -1    0    0    0    0  0.00000000000E+00  0.00000000000E+00  0.74505805969E-08  0.10566000000E+00  0.10566000000E+00 0. -1.
     999900   -1    0    0    0    0 -0.00000000000E+00 -0.00000000000E+00 -0.74505805969E-08  0.93827000000E+00  0.93827000000E+00 0.  1.
     999902    2    1    2    0    0  0.23517061403E-01  0.17881469635E-02 -0.19623272251E-01  0.10132490212E+01  0.10127844077E+01 0.  0.
     999903    2    3    3    0    0  0.12513919027E-01  0.88273800972E-01  0.82490516801E-01  0.12306473499E+00  0.19783364945E-01 0.  0.
         14    1    1    2    0    0 -0.23517061403E-01 -0.17881469635E-02  0.19623272251E-01  0.30680978805E-01  0.00000000000E+00 0. -1.
     999901    1    3    3    0    0  0.11003142376E-01 -0.86485654008E-01 -0.10211378905E+00  0.89018428620E+00  0.88000000000E+00 0.  1.
        -11    1    4    4    0    0  0.14360710757E-01  0.33944828075E-01  0.36189975605E-01  0.51657108144E-01  0.51100000000E-03 0.  1.
         11    1    4    4    0    0 -0.18467917300E-02  0.54328972897E-01  0.46300541196E-01  0.71407626846E-01  0.51100000000E-03 0. -1.
</event>
<event>
 8    1  0.1078274E+005  0.1043930E+01  0.7957747E-01            NaN
         13   -1    0    0    0    0  0.00000000000E+00  0.00000000000E+00  0.74505805969E-08  0.10566000000E+00  0.10566000000E+00 0. -1.
     999900   -1    0    0    0    0 -0.00000000000E+00 -0.00000000000E+00 -0.74505805969E-08  0.93827000000E+00  0.93827000000E+00 0.  1.
     999902    2    1    2    0    0  0.35759186454E-02  0.82317120515E-02 -0.19977182674E-01  0.10220294040E+01  0.10217947282E+01 0.  0.
     999903    2    3    3    0    0  0.18426557009E-01  0.13029742149E+00  0.33916008811E-02  0.13317245324E+00  0.20160438877E-01 0.  0.
         14    1    1    2    0    0 -0.35759186454E-02 -0.82317120515E-02  0.19977182674E-01  0.21900595998E-01  0.00000000000E+00 0. -1.
     999901    1    3    3    0    0 -0.14850638364E-01 -0.12206570943E+00 -0.23368783555E-01  0.88885695077E+00  0.88000000000E+00 0.  1.
        -11    1    4    4    0    0  0.15192717017E-01  0.72365117297E-01  0.10604807119E-01  0.74701083706E-01  0.51100000000E-03 0.  1.
         11    1    4    4    0    0  0.32338399924E-02  0.57932304188E-01 -0.72132062375E-02  0.58471369531E-01  0.51100000000E-03 0. -1.
</event>
<event>
 8    1  0.1078274E+005  0.1043930E+01  0.7957747E-01            NaN
         13   -1    0    0    0    0  0.00000000000E+00  0.00000000000E+00  0.74505805969E-08  0.10566000000E+00  0.10566000000E+00 0. -1.
     999900   -1    0    0    0    0 -0.00000000000E+00 -0.00000000000E+00 -0.74505805969E-08  0.93827000000E+00  0.93827000000E+00 0.  1.
     999902    2    1    2    0    0 -0.81813027012E-04  0.21956128639E-02 -0.21291125305E-01  0.10225258082E+01  0.10223017603E+01 0.  0.
     999903    2    3    3    0    0  0.43731931390E-01  0.88529004855E-01 -0.89402125182E-01  0.13460001904E+00  0.19353516883E-01 0.  0.
         14    1    1    2    0    0  0.81813027012E-04 -0.21956128639E-02  0.21291125305E-01  0.21404191785E-01  0.00000000000E+00 0. -1.
     999901    1    3    3    0    0 -0.43813744417E-01 -0.86333391991E-01  0.68110999877E-01  0.88792578917E+00  0.88000000000E+00 0. -1.
        -11    1    4    4    0    0  0.60544119152E-02  0.12149658429E-01 -0.22559582452E-01  0.26333742328E-01  0.51100000000E-03 0.  1.
         11    1    4    4    0    0  0.37677519475E-01  0.76379346426E-01 -0.66842542730E-01  0.10826627672E+00  0.51100000000E-03 0. -1.
</event>
<event>
 8    1  0.1078274E+005  0.1043930E+01  0.7957747E-01            NaN
         13   -1    0    0    0    0  0.00000000000E+00  0.00000000000E+00  0.74505805969E-08  0.10566000000E+00  0.10566000000E+00 0.  1.
     999900   -1    0    0    0    0 -0.00000000000E+00 -0.00000000000E+00 -0.74505805969E-08  0.93827000000E+00  0.93827000000E+00 0. -1.
     999902    2    1    2    0    0  0.10662191916E-01  0.13850545073E-01 -0.18279087991E-01  0.10186387961E+01  0.10183247773E+01 0.  0.
     999903    2    3    3    0    0  0.45623157796E-01  0.11048242772E+00  0.47681112612E-01  0.13020717921E+00  0.19813673458E-01 0.  0.
         14    1    1    2    0    0 -0.10662191916E-01 -0.13850545073E-01  0.18279087991E-01  0.25291203868E-01  0.00000000000E+00 0. -1.
     999901    1    3    3    0    0 -0.34960965880E-01 -0.96631882649E-01 -0.65960200603E-01  0.88843161692E+00  0.88000000000E+00 0. -1.
        -11    1    4    4    0    0  0.19620154266E-01  0.64093326753E-01  0.34624556439E-01  0.75445516880E-01  0.51100000000E-03 0.  1.
         11    1    4    4    0    0  0.26003003530E-01  0.46389100969E-01  0.13056556172E-01  0.54761662332E-01  0.51100000000E-03 0. -1.
</event>
<event>
 8    1  0.1078274E+005  0.1043930E+01  0.7957747E-01            NaN
         13   -1    0    0    0    0  0.00000000000E+00  0.00000000000E+00  0.74505805969E-08  0.10566000000E+00  0.10566000000E+00 0.  1.
     999900   -1    0    0    0    0 -0.00000000000E+00 -0.00000000000E+00 -0.74505805969E-08  0.93827000000E+00  0.93827000000E+00 0.  1.
     999902    2    1    2    0    0 -0.11207277276E-01  0.21899817943E-01  0.12508705708E-01  0.10163315796E+01  0.10159567938E+01 0.  0.
     999903    2    3    3    0    0 -0.14629440905E-01 -0.10301859674E+00  0.67838722013E-01  0.12578246123E+00  0.19806148858E-01 0.  0.
         14    1    1    2    0    0  0.11207277276E-01 -0.21899817943E-01 -0.12508705708E-01  0.27598420396E-01  0.00000000000E+00 0.  1.
     999901    1    3    3    0    0  0.34221636288E-02  0.12491841469E+00 -0.55330016305E-01  0.89054911837E+00  0.88000000000E+00 0.  1.
        -11    1    4    4    0    0 -0.15444643845E-01 -0.65962150594E-01  0.52307568774E-01  0.85591385119E-01  0.51100000000E-03 0.  1.
         11    1    4    4    0    0  0.81520294031E-03 -0.37056446149E-01  0.15531153239E-01  0.40191076111E-01  0.51100000000E-03 0. -1.
</event>
<event>
 8    1  0.1078274E+005  0.1043930E+01  0.7957747E-01            NaN
         13   -1    0    0    0    0  0.00000000000E+00  0.00000000000E+00  0.74505805969E-08  0.10566000000E+00  0.10566000000E+00 0.  1.
     999900   -1    0    0    0    0 -0.00000000000E+00 -0.00000000000E+00 -0.74505805969E-08  0.93827000000E+00  0.93827000000E+00 0.  1.
     999902    2    1    2    0    0 -0.12310962398E-01 -0.14986688819E-01 -0.10159664727E-01  0.10220352649E+01  0.10218007160E+01 0.  0.
     999903    2    3    3    0    0  0.12232006545E+00 -0.42586765517E-01 -0.11049645077E-01  0.13136805998E+00  0.18964216779E-01 0.  0.
         14    1    1    2    0    0  0.12310962398E-01  0.14986688819E-01  0.10159664727E-01  0.21894735081E-01  0.00000000000E+00 0.  1.
     999901    1    3    3    0    0 -0.13463102784E+00  0.27600076698E-01  0.88998034996E-03  0.89066720494E+00  0.88000000000E+00 0.  1.
        -11    1    4    4    0    0  0.57524594675E-01 -0.19379316338E-01 -0.14649203816E-01  0.62445954134E-01  0.51100000000E-03 0.  1.
         11    1    4    4    0    0  0.64795470772E-01 -0.23207449178E-01  0.35995587389E-02  0.68922105844E-01  0.51100000000E-03 0. -1.
</event>
<event>
 8    1  0.1078274E+005  0.1043930E+01  0.7957747E-01            NaN
         13   -1    0    0    0    0  0.00000000000E+00  0.00000000000E+00  0.74505805969E-08  0.10566000000E+00  0.10566000000E+00 0. -1.
     999900   -1    0    0    0    0 -0.00000000000E+00 -0.00000000000E+00 -0.74505805969E-08  0.93827000000E+00  0.93827000000E+00 0.  1.
     999902    2    1    2    0    0 -0.66498264413E-02  0.21404548644E-01  0.16363693239E-01  0.10161785072E+01  0.10157994946E+01 0.  0.
     999903    2    3    3    0    0 -0.75833017980E-01  0.39549552120E-01  0.95658341086E-01  0.12972309588E+00  0.19045988982E-01 0.  0.
         14    1    1    2    0    0  0.66498264413E-02 -0.21404548644E-01 -0.16363693239E-01  0.27751492766E-01  0.00000000000E+00 0.  1.
     999901    1    3    3    0    0  0.69183191539E-01 -0.18145003477E-01 -0.79294647847E-01  0.88645541135E+00  0.88000000000E+00 0.  1.
        -11    1    4    4    0    0 -0.16822142956E-01  0.17510036641E-01  0.21656568242E-01  0.32540036046E-01  0.51100000000E-03 0.  1.
         11    1    4    4    0    0 -0.59010875024E-01  0.22039515479E-01  0.74001772844E-01  0.97183059834E-01  0.51100000000E-03 0. -1.
</event>
<event>
 8    1  0.1078274E+005  0.1043930E+01  0.7957747E-01            NaN
         13   -1    0    0    0    0  0.00000000000E+00  0.00000000000E+00  0.74505805969E-08  0.10566000000E+00  0.10566000000E+00 0.  1.
     999900   -1    0    0    0    0 -0.00000000000E+00 -0.00000000000E+00 -0.74505805969E-08  0.93827000000E+00  0.93827000000E+00 0. -1.
     999902    2    1    2    0    0 -0.43319388945E-02 -0.59379230924E-02  0.22312207108E-01  0.10204383161E+01  0.10201678773E+01 0.  0.
     999903    2    3    3    0    0  0.69567130881E-01  0.59126742846E-02  0.10992582785E+00  0.13292625665E+00  0.26667520765E-01 0.  0.
         14    1    1    2    0    0  0.43319388945E-02  0.59379230924E-02 -0.22312207108E-01  0.23491683875E-01  0.00000000000E+00 0. -1.
     999901    1    3    3    0    0 -0.73899069775E-01 -0.11850597377E-01 -0.87613620737E-01  0.88751205947E+00  0.88000000000E+00 0. -1.
        -11    1    4    4    0    0  0.56971002418E-01 -0.59917454821E-02  0.87359843660E-01  0.10446817475E+00  0.51100000000E-03 0. -1.
         11    1    4    4    0    0  0.12596128462E-01  0.11904419767E-01  0.22565984185E-01  0.28458081901E-01  0.51100000000E-03 0.  1.
</event>
<event>
 8    1  0.1078274E+005  0.1043930E+01  0.7957747E-01            NaN
         13   -1    0    0    0    0  0.00000000000E+00  0.00000000000E+00  0.74505805969E-08  0.10566000000E+00  0.10566000000E+00 0.  1.
     999900   -1    0    0    0    0 -0.00000000000E+00 -0.00000000000E+00 -0.74505805969E-08  0.93827000000E+00  0.93827000000E+00 0.  1.
     999902    2    1    2    0    0 -0.26310740658E-02  0.50246138309E-02  0.24534120679E-01  0.10187488092E+01  0.10184375503E+01 0.  0.
     999903    2    3    3    0    0  0.28640314679E-01  0.94592653087E-01  0.84508340846E-01  0.13162015981E+00  0.20351146207E-01 0.  0.
         14    1    1    2    0    0  0.26310740658E-02 -0.50246138309E-02 -0.24534120679E-01  0.25181190845E-01  0.00000000000E+00 0. -1.
     999901    1    3    3    0    0 -0.31271388745E-01 -0.89568039256E-01 -0.59974220167E-01  0.88712864935E+00  0.88000000000E+00 0.  1.
        -11    1    4    4    0    0  0.18664053257E-01  0.29181434508E-01  0.31762086146E-01  0.46999938737E-01  0.51100000000E-03 0. -1.
         11    1    4    4    0    0  0.99762614220E-02  0.65411218579E-01  0.52746254700E-01  0.84620221069E-01  0.51100000000E-03 0.  1.
</event>
<event>
 8    1  0.1078274E+005  0.1043930E+01  0.7957747E-01            NaN
         13   -1    0    0    0    0  0.00000000000E+00  0.00000000000E+00  0.74505805969E-08  0.10566000000E+00  0.10566000000E+00 0.  1.
     999900   -1    0    0    0    0 -0.00000000000E+00 -0.00000000000E+00 -0.74505805969E-08  0.93827000000E+00  0.93827000000E+00 0. -1.
     999902    2    1    2    0    0  0.28081955644E-02 -0.17843025501E-02  0.23365861886E-01  0.10203284492E+01  0.10200554451E+01 0.  0.
     999903    2    3    3    0    0 -0.61463366495E-01  0.16481710193E-01  0.11495673522E+00  0.13305545346E+00  0.20959735960E-01 0.  0.
         14    1    1    2    0    0 -0.28081955644E-02  0.17843025501E-02 -0.23365861886E-01  0.23601550788E-01  0.00000000000E+00 0. -1.
     999901    1    3    3    0    0  0.64271562059E-01 -0.18266012743E-01 -0.91590873333E-01  0.88727299575E+00  0.88000000000E+00 0. -1.
        -11    1    4    4    0    0 -0.77521430422E-02  0.96308317858E-02  0.28077174185E-01  0.30682853091E-01  0.51100000000E-03 0.  1.
         11    1    4    4    0    0 -0.53711223453E-01  0.68508784068E-02  0.86879561035E-01  0.10237260037E+00  0.51100000000E-03 0. -1.
</event>
<event>
 8    1  0.1078274E+005  0.1043930E+01  0.7957747E-01            NaN
         13   -1    0    0    0    0  0.00000000000E+00  0.00000000000E+00  0.74505805969E-08  0.10566000000E+00  0.10566000000E+00 0. -1.
     999900   -1    0    0    0    0 -0.00000000000E+00 -0.00000000000E+00 -0.74505805969E-08  0.93827000000E+00  0.93827000000E+00 0.  1.
     999902    2    1    2    0    0  0.12407074011E-01  0.64744427240E-02 -0.18299093607E-01  0.10208928404E+01  0.10206328825E+01 0.  0.
     999903    2    3    3    0    0 -0.14987687441E-01  0.10135886157E+00 -0.82563125325E-01  0.13303959148E+00  0.19611569182E-01 0.  0.
         14    1    1    2    0    0 -0.12407074011E-01 -0.64744427240E-02  0.18299093607E-01  0.23037159568E-01  0.00000000000E+00 0. -1.
     999901    1    3    3    0    0  0.27394761452E-01 -0.94884418844E-01  0.64264031718E-01  0.88785324895E+00  0.88000000000E+00 0. -1.
        -11    1    4    4    0    0 -0.18008802857E-01  0.59377072918E-01 -0.45359148436E-01  0.76861350733E-01  0.51100000000E-03 0. -1.
         11    1    4    4    0    0  0.30211154157E-02  0.41981788650E-01 -0.37203976889E-01  0.56178240751E-01  0.51100000000E-03 0.  1.
</event>
<event>
 8    1  0.1078274E+005  0.1043930E+01  0.7957747E-01            NaN
         13   -1    0    0    0    0  0.00000000000E+00  0.00000000000E+00  0.74505805969E-08  0.10566000000E+00  0.10566000000E+00 0.  1.
     999900   -1    0    0    0    0 -0.00000000000E+00 -0.00000000000E+00 -0.74505805969E-08  0.93827000000E+00  0.93827000000E+00 0. -1.
     999902    2    1    2    0    0  0.17218444696E-01 -0.37774996153E-03  0.17197716273E-01  0.10195911632E+01  0.10193006235E+01 0.  0.
     999903    2    3    3    0    0 -0.11393966099E+00 -0.49956039760E-01 -0.22445823980E-01  0.12760906370E+00  0.17389820840E-01 0.  0.
         14    1    1    2    0    0 -0.17218444696E-01  0.37774996153E-03 -0.17197716273E-01  0.24338836821E-01  0.00000000000E+00 0. -1.
     999901    1    3    3    0    0  0.13115810569E+00  0.49578289798E-01  0.39643540253E-01  0.89198209948E+00  0.88000000000E+00 0. -1.
        -11    1    4    4    0    0 -0.23218796495E-01 -0.75256955700E-02 -0.11086578201E-01  0.26812719775E-01  0.51100000000E-03 0. -1.
         11    1    4    4    0    0 -0.90720864497E-01 -0.42430344190E-01 -0.11359245779E-01  0.10079634393E+00  0.51100000000E-03 0.  1.
</event>
<event>
 8    1  0.1078274E+005  0.1043930E+01  0.7957747E-01            NaN
         13   -1    0    0    0    0  0.00000000000E+00  0.00000000000E+00  0.74505805969E-08  0.10566000000E+00  0.10566000000E+00 0.  1.
     999900   -1    0    0    0    0 -0.00000000000E+00 -0.00000000000E+00 -0.74505805969E-08  0.93827000000E+00  0.93827000000E+00 0. -1.
     999902    2    1    2    0    0  0.21016178680E-01 -0.33627282178E-02  0.93479530690E-02  0.10206840986E+01  0.10204193536E+01 0.  0.
     999903    2    3    3    0    0 -0.36351262399E-01  0.22340000231E-01  0.12244599320E+00  0.13122200255E+00  0.20142065794E-01 0.  0.
         14    1    1    2    0    0 -0.21016178680E-01  0.33627282178E-02 -0.93479530690E-02  0.23245901444E-01  0.00000000000E+00 0. -1.
     999901    1    3    3    0    0  0.57367441079E-01 -0.25702728449E-01 -0.11309804013E+00  0.88946209600E+00  0.88000000000E+00 0. -1.
        -11    1    4    4    0    0 -0.11961117756E-01  0.15294629032E-02  0.57962654519E-01  0.59205895269E-01  0.51100000000E-03 0. -1.
         11    1    4    4    0    0 -0.24390144643E-01  0.20810537328E-01  0.64483338683E-01  0.72016107283E-01  0.51100000000E-03 0.  1.
</event>
<event>
 8    1  0.1078274E+005  0.1043930E+01  0.7957747E-01            NaN
         13   -1    0    0    0    0  0.00000000000E+00  0.00000000000E+00  0.74505805969E-08  0.10566000000E+00  0.10566000000E+00 0.  1.
     999900   -1    0    0    0    0 -0.00000000000E+00 -0.00000000000E+00 -0.74505805969E-08  0.93827000000E+00  0.93827000000E+00 0.  1.
     999902    2    1    2    0    0  0.97300923966E-02 -0.18380116894E-01 -0.10786250438E-01  0.10205025248E+01  0.10202335794E+01 0.  0.
     999903    2    3    3    0    0  0.64126059894E-01  0.54570639735E-01  0.96122097110E-01  0.12937395443E+00  0.20200402333E-01 0.  0.
         14    1    1    2    0    0 -0.97300923966E-02  0.18380116894E-01  0.10786250438E-01  0.23427475186E-01  0.00000000000E+00 0.  1.
     999901    1    3    3    0    0 -0.54395967497E-01 -0.72950756629E-01 -0.10690834755E+00  0.89112857038E+00  0.88000000000E+00 0.  1.
        -11    1    4    4    0    0  0.29330856980E-01  0.31618074285E-01  0.35819793729E-01  0.56065323832E-01  0.51100000000E-03 0.  1.
         11    1    4    4    0    0  0.34795202914E-01  0.22952565450E-01  0.60302303381E-01  0.73308630601E-01  0.51100000000E-03 0. -1.
</event>
<event>
 8    1  0.1078274E+005  0.1043930E+01  0.7957747E-01            NaN
         13   -1    0    0    0    0  0.00000000000E+00  0.00000000000E+00  0.74505805969E-08  0.10566000000E+00  0.10566000000E+00 0.  1.
     999900   -1    0    0    0    0 -0.00000000000E+00 -0.00000000000E+00 -0.74505805969E-08  0.93827000000E+00  0.93827000000E+00 0. -1.
     999902    2    1    2    0    0 -0.14344355978E-01  0.16422806104E-01 -0.13306071954E-01  0.10183855161E+01  0.10180650955E+01 0.  0.
     999903    2    3    3    0    0  0.22364669183E-01 -0.56864818722E-01  0.10872972716E+00  0.12619082613E+00  0.19188147245E-01 0.  0.
         14    1    1    2    0    0  0.14344355978E-01 -0.16422806104E-01  0.13306071954E-01  0.25544483937E-01  0.00000000000E+00 0. -1.
     999901    1    3    3    0    0 -0.36709025161E-01  0.73287624827E-01 -0.12203579911E+00  0.89219468993E+00  0.88000000000E+00 0.  1.
        -11    1    4    4    0    0  0.24174171850E-01 -0.47066233449E-01  0.81300915446E-01  0.97003715852E-01  0.51100000000E-03 0. -1.
         11    1    4    4    0    0 -0.18095026668E-02 -0.97985852731E-02  0.27428811714E-01  0.29187110277E-01  0.51100000000E-03 0.  1.
</event>
<event>
 8    1  0.1078274E+005  0.1043930E+01  0.7957747E-01            NaN
         13   -1    0    0    0    0  0.00000000000E+00  0.00000000000E+00  0.74505805969E-08  0.10566000000E+00  0.10566000000E+00 0. -1.
     999900   -1    0    0    0    0 -0.00000000000E+00 -0.00000000000E+00 -0.74505805969E-08  0.93827000000E+00  0.93827000000E+00 0.  1.
     999902    2    1    2    0    0 -0.18043652814E-01 -0.16543128428E-01 -0.10359360051E-02  0.10194285374E+01  0.10191340546E+01 0.  0.
     999903    2    3    3    0    0  0.11059070212E+00  0.31837815081E-02  0.60820901373E-01  0.12770985052E+00  0.19240166723E-01 0.  0.
         14    1    1    2    0    0  0.18043652814E-01  0.16543128428E-01  0.10359360051E-02  0.24501462578E-01  0.00000000000E+00 0.  1.
     999901    1    3    3    0    0 -0.12863435493E+00 -0.19726909936E-01 -0.61856837378E-01  0.89171868690E+00  0.88000000000E+00 0.  1.
        -11    1    4    4    0    0  0.22870051398E-01 -0.15857633283E-02  0.45380806071E-02  0.23375397170E-01  0.51100000000E-03 0.  1.
         11    1    4    4    0    0  0.87720650721E-01  0.47695448364E-02  0.56282820766E-01  0.10433445335E+00  0.51100000000E-03 0. -1.
</event>
<event>
 8    1  0.1078274E+005  0.1043930E+01  0.7957747E-01            NaN
         13   -1    0    0    0    0  0.00000000000E+00  0.00000000000E+00  0.74505805969E-08  0.10566000000E+00  0.10566000000E+00 0. -1.
     999900   -1    0    0    0    0 -0.00000000000E+00 -0.00000000000E+00 -0.74505805969E-08  0.93827000000E+00  0.93827000000E+00 0.  1.
     999902    2    1    2    0    0 -0.40659816957E-03 -0.10368666867E-01 -0.21387371682E-01  0.10201582890E+01  0.10198812874E+01 0.  0.
     999903    2    3    3    0    0  0.11197869827E+00 -0.44106197787E-01 -0.49479019282E-01  0.13192531480E+00  0.21714736631E-01 0.  0.
         14    1    1    2    0    0  0.40659816957E-03  0.10368666867E-01  0.21387371682E-01  0.23771710963E-01  0.00000000000E+00 0. -1.
     999901    1    3    3    0    0 -0.11238529644E+00  0.33737530920E-01  0.28091647601E-01  0.88823297423E+00  0.88000000000E+00 0.  1.
        -11    1    4    4    0    0  0.93516953173E-02 -0.12303817651E-02  0.15171905884E-02  0.95671852118E-02  0.51100000000E-03 0.  1.
         11    1    4    4    0    0  0.10262700296E+00 -0.42875816022E-01 -0.50996209871E-01  0.12235812959E+00  0.51100000000E-03 0. -1.
</event>
<event>
 8    1  0.1078274E+005  0.1043930E+01  0.7957747E-01            NaN
         13   -1    0    0    0    0  0.00000000000E+00  0.00000000000E+00  0.74505805969E-08  0.10566000000E+00  0.10566000000E+00 0.  1.
     999900   -1    0    0    0    0 -0.00000000000E+00 -0.00000000000E+00 -0.74505805969E-08  0.93827000000E+00  0.93827000000E+00 0.  1.
     999902    2    1    2    0    0  0.16211568823E-02  0.23589922031E-01 -0.55655939054E-02  0.10196382646E+01  0.10193488619E+01 0.  0.
     999903    2    3    3    0    0  0.72831606086E-01 -0.76452769275E-01  0.69576023474E-01  0.12794003608E+00  0.19451504185E-01 0.  0.
         14    1    1    2    0    0 -0.16211568823E-02 -0.23589922031E-01  0.55655939054E-02  0.24291735356E-01  0.00000000000E+00 0.  1.
     999901    1    3    3    0    0 -0.71210449204E-01  0.10004269131E+00 -0.75141617380E-01  0.89169822856E+00  0.88000000000E+00 0. -1.
        -11    1    4    4    0    0  0.44034723773E-01 -0.38264165226E-01  0.47632764475E-01  0.75314969367E-01  0.51100000000E-03 0. -1.
         11    1    4    4    0    0  0.28796882313E-01 -0.38188604049E-01  0.21943258999E-01  0.52625066714E-01  0.51100000000E-03 0.  1.
</event>
<event>
 8    1  0.1078274E+005  0.1043930E+01  0.7957747E-01            NaN
         13   -1    0    0    0    0  0.00000000000E+00  0.00000000000E+00  0.74505805969E-08  0.10566000000E+00  0.10566000000E+00 0.  1.
     999900   -1    0    0    0    0 -0.00000000000E+00 -0.00000000000E+00 -0.74505805969E-08  0.93827000000E+00  0.93827000000E+00 0.  1.
     999902    2    1    2    0    0  0.22222073939E-01 -0.11838124426E-01  0.16569050025E-02  0.10186969444E+01  0.10183843859E+01 0.  0.
     999903    2    3    3    0    0 -0.77087833379E-01 -0.86693431095E-01 -0.52991896585E-01  0.12827442328E+00  0.13707717308E-01 0.  0.
         14    1    1    2    0    0 -0.22222073939E-01  0.11838124426E-01 -0.16569050025E-02  0.25233055587E-01  0.00000000000E+00 0.  1.
     999901    1    3    3    0    0  0.99309907318E-01  0.74855306669E-01  0.54648801587E-01  0.89042252113E+00  0.88000000000E+00 0.  1.
        -11    1    4    4    0    0 -0.24274471198E-01 -0.33820154208E-01 -0.24412713604E-01  0.48262765039E-01  0.51100000000E-03 0. -1.
         11    1    4    4    0    0 -0.52813362181E-01 -0.52873276886E-01 -0.28579182980E-01  0.80011658240E-01  0.51100000000E-03 0.  1.
</event>
<event>
 8    1  0.1078274E+005  0.1043930E+01  0.7957747E-01            NaN
         13   -1    0    0    0    0  0.00000000000E+00  0.00000000000E+00  0.74505805969E-08  0.10566000000E+00  0.10566000000E+00 0. -1.
     999900   -1    0    0    0    0 -0.00000000000E+00 -0.00000000000E+00 -0.74505805969E-08  0.93827000000E+00  0.93827000000E+00 0. -1.
     999902    2    1    2    0    0 -0.21442575637E-01 -0.52452987722E-02 -0.84236668325E-02  0.10203025716E+01  0.10200289615E+01 0.  0.
     999903    2    3    3    0    0 -0.76747909107E-01  0.63286892276E-01  0.83120210742E-01  0.13118186966E+00  0.20105750625E-01 0.  0.
         14    1    1    2    0    0  0.21442575637E-01  0.52452987722E-02  0.84236668325E-02  0.23627428384E-01  0.00000000000E+00 0. -1.
     999901    1    3    3    0    0  0.55305333470E-01 -0.68532191049E-01 -0.91543877574E-01  0.88912070195E+00  0.88000000000E+00 0. -1.
        -11    1    4    4    0    0 -0.20012399662E-01  0.28471525273E-01  0.31527441616E-01  0.46961309473E-01  0.51100000000E-03 0. -1.
         11    1    4    4    0    0 -0.56735509445E-01  0.34815367003E-01  0.51592769126E-01  0.84220560189E-01  0.51100000000E-03 0.  1.
</event>
<event>
 8    1  0.1078274E+005  0.1043930E+01  0.7957747E-01            NaN
         13   -1    0    0    0    0  0.00000000000E+00  0.00000000000E+00  0.74505805969E-08  0.10566000000E+00  0.10566000000E+00 0. -1.
     999900   -1    0    0    0    0 -0.00000000000E+00 -0.00000000000E+00 -0.74505805969E-08  0.93827000000E+00  0.93827000000E+00 0. -1.
     999902    2    1    2    0    0 -0.48584966038E-02  0.14239643634E-01 -0.17969257042E-01  0.10204935617E+01  0.10202244081E+01 0.  0.
     999903    2    3    3    0    0 -0.34178443372E-01 -0.14205353317E-01  0.12155916195E+00  0.12856477711E+00  0.19552851593E-01 0.  0.
         14    1    1    2    0    0  0.48584966038E-02 -0.14239643634E-01  0.17969257042E-01  0.23436438269E-01  0.00000000000E+00 0. -1.
     999901    1    3    3    0    0  0.29319946769E-01  0.28444996951E-01 -0.13952841899E+00  0.89192878462E+00  0.88000000000E+00 0. -1.
        -11    1    4    4    0    0 -0.11970640155E-02 -0.35661295069E-02  0.36770768773E-01  0.36966211587E-01  0.51100000000E-03 0.  1.
         11    1    4    4    0    0 -0.32981379357E-01 -0.10639223810E-01  0.84788393175E-01  0.91598565523E-01  0.51100000000E-03 0. -1.
</event>
<event>
 8    1  0.1078274E+005  0.1043930E+01  0.7957747E-01            NaN
         13   -1    0    0    0    0  0.00000000000E+00  0.00000000000E+00  0.74505805969E-08  0.10566000000E+00  0.10566000000E+00 0.  1.
     999900   -1    0    0    0    0 -0.00000000000E+00 -0.00000000000E+00 -0.74505805969E-08  0.93827000000E+00  0.93827000000E+00 0. -1.
     999902    2    1    2    0    0  0.17756539365E-02 -0.23177205209E-01 -0.14167369591E-02  0.10206417426E+01  0.10203760208E+01 0.  0.
     999903    2    3    3    0    0 -0.26327049447E-01  0.92680335213E-01  0.82087279591E-01  0.12868566052E+00  0.23214643779E-01 0.  0.
         14    1    1    2    0    0 -0.17756539365E-02  0.23177205209E-01  0.14167369591E-02  0.23288257380E-01  0.00000000000E+00 0. -1.
     999901    1    3    3    0    0  0.28102703384E-01 -0.11585754042E+00 -0.83504016550E-01  0.89195608210E+00  0.88000000000E+00 0. -1.
        -11    1    4    4    0    0 -0.11684464117E-01  0.74644650529E-01  0.58309076408E-01  0.95438776537E-01  0.51100000000E-03 0.  1.
         11    1    4    4    0    0 -0.14642585330E-01  0.18035684683E-01  0.23778203183E-01  0.33246883985E-01  0.51100000000E-03 0. -1.
</event>
<event>
 8    1  0.1078274E+005  0.1043930E+01  0.7957747E-01            NaN
         13   -1    0    0    0    0  0.00000000000E+00  0.00000000000E+00  0.74505805969E-08  0.10566000000E+00  0.10566000000E+00 0.  1.
     999900   -1    0    0    0    0 -0.00000000000E+00 -0.00000000000E+00 -0.74505805969E-08  0.93827000000E+00  0.93827000000E+00 0.  1.
     999902    2    1    2    0    0 -0.68568142373E-02  0.22515785564E-01  0.20494301649E-02  0.10203042373E+01  0.10200306662E+01 0.  0.
     999903    2    3    3    0    0  0.48139029768E-01 -0.75903780388E-01  0.90007151138E-01  0.12876202598E+00  0.19990548102E-01 0.  0.
         14    1    1    2    0    0  0.68568142373E-02 -0.22515785564E-01 -0.20494301649E-02  0.23625762740E-01  0.00000000000E+00 0.  1.
     999901    1    3    3    0    0 -0.54995844006E-01  0.98419565952E-01 -0.87957720973E-01  0.89154221128E+00  0.88000000000E+00 0.  1.
        -11    1    4    4    0    0  0.90384425688E-02 -0.29119219039E-01  0.23226719516E-01  0.38332283809E-01  0.51100000000E-03 0.  1.
         11    1    4    4    0    0  0.39100587200E-01 -0.46784561349E-01  0.66780431622E-01  0.90429742168E-01  0.51100000000E-03 0. -1.
</event>
<event>
 8    1  0.1078274E+005  0.1043930E+01  0.7957747E-01            NaN
         13   -1    0    0    0    0  0.00000000000E+00  0.00000000000E+00  0.74505805969E-08  0.10566000000E+00  0.10566000000E+00 0. -1.
     999900   -1    0    0    0    0 -0.00000000000E+00 -0.00000000000E+00 -0.74505805969E-08  0.93827000000E+00  0.93827000000E+00 0.  1.
     999902    2    1    2    0    0 -0.20621411802E-01 -0.80544525364E-02 -0.56658196711E-02  0.10210779029E+01  0.10208221517E+01 0.  0.
     999903    2    3    3    0    0  0.96864104368E-01 -0.60784362948E-01 -0.58738555445E-01  0.13012335564E+00  0.20111595988E-01 0.  0.
         14    1    1    2    0    0  0.20621411802E-01  0.80544525364E-02  0.56658196711E-02  0.22852097122E-01  0.00000000000E+00 0. -1.
     999901    1    3    3    0    0 -0.11748551617E+00  0.52729910412E-01  0.53072735774E-01  0.89095454724E+00  0.88000000000E+00 0. -1.
        -11    1    4    4    0    0  0.56202573822E-01 -0.46310426075E-01 -0.33987447315E-01  0.80366613488E-01  0.51100000000E-03 0. -1.
         11    1    4    4    0    0  0.40661530546E-01 -0.14473936873E-01 -0.24751108130E-01  0.49756742152E-01  0.51100000000E-03 0.  1.
</event>
<event>
 8    1  0.1078274E+005  0.1043930E+01  0.7957747E-01            NaN
         13   -1    0    0    0    0  0.00000000000E+00  0.00000000000E+00  0.74505805969E-08  0.10566000000E+00  0.10566000000E+00 0.  1.
     999900   -1    0    0    0    0 -0.00000000000E+00 -0.00000000000E+00 -0.74505805969E-08  0.93827000000E+00  0.93827000000E+00 0. -1.
     999902    2    1    2    0    0  0.14482240713E-01  0.18086565696E-01  0.48454575851E-02  0.10202585485E+01  0.10199839059E+01 0.  0.
     999903    2    3    3    0    0 -0.35804728239E-01 -0.71571317717E-01 -0.98296252146E-01  0.12829132516E+00  0.19800980832E-01 0.  0.
         14    1    1    2    0    0 -0.14482240713E-01 -0.18086565696E-01 -0.48454575851E-02  0.23671451454E-01  0.00000000000E+00 0. -1.
     999901    1    3    3    0    0  0.50286968952E-01  0.89657883413E-01  0.10314170973E+00  0.89196722338E+00  0.88000000000E+00 0. -1.
        -11    1    4    4    0    0 -0.22458816495E-01 -0.56952766177E-01 -0.63179986956E-01  0.87977200946E-01  0.51100000000E-03 0. -1.
         11    1    4    4    0    0 -0.13345911744E-01 -0.14618551540E-01 -0.35116265190E-01  0.40314124216E-01  0.51100000000E-03 0.  1.
</event>
<event>
 8    1  0.1078274E+005  0.1043930E+01  0.7957747E-01            NaN
         13   -1    0    0    0    0  0.00000000000E+00  0.00000000000E+00  0.74505805969E-08  0.10566000000E+00  0.10566000000E+00 0. -1.
     999900   -1    0    0    0    0 -0.00000000000E+00 -0.00000000000E+00 -0.74505805969E-08  0.93827000000E+00  0.93827000000E+00 0. -1.
     999902    2    1    2    0    0 -0.18586452711E-01  0.14423819373E-01 -0.35036823687E-02  0.10201438994E+01  0.10198665584E+01 0.  0.
     999903    2    3    3    0    0 -0.31301430705E-01  0.97970847598E-01 -0.81459547170E-01  0.13266494563E+00  0.19653585725E-01 0.  0.
         14    1    1    2    0    0  0.18586452711E-01 -0.14423819373E-01  0.35036823687E-02  0.23786100560E-01  0.00000000000E+00 0. -1.
     999901    1    3    3    0    0  0.12714977993E-01 -0.83547028225E-01  0.77955864801E-01  0.88747895381E+00  0.88000000000E+00 0.  1.
        -11    1    4    4    0    0 -0.16396121355E-01  0.64419382110E-01 -0.62929112879E-01  0.91537008667E-01  0.51100000000E-03 0. -1.
         11    1    4    4    0    0 -0.14905309350E-01  0.33551465488E-01 -0.18530434290E-01  0.41127936968E-01  0.51100000000E-03 0.  1.
</event>
<event>
 8    1  0.1078274E+005  0.1043930E+01  0.7957747E-01            NaN
         13   -1    0    0    0    0  0.00000000000E+00  0.00000000000E+00  0.74505805969E-08  0.10566000000E+00  0.10566000000E+00 0.  1.
     999900   -1    0    0    0    0 -0.00000000000E+00 -0.00000000000E+00 -0.74505805969E-08  0.93827000000E+00  0.93827000000E+00 0. -1.
     999902    2    1    2    0    0  0.22371411036E-01  0.40120750378E-02 -0.65355818375E-02  0.10202806743E+01  0.10200065508E+01 0.  0.
     999903    2    3    3    0    0 -0.76350189826E-01 -0.24239193741E-01 -0.99636166966E-01  0.12943174901E+00  0.20206976160E-01 0.  0.
         14    1    1    2    0    0 -0.22371411036E-01 -0.40120750378E-02  0.65355818375E-02  0.23649325737E-01  0.00000000000E+00 0.  1.
     999901    1    3    3    0    0  0.98721600863E-01  0.28251268779E-01  0.93100585129E-01  0.89084892525E+00  0.88000000000E+00 0.  1.
        -11    1    4    4    0    0 -0.28339607254E-01 -0.13227792026E-01 -0.53319346275E-01  0.61816839368E-01  0.51100000000E-03 0. -1.
         11    1    4    4    0    0 -0.48010582572E-01 -0.11011401716E-01 -0.46316820691E-01  0.67614909647E-01  0.51100000000E-03 0.  1.
</event>
<event>
 8    1  0.1078274E+005  0.1043930E+01  0.7957747E-01            NaN
         13   -1    0    0    0    0  0.00000000000E+00  0.00000000000E+00  0.74505805969E-08  0.10566000000E+00  0.10566000000E+00 0. -1.
     999900   -1    0    0    0    0 -0.00000000000E+00 -0.00000000000E+00 -0.74505805969E-08  0.93827000000E+00  0.93827000000E+00 0.  1.
     999902    2    1    2    0    0 -0.12036028628E-01  0.50913167687E-02 -0.22365352619E-01  0.10180264001E+01  0.10176967892E+01 0.  0.
     999903    2    3    3    0    0 -0.63519718781E-01  0.23983679541E-01 -0.11150030235E+00  0.13182522032E+00  0.18319381256E-01 0.  0.
         14    1    1    2    0    0  0.12036028628E-01 -0.50913167687E-02  0.22365352619E-01  0.25903599930E-01  0.00000000000E+00 0. -1.
     999901    1    3    3    0    0  0.51483690153E-01 -0.18892362772E-01  0.89134949734E-01  0.88620117975E+00  0.88000000000E+00 0. -1.
        -11    1    4    4    0    0 -0.97974141193E-02  0.81536710029E-02 -0.11337533802E-01  0.17066706418E-01  0.51100000000E-03 0. -1.
         11    1    4    4    0    0 -0.53722304662E-01  0.15830008538E-01 -0.10016276855E+00  0.11475851390E+00  0.51100000000E-03 0.  1.
</event>
<event>
 8    1  0.1078274E+005  0.1043930E+01  0.7957747E-01            NaN
         13   -1    0    0    0    0  0.00000000000E+00  0.00000000000E+00  0.74505805969E-08  0.10566000000E+00  0.10566000000E+00 0. -1.
     999900   -1    0    0    0    0 -0.00000000000E+00 -0.00000000000E+00 -0.74505805969E-08  0.93827000000E+00  0.93827000000E+00 0.  1.
     999902    2    1    2    0    0 -0.13724946482E-01 -0.82922078679E-02 -0.17977229454E-01  0.10198402585E+01  0.10195557058E+01 0.  0.
     999903    2    3    3    0    0 -0.27829830628E-01  0.24678468905E-01  0.12153455709E+00  0.12812867290E+00  0.16210550616E-01 0.  0.
         14    1    1    2    0    0  0.13724946482E-01  0.82922078679E-02  0.17977229454E-01  0.24089741512E-01  0.00000000000E+00 0. -1.
     999901    1    3    3    0    0  0.14104884145E-01 -0.32970676773E-01 -0.13951178655E+00  0.89171158559E+00  0.88000000000E+00 0.  1.
        -11    1    4    4    0    0 -0.12810703004E-02 -0.23170103466E-02  0.73327129344E-02  0.78127765896E-02  0.51100000000E-03 0. -1.
         11    1    4    4    0    0 -0.26548760327E-01  0.26995479252E-01  0.11420184416E+00  0.12031589631E+00  0.51100000000E-03 0.  1.
</event>
<event>
 8    1  0.1078274E+005  0.1043930E+01  0.7957747E-01            NaN
         13   -1    0    0    0    0  0.00000000000E+00  0.00000000000E+00  0.74505805969E-08  0.10566000000E+00  0.10566000000E+00 0. -1.
     999900   -1    0    0    0    0 -0.00000000000E+00 -0.00000000000E+00 -0.74505805969E-08  0.93827000000E+00  0.93827000000E+00 0.  1.
     999902    2    1    2    0    0 -0.82944301233E-02  0.17003804110E-01  0.13380799073E-01  0.10207573284E+01  0.10204942679E+01 0.  0.
     999903    2    3    3    0    0 -0.60415947981E-01  0.10083009347E-01  0.11673999942E+00  0.13314949026E+00  0.18676333836E-01 0.  0.
         14    1    1    2    0    0  0.82944301233E-02 -0.17003804110E-01 -0.13380799073E-01  0.23172671601E-01  0.00000000000E+00 0.  1.
     999901    1    3    3    0    0  0.52121517857E-01  0.69207947632E-02 -0.10335920034E+00  0.88760783814E+00  0.88000000000E+00 0.  1.
        -11    1    4    4    0    0 -0.24794250096E-01 -0.37909944780E-02  0.56242226115E-01  0.61583890721E-01  0.51100000000E-03 0. -1.
         11    1    4    4    0    0 -0.35621697885E-01  0.13874003825E-01  0.60497773302E-01  0.71565599542E-01  0.51100000000E-03 0.  1.
</event>
<event>
 8    1  0.1078274E+005  0.1043930E+01  0.7957747E-01            NaN
         13   -1    0    0    0    0  0.00000000000E+00  0.00000000000E+00  0.74505805969E-08  0.10566000000E+00  0.10566000000E+00 0. -1.
     999900   -1    0    0    0    0 -0.00000000000E+00 -0.00000000000E+00 -0.74505805969E-08  0.93827000000E+00  0.93827000000E+00 0. -1.
     999902    2    1    2    0    0  0.17719279494E-01  0.13977553522E-01 -0.72239436525E-02  0.10202333709E+01  0.10199581368E+01 0.  0.
     999903    2    3    3    0    0  0.12308684929E+00  0.45460098508E-01  0.10855612160E-01  0.13320442790E+00  0.20213418094E-01 0.  0.
         14    1    1    2    0    0 -0.17719279494E-01 -0.13977553522E-01  0.72239436525E-02  0.23696629089E-01  0.00000000000E+00 0. -1.
     999901    1    3    3    0    0 -0.10536756980E+00 -0.31482544986E-01 -0.18079555812E-01  0.88702894301E+00  0.88000000000E+00 0.  1.
        -11    1    4    4    0    0  0.10616336608E+00  0.41971290502E-01  0.29565155718E-02  0.11419829959E+00  0.51100000000E-03 0. -1.
         11    1    4    4    0    0  0.16923483213E-01  0.34888080060E-02  0.78990965882E-02  0.19006128308E-01  0.51100000000E-03 0.  1.
</event>
<event>
 8    1  0.1078274E+005  0.1043930E+01  0.7957747E-01            NaN
         13   -1    0    0    0    0  0.00000000000E+00  0.00000000000E+00  0.74505805969E-08  0.10566000000E+00  0.10566000000E+00 0.  1.
     999900   -1    0    0    0    0 -0.00000000000E+00 -0.00000000000E+00 -0.74505805969E-08  0.93827000000E+00  0.93827000000E+00 0.  1.
     999902    2    1    2    0    0 -0.17427958877E-01  0.51027245861E-02 -0.14239241243E-01  0.10208534418E+01  0.10205925838E+01 0.  0.
     999903    2    3    3    0    0  0.15157734735E-01  0.11886742570E+00 -0.51867112241E-01  0.13213521233E+00  0.20255744658E-01 0.  0.
         14    1    1    2    0    0  0.17427958877E-01 -0.51027245861E-02  0.14239241243E-01  0.23076558236E-01  0.00000000000E+00 0.  1.
     999901    1    3    3    0    0 -0.32585693612E-01 -0.11376470111E+00  0.37627870999E-01  0.88871822943E+00  0.88000000000E+00 0. -1.
        -11    1    4    4    0    0  0.67227399569E-02  0.77007252149E-01 -0.43220535467E-01  0.88564032897E-01  0.51100000000E-03 0. -1.
         11    1    4    4    0    0  0.84349947776E-02  0.41860173549E-01 -0.86465767746E-02  0.43571179436E-01  0.51100000000E-03 0.  1.
</event>
<event>
 8    1  0.1078274E+005  0.1043930E+01  0.7957747E-01            NaN
         13   -1    0    0    0    0  0.00000000000E+00  0.00000000000E+00  0.74505805969E-08  0.10566000000E+00  0.10566000000E+00 0.  1.
     999900   -1    0    0    0    0 -0.00000000000E+00 -0.00000000000E+00 -0.74505805969E-08  0.93827000000E+00  0.93827000000E+00 0.  1.
     999902    2    1    2    0    0  0.27597022445E-02  0.21993600485E-01  0.66350450295E-02  0.10207921902E+01  0.10205299297E+01 0.  0.
     999903    2    3    3    0    0  0.46434789629E-02 -0.12590951419E+00  0.13209208426E-01  0.12842337658E+00  0.21054994732E-01 0.  0.
         14    1    1    2    0    0 -0.27597022445E-02 -0.21993600485E-01 -0.66350450295E-02  0.23137809777E-01  0.00000000000E+00 0. -1.
     999901    1    3    3    0    0 -0.18837767184E-02  0.14790311468E+00 -0.65741633965E-02  0.89236881365E+00  0.88000000000E+00 0. -1.
        -11    1    4    4    0    0 -0.53172664407E-02 -0.75026512487E-01  0.14285022006E-01  0.76560916093E-01  0.51100000000E-03 0.  1.
         11    1    4    4    0    0  0.99607454036E-02 -0.50883001704E-01 -0.10758135799E-02  0.51862460482E-01  0.51100000000E-03 0. -1.
</event>
<event>
 8    1  0.1078274E+005  0.1043930E+01  0.7957747E-01            NaN
         13   -1    0    0    0    0  0.00000000000E+00  0.00000000000E+00  0.74505805969E-08  0.10566000000E+00  0.10566000000E+00 0.  1.
     999900   -1    0    0    0    0 -0.00000000000E+00 -0.00000000000E+00 -0.74505805969E-08  0.93827000000E+00  0.93827000000E+00 0. -1.
     999902    2    1    2    0    0 -0.10692611260E-01  0.12253943393E-01  0.16216888504E-01  0.10209630991E+01  0.10207047424E+01 0.  0.
     999903    2    3    3    0    0  0.59041011706E-01 -0.92270407031E-01 -0.63942602877E-01  0.12843093606E+00  0.20153902783E-01 0.  0.
         14    1    1    2    0    0  0.10692611260E-01 -0.12253943393E-01 -0.16216888504E-01  0.22966900900E-01  0.00000000000E+00 0.  1.
     999901    1    3    3    0    0 -0.69733622966E-01  0.10452435042E+00  0.80159491381E-01  0.89253216304E+00  0.88000000000E+00 0.  1.
        -11    1    4    4    0    0  0.43563531015E-01 -0.77705204105E-01 -0.58194033046E-01  0.10640811333E+00  0.51100000000E-03 0.  1.
         11    1    4    4    0    0  0.15477480692E-01 -0.14565202926E-01 -0.57485698317E-02  0.22022822729E-01  0.51100000000E-03 0. -1.
</event>
<event>
 8    1  0.1078274E+005  0.1043930E+01  0.7957747E-01            NaN
         13   -1    0    0    0    0  0.00000000000E+00  0.00000000000E+00  0.74505805969E-08  0.10566000000E+00  0.10566000000E+00 0.  1.
     999900   -1    0    0    0    0 -0.00000000000E+00 -0.00000000000E+00 -0.74505805969E-08  0.93827000000E+00  0.93827000000E+00 0.  1.
     999902    2    1    2    0    0  0.17416696788E-03  0.20128081127E-02 -0.23328143583E-01  0.10205145347E+01  0.10202458682E+01 0.  0.
     999903    2    3    3    0    0  0.50256610335E-01 -0.89636703562E-01 -0.81200804360E-01  0.13245083826E+00  0.19727858976E-01 0.  0.
         14    1    1    2    0    0 -0.17416696788E-03 -0.20128081127E-02  0.23328143583E-01  0.23415465267E-01  0.00000000000E+00 0.  1.
     999901    1    3    3    0    0 -0.50082443367E-01  0.91649511675E-01  0.57872660777E-01  0.88806369647E+00  0.88000000000E+00 0. -1.
        -11    1    4    4    0    0  0.81000278969E-02 -0.16016580194E-01 -0.24637838421E-01  0.30486480546E-01  0.51100000000E-03 0.  1.
         11    1    4    4    0    0  0.42156582438E-01 -0.73620123368E-01 -0.56562965940E-01  0.10196435772E+00  0.51100000000E-03 0. -1.
</event>
<event>
 8    1  0.1078274E+005  0.1043930E+01  0.7957747E-01            NaN
         13   -1    0    0    0    0  0.00000000000E+00  0.00000000000E+00  0.74505805969E-08  0.10566000000E+00  0.10566000000E+00 0.  1.
     999900   -1    0    0    0    0 -0.00000000000E+00 -0.00000000000E+00 -0.74505805969E-08  0.93827000000E+00  0.93827000000E+00 0. -1.
     999902    2    1    2    0    0  0.54934326170E-02  0.13765294014E-01  0.19396009453E-01  0.10195196271E+01  0.10192273563E+01 0.  0.
     999903    2    3    3    0    0  0.65763957164E-01 -0.10556454703E+00 -0.24452413537E-01  0.12834353269E+00  0.20133807490E-01 0.  0.
         14    1    1    2    0    0 -0.54934326170E-02 -0.13765294014E-01 -0.19396009453E-01  0.24410372875E-01  0.00000000000E+00 0. -1.
     999901    1    3    3    0    0 -0.60270524547E-01  0.11932984104E+00  0.43848422989E-01  0.89117609443E+00  0.88000000000E+00 0.  1.
        -11    1    4    4    0    0  0.34226014057E-01 -0.47050353220E-01 -0.20724036230E-01  0.61764897596E-01  0.51100000000E-03 0.  1.
         11    1    4    4    0    0  0.31537943108E-01 -0.58514193810E-01 -0.37283773069E-02  0.66578635095E-01  0.51100000000E-03 0. -1.
</event>
<event>
 8    1  0.1078274E+005  0.1043930E+01  0.7957747E-01            NaN
         13   -1    0    0    0    0  0.00000000000E+00  0.00000000000E+00  0.74505805969E-08  0.10566000000E+00  0.10566000000E+00 0.  1.
     999900   -1    0    0    0    0 -0.00000000000E+00 -0.00000000000E+00 -0.74505805969E-08  0.93827000000E+00  0.93827000000E+00 0.  1.
     999902    2    1    2    0    0 -0.78401541656E-04  0.21378151592E-01 -0.97344193594E-02  0.10204397801E+01  0.10201693753E+01 0.  0.
     999903    2    3    3    0    0  0.11345383170E+00 -0.59202602137E-01 -0.42947298615E-02  0.12947826795E+00  0.19221267893E-01 0.  0.
         14    1    1    2    0    0  0.78401541656E-04 -0.21378151592E-01  0.97344193594E-02  0.23490219934E-01  0.00000000000E+00 0.  1.
     999901    1    3    3    0    0 -0.11353223324E+00  0.80580753728E-01 -0.54396894979E-02  0.89096151212E+00  0.88000000000E+00 0.  1.
        -11    1    4    4    0    0  0.43206479547E-01 -0.14522760200E-01  0.42724895697E-02  0.45784557733E-01  0.51100000000E-03 0. -1.
         11    1    4    4    0    0  0.70247352150E-01 -0.44679841937E-01 -0.85672194312E-02  0.83693710214E-01  0.51100000000E-03 0.  1.
</event>
<event>
 8    1  0.1078274E+005  0.1043930E+01  0.7957747E-01            NaN
         13   -1    0    0    0    0  0.00000000000E+00  0.00000000000E+00  0.74505805969E-08  0.10566000000E+00  0.10566000000E+00 0.  1.
     999900   -1    0    0    0    0 -0.00000000000E+00 -0.00000000000E+00 -0.74505805969E-08  0.93827000000E+00  0.93827000000E+00 0. -1.
     999902    2    1    2    0    0  0.22082778613E-02 -0.21563217152E-01 -0.82413725472E-02  0.10207401521E+01  0.10204766970E+01 0.  0.
     999903    2    3    3    0    0 -0.12860834072E+00 -0.15113342935E-01 -0.60045706074E-02  0.13104380396E+00  0.19180856397E-01 0.  0.
         14    1    1    2    0    0 -0.22082778613E-02  0.21563217152E-01  0.82413725472E-02  0.23189847919E-01  0.00000000000E+00 0.  1.
     999901    1    3    3    0    0  0.13081661858E+00 -0.64498742165E-02 -0.22368019398E-02  0.88969634812E+00  0.88000000000E+00 0.  1.
        -11    1    4    4    0    0 -0.73507585789E-01 -0.20463254892E-02 -0.10272869833E-01  0.74251906320E-01  0.51100000000E-03 0.  1.
         11    1    4    4    0    0 -0.55100754927E-01 -0.13067017446E-01  0.42682992255E-02  0.56791897642E-01  0.51100000000E-03 0. -1.
</event>
<event>
 8    1  0.1078274E+005  0.1043930E+01  0.7957747E-01            NaN
         13   -1    0    0    0    0  0.00000000000E+00  0.00000000000E+00  0.74505805969E-08  0.10566000000E+00  0.10566000000E+00 0. -1.
     999900   -1    0    0    0    0 -0.00000000000E+00 -0.00000000000E+00 -0.74505805969E-08  0.93827000000E+00  0.93827000000E+00 0.  1.
     999902    2    1    2    0    0 -0.85298955398E-03 -0.15816935276E-01 -0.97965003388E-02  0.10253054342E+01  0.10251362636E+01 0.  0.
     999903    2    3    3    0    0 -0.59077112280E-01 -0.12204215714E+00  0.43604733937E-03  0.13694821366E+00  0.19241355800E-01 0.  0.
         14    1    1    2    0    0  0.85298955398E-03  0.15816935276E-01  0.97965003388E-02  0.18624565810E-01  0.00000000000E+00 0.  1.
     999901    1    3    3    0    0  0.58224122726E-01  0.10622522187E+00 -0.10232547678E-01  0.88835722053E+00  0.88000000000E+00 0. -1.
        -11    1    4    4    0    0 -0.26285266560E-01 -0.47459140088E-01 -0.87550828767E-02  0.54956326417E-01  0.51100000000E-03 0.  1.
         11    1    4    4    0    0 -0.32791845720E-01 -0.74583017056E-01  0.91911302160E-02  0.81991887248E-01  0.51100000000E-03 0. -1.
</event>
<event>
 8    1  0.1078274E+005  0.1043930E+01  0.7957747E-01            NaN
         13   -1    0    0    0    0  0.00000000000E+00  0.00000000000E+00  0.74505805969E-08  0.10566000000E+00  0.10566000000E+00 0.  1.
     999900   -1    0    0    0    0 -0.00000000000E+00 -0.00000000000E+00 -0.74505805969E-08  0.93827000000E+00  0.93827000000E+00 0.  1.
     999902    2    1    2    0    0 -0.20728608509E-01 -0.11365281661E-01  0.84947300703E-03  0.10202748432E+01  0.10200005830E+01 0.  0.
     999903    2    3    3    0    0  0.10397673129E+00  0.79322097750E-02 -0.72134541690E-01  0.12828242097E+00  0.19465529099E-01 0.  0.
         14    1    1    2    0    0  0.20728608509E-01  0.11365281661E-01 -0.84947300703E-03  0.23655156782E-01  0.00000000000E+00 0.  1.
     999901    1    3    3    0    0 -0.12470533980E+00 -0.19297491436E-01  0.72984014697E-01  0.89199242225E+00  0.88000000000E+00 0.  1.
        -11    1    4    4    0    0  0.42072293978E-01  0.43930879930E-02 -0.18019905298E-01  0.45982118813E-01  0.51100000000E-03 0.  1.
         11    1    4    4    0    0  0.61904437312E-01  0.35391217820E-02 -0.54114636392E-01  0.82300302155E-01  0.51100000000E-03 0. -1.
</event>
<event>
 8    1  0.1078274E+005  0.1043930E+01  0.7957747E-01            NaN
         13   -1    0    0    0    0  0.00000000000E+00  0.00000000000E+00  0.74505805969E-08  0.10566000000E+00  0.10566000000E+00 0. -1.
     999900   -1    0    0    0    0 -0.00000000000E+00 -0.00000000000E+00 -0.74505805969E-08  0.93827000000E+00  0.93827000000E+00 0.  1.
     999902    2    1    2    0    0  0.22116888516E-01 -0.11997162379E-01  0.22733436610E-02  0.10186662561E+01  0.10183529273E+01 0.  0.
     999903    2    3    3    0    0  0.19953935995E-01 -0.11449682820E+00  0.56610050981E-01  0.13104959472E+00  0.21485231561E-01 0.  0.
         14    1    1    2    0    0 -0.22116888516E-01  0.11997162379E-01 -0.22733436610E-02  0.25263743867E-01  0.00000000000E+00 0. -1.
     999901    1    3    3    0    0  0.21629525204E-02  0.10249966582E+00 -0.54336707320E-01  0.88761666141E+00  0.88000000000E+00 0.  1.
        -11    1    4    4    0    0  0.19231379582E-01 -0.98066556281E-01  0.39924100193E-01  0.10761547435E+00  0.51100000000E-03 0. -1.
         11    1    4    4    0    0  0.72255641360E-03 -0.16430271916E-01  0.16685950788E-01  0.23434120374E-01  0.51100000000E-03 0.  1.
</event>
<event>
 8    1  0.1078274E+005  0.1043930E+01  0.7957747E-01            NaN
         13   -1    0    0    0    0  0.00000000000E+00  0.00000000000E+00  0.74505805969E-08  0.10566000000E+00  0.10566000000E+00 0. -1.
     999900   -1    0    0    0    0 -0.00000000000E+00 -0.00000000000E+00 -0.74505805969E-08  0.93827000000E+00  0.93827000000E+00 0.  1.
     999902    2    1    2    0    0 -0.23457504745E-01  0.20179314575E-02  0.56692849938E-03  0.10203790343E+01  0.10201072128E+01 0.  0.
     999903    2    3    3    0    0 -0.26750272222E-01 -0.57110111355E-02 -0.12674429169E+00  0.13117786156E+00  0.19882735607E-01 0.  0.
         14    1    1    2    0    0  0.23457504745E-01 -0.20179314575E-02 -0.56692849938E-03  0.23550965674E-01  0.00000000000E+00 0.  1.
     999901    1    3    3    0    0  0.32927674763E-02  0.77289425930E-02  0.12731122019E+00  0.88920117277E+00  0.88000000000E+00 0. -1.
        -11    1    4    4    0    0 -0.13467792353E-01  0.29853799370E-02 -0.91291579807E-01  0.92329343054E-01  0.51100000000E-03 0.  1.
         11    1    4    4    0    0 -0.13282479869E-01 -0.86963910725E-02 -0.35452711879E-01  0.38848518502E-01  0.51100000000E-03 0. -1.
</event>
<event>
 8    1  0.1078274E+005  0.1043930E+01  0.7957747E-01            NaN
         13   -1    0    0    0    0  0.00000000000E+00  0.00000000000E+00  0.74505805969E-08  0.10566000000E+00  0.10566000000E+00 0.  1.
     999900   -1    0    0    0    0 -0.00000000000E+00 -0.00000000000E+00 -0.74505805969E-08  0.93827000000E+00  0.93827000000E+00 0.  1.
     999902    2    1    2    0    0 -0.21881500925E-01 -0.49455794018E-02  0.26650160085E-02  0.10213388259E+01  0.10210889462E+01 0.  0.
     999903    2    3    3    0    0 -0.36217417577E-01  0.11663234431E+00 -0.44384529635E-01  0.13161956128E+00  0.20950354737E-01 0.  0.
         14    1    1    2    0    0  0.21881500925E-01  0.49455794018E-02 -0.26650160085E-02  0.22591174133E-01  0.00000000000E+00 0.  1.
     999901    1    3    3    0    0  0.14335916652E-01 -0.12157792371E+00  0.47049545643E-01  0.88971926459E+00  0.88000000000E+00 0. -1.
        -11    1    4    4    0    0 -0.34978200876E-01  0.84018881498E-01 -0.36373310029E-01  0.98009824957E-01  0.51100000000E-03 0.  1.
         11    1    4    4    0    0 -0.12392167008E-02  0.32613462815E-01 -0.80112196058E-02  0.33609736318E-01  0.51100000000E-03 0. -1.
</event>
<event>
 8    1  0.1078274E+005  0.1043930E+01  0.7957747E-01            NaN
         13   -1    0    0    0    0  0.00000000000E+00  0.00000000000E+00  0.74505805969E-08  0.10566000000E+00  0.10566000000E+00 0. -1.
     999900   -1    0    0    0    0 -0.00000000000E+00 -0.00000000000E+00 -0.74505805969E-08  0.93827000000E+00  0.93827000000E+00 0.  1.
     999902    2    1    2    0    0 -0.42768632302E-02 -0.24867711890E-02  0.24536086387E-01  0.10189001154E+01  0.10185926320E+01 0.  0.
     999903    2    3    3    0    0  0.77746430455E-01  0.85968952404E-01 -0.49275343635E-01  0.12760871354E+00  0.20512339119E-01 0.  0.
         14    1    1    2    0    0  0.42768632302E-02  0.24867711890E-02 -0.24536086387E-01  0.25029884643E-01  0.00000000000E+00 0.  1.
     999901    1    3    3    0    0 -0.82023293685E-01 -0.88455723593E-01  0.73811430022E-01  0.89129140181E+00  0.88000000000E+00 0. -1.
        -11    1    4    4    0    0  0.52999066421E-01  0.67497708185E-01 -0.28675651514E-01  0.90484229358E-01  0.51100000000E-03 0.  1.
         11    1    4    4    0    0  0.24747364034E-01  0.18471244219E-01 -0.20599692121E-01  0.37124484186E-01  0.51100000000E-03 0. -1.
</event>
<event>
 8    1  0.1078274E+005  0.1043930E+01  0.7957747E-01            NaN
         13   -1    0    0    0    0  0.00000000000E+00  0.00000000000E+00  0.74505805969E-08  0.10566000000E+00  0.10566000000E+00 0.  1.
     999900   -1    0    0    0    0 -0.00000000000E+00 -0.00000000000E+00 -0.74505805969E-08  0.93827000000E+00  0.93827000000E+00 0. -1.
     999902    2    1    2    0    0  0.18979620748E-01 -0.19480738712E-02 -0.97598992801E-02  0.10224992597E+01  0.10222746497E+01 0.  0.
     999903    2    3    3    0    0  0.13126447635E+00  0.18547525030E-01  0.13894311311E-01  0.13481267084E+00  0.20175006748E-01 0.  0.
         14    1    1    2    0    0 -0.18979620748E-01  0.19480738712E-02  0.97598992801E-02  0.21430740293E-01  0.00000000000E+00 0.  1.
     999901    1    3    3    0    0 -0.11228485560E+00 -0.20495598901E-01 -0.23654210591E-01  0.88768658886E+00  0.88000000000E+00 0. -1.
        -11    1    4    4    0    0  0.40152941083E-01  0.12697692041E-01 -0.18872955274E-02  0.42158190974E-01  0.51100000000E-03 0. -1.
         11    1    4    4    0    0  0.91111535265E-01  0.58498329888E-02  0.15781606839E-01  0.92654479869E-01  0.51100000000E-03 0.  1.
</event>
<event>
 8    1  0.1078274E+005  0.1043930E+01  0.7957747E-01            NaN
         13   -1    0    0    0    0  0.00000000000E+00  0.00000000000E+00  0.74505805969E-08  0.10566000000E+00  0.10566000000E+00 0. -1.
     999900   -1    0    0    0    0 -0.00000000000E+00 -0.00000000000E+00 -0.74505805969E-08  0.93827000000E+00  0.93827000000E+00 0. -1.
     999902    2    1    2    0    0  0.32044350853E-02 -0.19291829906E-01 -0.12765685059E-01  0.10205760748E+01  0.10203088350E+01 0.  0.
     999903    2    3    3    0    0  0.65714064290E-01 -0.47423538045E-01  0.10047890646E+00  0.13067541507E+00  0.20315591413E-01 0.  0.
         14    1    1    2    0    0 -0.32044350853E-02  0.19291829906E-01  0.12765685059E-01  0.23353925160E-01  0.00000000000E+00 0. -1.
     999901    1    3    3    0    0 -0.62509629204E-01  0.28131708139E-01 -0.11324459152E+00  0.88990065977E+00  0.88000000000E+00 0. -1.
        -11    1    4    4    0    0  0.19033222269E-01 -0.25478066077E-01  0.42241130836E-01  0.52876929339E-01  0.51100000000E-03 0. -1.
         11    1    4    4    0    0  0.46680842021E-01 -0.21945471968E-01  0.58237775625E-01  0.77798485733E-01  0.51100000000E-03 0.  1.
</event>
<event>
 8    1  0.1078274E+005  0.1043930E+01  0.7957747E-01            NaN
         13   -1    0    0    0    0  0.00000000000E+00  0.00000000000E+00  0.74505805969E-08  0.10566000000E+00  0.10566000000E+00 0.  1.
     999900   -1    0    0    0    0 -0.00000000000E+00 -0.00000000000E+00 -0.74505805969E-08  0.93827000000E+00  0.93827000000E+00 0.  1.
     999902    2    1    2    0    0  0.28310956578E-02  0.15021350508E-01 -0.18275622313E-01  0.10201045001E+01  0.10198262287E+01 0.  0.
     999903    2    3    3    0    0  0.39743913349E-01 -0.34779474237E-01 -0.11949275943E+00  0.13213626470E+00  0.19806120688E-01 0.  0.
         14    1    1    2    0    0 -0.28310956578E-02 -0.15021350508E-01  0.18275622313E-01  0.23825499883E-01  0.00000000000E+00 0.  1.
     999901    1    3    3    0    0 -0.36912817692E-01  0.49800824745E-01  0.10121713712E+00  0.88796823541E+00  0.88000000000E+00 0. -1.
        -11    1    4    4    0    0  0.27236415347E-01 -0.24913406198E-01 -0.10198264350E+00  0.10845838292E+00  0.51100000000E-03 0.  1.
         11    1    4    4    0    0  0.12507498003E-01 -0.98660680384E-02 -0.17510115932E-01  0.23677881784E-01  0.51100000000E-03 0. -1.
</event>
<event>
 8    1  0.1078274E+005  0.1043930E+01  0.7957747E-01            NaN
         13   -1    0    0    0    0  0.00000000000E+00  0.00000000000E+00  0.74505805969E-08  0.10566000000E+00  0.10566000000E+00 0. -1.
     999900   -1    0    0    0    0 -0.00000000000E+00 -0.00000000000E+00 -0.74505805969E-08  0.93827000000E+00  0.93827000000E+00 0.  1.
     999902    2    1    2    0    0  0.18180367503E-01  0.85298029776E-02 -0.12582960427E-01  0.10202315993E+01  0.10199563236E+01 0.  0.
     999903    2    3    3    0    0  0.50910599842E-01  0.11286861545E+00  0.38874730785E-01  0.13197164307E+00  0.23959473136E-01 0.  0.
         14    1    1    2    0    0 -0.18180367503E-01 -0.85298029776E-02  0.12582960427E-01  0.23698400673E-01  0.00000000000E+00 0. -1.
     999901    1    3    3    0    0 -0.32730232339E-01 -0.10433881247E+00 -0.51457691211E-01  0.88825995625E+00  0.88000000000E+00 0.  1.
        -11    1    4    4    0    0  0.33175567628E-01  0.66349934058E-01  0.11243415839E-01  0.75030710763E-01  0.51100000000E-03 0. -1.
         11    1    4    4    0    0  0.17735032214E-01  0.46518681389E-01  0.27631314946E-01  0.56940932311E-01  0.51100000000E-03 0.  1.
</event>
<event>
 8    1  0.1078274E+005  0.1043930E+01  0.7957747E-01            NaN
         13   -1    0    0    0    0  0.00000000000E+00  0.00000000000E+00  0.74505805969E-08  0.10566000000E+00  0.10566000000E+00 0. -1.
     999900   -1    0    0    0    0 -0.00000000000E+00 -0.00000000000E+00 -0.74505805969E-08  0.93827000000E+00  0.93827000000E+00 0.  1.
     999902    2    1    2    0    0  0.13314018660E-01  0.19344907503E-01  0.62526973153E-02  0.10196280502E+01  0.10193384011E+01 0.  0.
     999903    2    3    3    0    0 -0.64208094892E-01  0.11254724643E+00  0.62945262090E-02  0.13131709351E+00  0.20371447157E-01 0.  0.
         14    1    1    2    0    0 -0.13314018660E-01 -0.19344907503E-01 -0.62526973153E-02  0.24301949775E-01  0.00000000000E+00 0.  1.
     999901    1    3    3    0    0  0.77522113552E-01 -0.93202338925E-01 -0.41828893689E-04  0.88831095672E+00  0.88000000000E+00 0.  1.
        -11    1    4    4    0    0 -0.56125252244E-01  0.81737180401E-01  0.20068491291E-02  0.99173076810E-01  0.51100000000E-03 0. -1.
         11    1    4    4    0    0 -0.80828426477E-02  0.30810066027E-01  0.42876770798E-02  0.32144016700E-01  0.51100000000E-03 0.  1.
</event>
<event>
 8    1  0.1078274E+005  0.1043930E+01  0.7957747E-01            NaN
         13   -1    0    0    0    0  0.00000000000E+00  0.00000000000E+00  0.74505805969E-08  0.10566000000E+00  0.10566000000E+00 0.  1.
     999900   -1    0    0    0    0 -0.00000000000E+00 -0.00000000000E+00 -0.74505805969E-08  0.93827000000E+00  0.93827000000E+00 0. -1.
     999902    2    1    2    0    0  0.19068306348E-01  0.10015312284E-01  0.10805158586E-01  0.10198331488E+01  0.10195484261E+01 0.  0.
     999903    2    3    3    0    0  0.95154550536E-01 -0.75826329654E-01 -0.41841173168E-01  0.13082834547E+00  0.23692856509E-01 0.  0.
         14    1    1    2    0    0 -0.19068306348E-01 -0.10015312284E-01 -0.10805158586E-01  0.24096851230E-01  0.00000000000E+00 0.  1.
     999901    1    3    3    0    0 -0.76086244188E-01  0.85841641938E-01  0.52646331754E-01  0.88900480330E+00  0.88000000000E+00 0. -1.
        -11    1    4    4    0    0  0.41209937464E-01 -0.20989317941E-01 -0.86658736006E-02  0.47054956165E-01  0.51100000000E-03 0. -1.
         11    1    4    4    0    0  0.53944613072E-01 -0.54837011713E-01 -0.33175299567E-01  0.83773389304E-01  0.51100000000E-03 0.  1.
</event>
<event>
 8    1  0.1078274E+005  0.1043930E+01  0.7957747E-01            NaN
         13   -1    0    0    0    0  0.00000000000E+00  0.00000000000E+00  0.74505805969E-08  0.10566000000E+00  0.10566000000E+00 0. -1.
     999900   -1    0    0    0    0 -0.00000000000E+00 -0.00000000000E+00 -0.74505805969E-08  0.93827000000E+00  0.93827000000E+00 0.  1.
     999902    2    1    2    0    0  0.99951725956E-02 -0.43245391090E-02 -0.21034336061E-01  0.10202435396E+01  0.10199685444E+01 0.  0.
     999903    2    3    3    0    0  0.99091795050E-01 -0.84780305562E-01 -0.21640538945E-02  0.13189258076E+00  0.19598103807E-01 0.  0.
         14    1    1    2    0    0 -0.99951725956E-02  0.43245391090E-02  0.21034336061E-01  0.23686460420E-01  0.00000000000E+00 0. -1.
     999901    1    3    3    0    0 -0.89096622454E-01  0.80455766453E-01 -0.18870282166E-01  0.88835095882E+00  0.88000000000E+00 0. -1.
        -11    1    4    4    0    0  0.61707174584E-01 -0.45908031766E-01 -0.93597240289E-02  0.77480244777E-01  0.51100000000E-03 0. -1.
         11    1    4    4    0    0  0.37384620466E-01 -0.38872273796E-01  0.71956701344E-02  0.54412335983E-01  0.51100000000E-03 0.  1.
</event>
<event>
 8    1  0.1078274E+005  0.1043930E+01  0.7957747E-01            NaN
         13   -1    0    0    0    0  0.00000000000E+00  0.00000000000E+00  0.74505805969E-08  0.10566000000E+00  0.10566000000E+00 0.  1.
     999900   -1    0    0    0    0 -0.00000000000E+00 -0.00000000000E+00 -0.74505805969E-08  0.93827000000E+00  0.93827000000E+00 0. -1.
     999902    2    1    2    0    0 -0.22363643809E-01 -0.76392485561E-02 -0.37446337660E-02  0.10200027568E+01  0.10197220754E+01 0.  0.
     999903    2    3    3    0    0 -0.27819066371E-02 -0.75176774666E-01  0.10480710987E+00  0.13054885534E+00  0.19979662103E-01 0.  0.
         14    1    1    2    0    0  0.22363643809E-01  0.76392485561E-02  0.37446337660E-02  0.23927243154E-01  0.00000000000E+00 0.  1.
     999901    1    3    3    0    0 -0.19581737172E-01  0.67537526110E-01 -0.10855174363E+00  0.88945390151E+00  0.88000000000E+00 0. -1.
        -11    1    4    4    0    0 -0.78145699273E-02 -0.58482697371E-01  0.90261392195E-01  0.10783632707E+00  0.51100000000E-03 0. -1.
         11    1    4    4    0    0  0.50326632901E-02 -0.16694077296E-01  0.14545717671E-01  0.22712528263E-01  0.51100000000E-03 0.  1.
</event>
<event>
 8    1  0.1078274E+005  0.1043930E+01  0.7957747E-01            NaN
         13   -1    0    0    0    0  0.00000000000E+00  0.00000000000E+00  0.74505805969E-08  0.10566000000E+00  0.10566000000E+00 0. -1.
     999900   -1    0    0    0    0 -0.00000000000E+00 -0.00000000000E+00 -0.74505805969E-08  0.93827000000E+00  0.93827000000E+00 0.  1.
     999902    2    1    2    0    0  0.10581520801E-01 -0.98522441154E-02  0.21572413447E-01  0.10179607043E+01  0.10176293978E+01 0.  0.
     999903    2    3    3    0    0  0.68747568509E-01  0.21270986462E-01 -0.10223883773E+00  0.12684838226E+00  0.21425431204E-01 0.  0.
         14    1    1    2    0    0 -0.10581520801E-01  0.98522441154E-02 -0.21572413447E-01  0.25969295687E-01  0.00000000000E+00 0.  1.
     999901    1    3    3    0    0 -0.58166047708E-01 -0.31123230577E-01  0.12381125118E+00  0.89111232205E+00  0.88000000000E+00 0. -1.
        -11    1    4    4    0    0  0.39348167068E-01  0.13166983652E-02 -0.58060767280E-01  0.70152161509E-01  0.51100000000E-03 0. -1.
         11    1    4    4    0    0  0.29399401441E-01  0.19954288096E-01 -0.44178070448E-01  0.56696220756E-01  0.51100000000E-03 0.  1.
</event>
<event>
 8    1  0.1078274E+005  0.1043930E+01  0.7957747E-01            NaN
         13   -1    0    0    0    0  0.00000000000E+00  0.00000000000E+00  0.74505805969E-08  0.10566000000E+00  0.10566000000E+00 0. -1.
     999900   -1    0    0    0    0 -0.00000000000E+00 -0.00000000000E+00 -0.74505805969E-08  0.93827000000E+00  0.93827000000E+00 0. -1.
     999902    2    1    2    0    0  0.21183381912E-01  0.19499096842E-02 -0.96208231144E-02  0.10205826649E+01  0.10203155776E+01 0.  0.
     999903    2    3    3    0    0 -0.29917155714E-01  0.51915588400E-01 -0.11555940496E+00  0.13135220149E+00  0.17582953042E-01 0.  0.
         14    1    1    2    0    0 -0.21183381912E-01 -0.19499096842E-02  0.96208231144E-02  0.23347335060E-01  0.00000000000E+00 0.  1.
     999901    1    3    3    0    0  0.51100537625E-01 -0.49965678716E-01  0.10593858185E+00  0.88923046345E+00  0.88000000000E+00 0.  1.
        -11    1    4    4    0    0  0.10917455092E-02  0.15241387686E-02 -0.11357517160E-01  0.11522552855E-01  0.51100000000E-03 0.  1.
         11    1    4    4    0    0 -0.31008901223E-01  0.50391449632E-01 -0.10420188780E+00  0.11982964864E+00  0.51100000000E-03 0. -1.
</event>
<event>
 8    1  0.1078274E+005  0.1043930E+01  0.7957747E-01            NaN
         13   -1    0    0    0    0  0.00000000000E+00  0.00000000000E+00  0.74505805969E-08  0.10566000000E+00  0.10566000000E+00 0.  1.
     999900   -1    0    0    0    0 -0.00000000000E+00 -0.00000000000E+00 -0.74505805969E-08  0.93827000000E+00  0.93827000000E+00 0.  1.
     999902    2    1    2    0    0  0.52157500140E-02  0.22035055247E-01  0.86494676908E-02  0.10196903424E+01  0.10194021942E+01 0.  0.
     999903    2    3    3    0    0  0.12830768181E+00 -0.98504239956E-02  0.10554057853E-01  0.13054922037E+00  0.19282601948E-01 0.  0.
         14    1    1    2    0    0 -0.52157500140E-02 -0.22035055247E-01 -0.86494676908E-02  0.24239657574E-01  0.00000000000E+00 0.  1.
     999901    1    3    3    0    0 -0.12309193180E+00  0.31885479243E-01 -0.19045901618E-02  0.88914112205E+00  0.88000000000E+00 0.  1.
        -11    1    4    4    0    0  0.51216682738E-01  0.10046300277E-02  0.12266643311E-01  0.52677220231E-01  0.51100000000E-03 0.  1.
         11    1    4    4    0    0  0.77090999076E-01 -0.10855054023E-01 -0.17125854580E-02  0.77872000143E-01  0.51100000000E-03 0. -1.
</event>
<event>
 8    1  0.1078274E+005  0.1043930E+01  0.7957747E-01            NaN
         13   -1    0    0    0    0  0.00000000000E+00  0.00000000000E+00  0.74505805969E-08  0.10566000000E+00  0.10566000000E+00 0. -1.
     999900   -1    0    0    0    0 -0.00000000000E+00 -0.00000000000E+00 -0.74505805969E-08  0.93827000000E+00  0.93827000000E+00 0.  1.
     999902    2    1    2    0    0  0.16387990390E-02  0.17587644285E-02  0.22274318547E-01  0.10215263355E+01  0.10212806324E+01 0.  0.
     999903    2    3    3    0    0  0.38401186420E-01 -0.11050496621E+00  0.59780336032E-01  0.13284117211E+00  0.19674596766E-01 0.  0.
         14    1    1    2    0    0 -0.16387990390E-02 -0.17587644285E-02 -0.22274318547E-01  0.22403664462E-01  0.00000000000E+00 0.  1.
     999901    1    3    3    0    0 -0.36762387381E-01  0.11226373063E+00 -0.37506017484E-01  0.88868516342E+00  0.88000000000E+00 0. -1.
        -11    1    4    4    0    0  0.22637155975E-01 -0.47273866444E-01  0.35450089223E-01  0.63278979338E-01  0.51100000000E-03 0. -1.
         11    1    4    4    0    0  0.15764030446E-01 -0.63231099762E-01  0.24330246809E-01  0.69562192776E-01  0.51100000000E-03 0.  1.
</event>
<event>
 8    1  0.1078274E+005  0.1043930E+01  0.7957747E-01            NaN
         13   -1    0    0    0    0  0.00000000000E+00  0.00000000000E+00  0.74505805969E-08  0.10566000000E+00  0.10566000000E+00 0.  1.
     999900   -1    0    0    0    0 -0.00000000000E+00 -0.00000000000E+00 -0.74505805969E-08  0.93827000000E+00  0.93827000000E+00 0.  1.
     999902    2    1    2    0    0 -0.18785979512E-01  0.11141020128E-01 -0.40101602502E-02  0.10217237680E+01  0.10214824234E+01 0.  0.
     999903    2    3    3    0    0 -0.20771342693E-01  0.67557536823E-01  0.11042668393E+00  0.13252044121E+00  0.19291069303E-01 0.  0.
         14    1    1    2    0    0  0.18785979512E-01 -0.11141020128E-01  0.40101602502E-02  0.22206232029E-01  0.00000000000E+00 0. -1.
     999901    1    3    3    0    0  0.19853631812E-02 -0.56416516695E-01 -0.11443684418E+00  0.88920332676E+00  0.88000000000E+00 0.  1.
        -11    1    4    4    0    0 -0.11193350813E-01  0.29557058685E-01  0.32749459448E-01  0.45515920683E-01  0.51100000000E-03 0. -1.
         11    1    4    4    0    0 -0.95779918800E-02  0.38000478138E-01  0.77677224482E-01  0.87004520523E-01  0.51100000000E-03 0.  1.
</event>
<event>
 8    1  0.1078274E+005  0.1043930E+01  0.7957747E-01            NaN
         13   -1    0    0    0    0  0.00000000000E+00  0.00000000000E+00  0.74505805969E-08  0.10566000000E+00  0.10566000000E+00 0. -1.
     999900   -1    0    0    0    0 -0.00000000000E+00 -0.00000000000E+00 -0.74505805969E-08  0.93827000000E+00  0.93827000000E+00 0.  1.
     999902    2    1    2    0    0 -0.63317642056E-02  0.15550530346E-01  0.16891187883E-01  0.10201135674E+01  0.10198355103E+01 0.  0.
     999903    2    3    3    0    0  0.71130250515E-01 -0.92859691799E-01 -0.47346861307E-01  0.12776852937E+00  0.20015916751E-01 0.  0.
         14    1    1    2    0    0  0.63317642056E-02 -0.15550530346E-01 -0.16891187883E-01  0.23816432565E-01  0.00000000000E+00 0. -1.
     999901    1    3    3    0    0 -0.77462014720E-01  0.10841022215E+00  0.64238049190E-01  0.89234503806E+00  0.88000000000E+00 0.  1.
        -11    1    4    4    0    0  0.31657576182E-01 -0.26621959880E-01 -0.20060311330E-01  0.45973993619E-01  0.51100000000E-03 0. -1.
         11    1    4    4    0    0  0.39472674332E-01 -0.66237731919E-01 -0.27286549977E-01  0.81794535755E-01  0.51100000000E-03 0.  1.
</event>
<event>
 8    1  0.1078274E+005  0.1043930E+01  0.7957747E-01            NaN
         13   -1    0    0    0    0  0.00000000000E+00  0.00000000000E+00  0.74505805969E-08  0.10566000000E+00  0.10566000000E+00 0. -1.
     999900   -1    0    0    0    0 -0.00000000000E+00 -0.00000000000E+00 -0.74505805969E-08  0.93827000000E+00  0.93827000000E+00 0.  1.
     999902    2    1    2    0    0 -0.63363024309E-02  0.21951165167E-01 -0.52280173840E-02  0.10204921130E+01  0.10202229257E+01 0.  0.
     999903    2    3    3    0    0  0.10439910364E+00 -0.63038138022E-01  0.30755629472E-01  0.12876326709E+00  0.27587869074E-01 0.  0.
         14    1    1    2    0    0  0.63363024309E-02 -0.21951165167E-01  0.52280173840E-02  0.23437886987E-01  0.00000000000E+00 0.  1.
     999901    1    3    3    0    0 -0.11073540607E+00  0.84989303189E-01 -0.35983646856E-01  0.89172884593E+00  0.88000000000E+00 0.  1.
        -11    1    4    4    0    0  0.56465855642E-01 -0.24567665841E-01  0.26835878377E-01  0.67174314641E-01  0.51100000000E-03 0.  1.
         11    1    4    4    0    0  0.47933248000E-01 -0.38470472181E-01  0.39197510950E-02  0.61588952446E-01  0.51100000000E-03 0. -1.
</event>
<event>
 8    1  0.1078274E+005  0.1043930E+01  0.7957747E-01            NaN
         13   -1    0    0    0    0  0.00000000000E+00  0.00000000000E+00  0.74505805969E-08  0.10566000000E+00  0.10566000000E+00 0. -1.
     999900   -1    0    0    0    0 -0.00000000000E+00 -0.00000000000E+00 -0.74505805969E-08  0.93827000000E+00  0.93827000000E+00 0. -1.
     999902    2    1    2    0    0 -0.22846282636E-01 -0.74637906133E-02  0.16356003406E-03  0.10198948684E+01  0.10196116197E+01 0.  0.
     999903    2    3    3    0    0  0.19887462855E-01  0.12072459799E+00  0.35342083639E-01  0.12888647082E+00  0.19817157873E-01 0.  0.
         14    1    1    2    0    0  0.22846282636E-01  0.74637906133E-02 -0.16356003406E-03  0.24035131631E-01  0.00000000000E+00 0.  1.
     999901    1    3    3    0    0 -0.42733745491E-01 -0.12818838860E+00 -0.35178523605E-01  0.89100839755E+00  0.88000000000E+00 0. -1.
        -11    1    4    4    0    0 -0.31869247752E-03  0.31744016516E-01  0.22709204161E-02  0.31830839606E-01  0.51100000000E-03 0. -1.
         11    1    4    4    0    0  0.20206155333E-01  0.88980581475E-01  0.33071163223E-01  0.97055631217E-01  0.51100000000E-03 0.  1.
</event>
<event>
 8    1  0.1078274E+005  0.1043930E+01  0.7957747E-01            NaN
         13   -1    0    0    0    0  0.00000000000E+00  0.00000000000E+00  0.74505805969E-08  0.10566000000E+00  0.10566000000E+00 0.  1.
     999900   -1    0    0    0    0 -0.00000000000E+00 -0.00000000000E+00 -0.74505805969E-08  0.93827000000E+00  0.93827000000E+00 0. -1.
     999902    2    1    2    0    0 -0.11522007303E-01 -0.76925121366E-02 -0.20396493897E-01  0.10192733912E+01  0.10189751212E+01 0.  0.
     999903    2    3    3    0    0 -0.91507726571E-01  0.78649993967E-01  0.42269046186E-01  0.12922860941E+00  0.18811582877E-01 0.  0.
         14    1    1    2    0    0  0.11522007303E-01  0.76925121366E-02  0.20396493897E-01  0.24656608821E-01  0.00000000000E+00 0.  1.
     999901    1    3    3    0    0  0.79985719267E-01 -0.86342506104E-01 -0.62665540084E-01  0.89004478177E+00  0.88000000000E+00 0.  1.
        -11    1    4    4    0    0 -0.44447061912E-01  0.26149218733E-01  0.16190847481E-01  0.54053007466E-01  0.51100000000E-03 0.  1.
         11    1    4    4    0    0 -0.47060664658E-01  0.52500775234E-01  0.26078198706E-01  0.75175601940E-01  0.51100000000E-03 0. -1.
</event>
<event>
 8    1  0.1078274E+005  0.1043930E+01  0.7957747E-01            NaN
         13   -1    0    0    0    0  0.00000000000E+00  0.00000000000E+00  0.74505805969E-08  0.10566000000E+00  0.10566000000E+00 0. -1.
     999900   -1    0    0    0    0 -0.00000000000E+00 -0.00000000000E+00 -0.74505805969E-08  0.93827000000E+00  0.93827000000E+00 0.  1.
     999902    2    1    2    0    0  0.16125720319E-01 -0.18708963098E-01 -0.61169904338E-04  0.10192304474E+01  0.10189311248E+01 0.  0.
     999903    2    3    3    0    0 -0.11803130330E+00 -0.45300004286E-02  0.44342792490E-01  0.12784340362E+00  0.20633544096E-01 0.  0.
         14    1    1    2    0    0 -0.16125720319E-01  0.18708963098E-01  0.61169904338E-04  0.24699552582E-01  0.00000000000E+00 0.  1.
     999901    1    3    3    0    0  0.13415702362E+00 -0.14178962669E-01 -0.44403962395E-01  0.89138704379E+00  0.88000000000E+00 0. -1.
        -11    1    4    4    0    0 -0.88951868035E-01  0.50966227255E-02  0.35953570875E-01  0.96079814580E-01  0.51100000000E-03 0. -1.
         11    1    4    4    0    0 -0.29079435264E-01 -0.96266231542E-02  0.83892216159E-02  0.31763589044E-01  0.51100000000E-03 0.  1.
</event>
<event>
 8    1  0.1084321E+005  0.1043930E+01  0.7957747E-01            NaN
         13   -1    0    0    0    0  0.00000000000E+00  0.00000000000E+00  0.74505805969E-08  0.10566000000E+00  0.10566000000E+00 0. -1.
     999900   -1    0    0    0    0 -0.00000000000E+00 -0.00000000000E+00 -0.74505805969E-08  0.93827000000E+00  0.93827000000E+00 0. -1.
     999902    2    1    2    0    0 -0.17316769279E-01  0.14792560106E-02  0.14301934048E-01  0.10214221344E+01  0.10211741147E+01 0.  0.
     999903    2    3    3    0    0 -0.33524248957E-01  0.12584557591E+00 -0.10775216007E-01  0.13217609005E+00  0.19835051229E-01 0.  0.
         14    1    1    2    0    0  0.17316769279E-01 -0.14792560106E-02 -0.14301934048E-01  0.22507865605E-01  0.00000000000E+00 0.  1.
     999901    1    3    3    0    0  0.16207479678E-01 -0.12436631990E+00  0.25077150055E-01  0.88924604434E+00  0.88000000000E+00 0.  1.
        -11    1    4    4    0    0 -0.14641352826E-01  0.47106571375E-01  0.53220063682E-02  0.49618375145E-01  0.51100000000E-03 0. -1.
         11    1    4    4    0    0 -0.18882896131E-01  0.78739004536E-01 -0.16097222375E-01  0.82557714908E-01  0.51100000000E-03 0.  1.
</event>
<event>
 8    1  0.1078274E+005  0.1043930E+01  0.7957747E-01            NaN
         13   -1    0    0    0    0  0.00000000000E+00  0.00000000000E+00  0.74505805969E-08  0.10566000000E+00  0.10566000000E+00 0.  1.
     999900   -1    0    0    0    0 -0.00000000000E+00 -0.00000000000E+00 -0.74505805969E-08  0.93827000000E+00  0.93827000000E+00 0. -1.
     999902    2    1    2    0    0  0.23572342588E-02 -0.71814545677E-02 -0.22064055697E-01  0.10206072129E+01  0.10203406934E+01 0.  0.
     999903    2    3    3    0    0  0.89861626633E-01  0.62725457230E-01 -0.71235818999E-01  0.13214682703E+00  0.19458855557E-01 0.  0.
         14    1    1    2    0    0 -0.23572342588E-02  0.71814545677E-02  0.22064055697E-01  0.23322787074E-01  0.00000000000E+00 0.  1.
     999901    1    3    3    0    0 -0.87504392375E-01 -0.69906911798E-01  0.49171763301E-01  0.88846038590E+00  0.88000000000E+00 0.  1.
        -11    1    4    4    0    0  0.47356094775E-02  0.84045929241E-02 -0.24611141578E-02  0.99690211777E-02  0.51100000000E-03 0. -1.
         11    1    4    4    0    0  0.85126017156E-01  0.54320864306E-01 -0.68774704841E-01  0.12217780585E+00  0.51100000000E-03 0.  1.
</event>
<event>
 8    1  0.1078274E+005  0.1043930E+01  0.7957747E-01            NaN
         13   -1    0    0    0    0  0.00000000000E+00  0.00000000000E+00  0.74505805969E-08  0.10566000000E+00  0.10566000000E+00 0.  1.
     999900   -1    0    0    0    0 -0.00000000000E+00 -0.00000000000E+00 -0.74505805969E-08  0.93827000000E+00  0.93827000000E+00 0.  1.
     999902    2    1    2    0    0 -0.80071405625E-02 -0.23879087121E-02 -0.21876611428E-01  0.10205120040E+01  0.10202432787E+01 0.  0.
     999903    2    3    3    0    0  0.66356806751E-01  0.34487314972E-01  0.10181604754E+00  0.12799329124E+00  0.20571202425E-01 0.  0.
         14    1    1    2    0    0  0.80071405625E-02  0.23879087121E-02  0.21876611428E-01  0.23417995977E-01  0.00000000000E+00 0.  1.
     999901    1    3    3    0    0 -0.74363947313E-01 -0.36875223684E-01 -0.12369265897E+00  0.89251871278E+00  0.88000000000E+00 0.  1.
        -11    1    4    4    0    0  0.13574176746E-01  0.34783316155E-02  0.33183880106E-01  0.36024825955E-01  0.51100000000E-03 0. -1.
         11    1    4    4    0    0  0.52782630005E-01  0.31008983356E-01  0.68632167438E-01  0.91968465287E-01  0.51100000000E-03 0.  1.
</event>
<event>
 8    1  0.1078274E+005  0.1043930E+01  0.7957747E-01            NaN
         13   -1    0    0    0    0  0.00000000000E+00  0.00000000000E+00  0.74505805969E-08  0.10566000000E+00  0.10566000000E+00 0. -1.
     999900   -1    0    0    0    0 -0.00000000000E+00 -0.00000000000E+00 -0.74505805969E-08  0.93827000000E+00  0.93827000000E+00 0.  1.
     999902    2    1    2    0    0 -0.13516700119E-01 -0.14340511469E-01 -0.10241472356E-01  0.10217210107E+01  0.10214796055E+01 0.  0.
     999903    2    3    3    0    0 -0.87397625233E-01 -0.97954015010E-01  0.18753819896E-01  0.13420180747E+00  0.20617599614E-01 0.  0.
         14    1    1    2    0    0  0.13516700119E-01  0.14340511469E-01  0.10241472356E-01  0.22208989336E-01  0.00000000000E+00 0. -1.
     999901    1    3    3    0    0  0.73880925114E-01  0.83613503541E-01 -0.28995292251E-01  0.88751920320E+00  0.88000000000E+00 0.  1.
        -11    1    4    4    0    0 -0.29363166411E-01 -0.43118766590E-01  0.14937036729E-01  0.54266009261E-01  0.51100000000E-03 0. -1.
         11    1    4    4    0    0 -0.58034458823E-01 -0.54835248420E-01  0.38167831665E-02  0.79935798206E-01  0.51100000000E-03 0.  1.
</event>
<event>
 7    1  0.1078274E+005  0.1043930E+01  0.7957747E-01            NaN
         13   -1    0    0    0    0  0.00000000000E+00  0.00000000000E+00  0.74505805969E-08  0.10566000000E+00  0.10566000000E+00 0.  1.
     999900   -1    0    0    0    0 -0.00000000000E+00 -0.00000000000E+00 -0.74505805969E-08  0.93827000000E+00  0.93827000000E+00 0. -1.
     999903    2    1    2    0    0  0.29348301113E-01  0.57320760411E-01  0.61602061084E-01  0.91259181747E-01  0.19657873002E-01 0.  0.
         14    1    1    2    0    0  0.52651325584E-02 -0.53964708311E-01  0.38230435582E-01  0.66343632465E-01  0.00000000000E+00 0.  1.
     999901    1    1    2    0    0 -0.34613433671E-01 -0.33560521000E-02 -0.99832496667E-01  0.88632718579E+00  0.88000000000E+00 0. -1.
        -11    1    3    3    0    0  0.21418509771E-01  0.55039826451E-01  0.54195534686E-01  0.80159541899E-01  0.51100000000E-03 0. -1.
         11    1    3    3    0    0  0.79297913424E-02  0.22809339600E-02  0.74065263979E-02  0.11099639848E-01  0.51100000000E-03 0.  1.
</event>
<event>
 8    1  0.1078274E+005  0.1043930E+01  0.7957747E-01            NaN
         13   -1    0    0    0    0  0.00000000000E+00  0.00000000000E+00  0.74505805969E-08  0.10566000000E+00  0.10566000000E+00 0. -1.
     999900   -1    0    0    0    0 -0.00000000000E+00 -0.00000000000E+00 -0.74505805969E-08  0.93827000000E+00  0.93827000000E+00 0.  1.
     999902    2    1    2    0    0 -0.77813250451E-02 -0.21848517676E-01  0.73273839929E-02  0.10196072267E+01  0.10193170750E+01 0.  0.
     999903    2    3    3    0    0  0.11135238789E+00 -0.41521753056E-01  0.49410114167E-01  0.13036550821E+00  0.20745989609E-01 0.  0.
         14    1    1    2    0    0  0.77813250451E-02  0.21848517676E-01 -0.73273839929E-02  0.24322773285E-01  0.00000000000E+00 0.  1.
     999901    1    3    3    0    0 -0.11913371293E+00  0.19673235380E-01 -0.42082730174E-01  0.88924171850E+00  0.88000000000E+00 0. -1.
        -11    1    4    4    0    0  0.77614468046E-01 -0.21757906753E-01  0.40712205840E-01  0.90305907789E-01  0.51100000000E-03 0. -1.
         11    1    4    4    0    0  0.33737919839E-01 -0.19763846303E-01  0.86979083272E-02  0.40059600423E-01  0.51100000000E-03 0.  1.
</event>
<event>
 8    1  0.1078274E+005  0.1043930E+01  0.7957747E-01            NaN
         13   -1    0    0    0    0  0.00000000000E+00  0.00000000000E+00  0.74505805969E-08  0.10566000000E+00  0.10566000000E+00 0. -1.
     999900   -1    0    0    0    0 -0.00000000000E+00 -0.00000000000E+00 -0.74505805969E-08  0.93827000000E+00  0.93827000000E+00 0. -1.
     999902    2    1    2    0    0 -0.18897144612E-02 -0.23296426336E-01  0.25403151607E-02  0.10204194130E+01  0.10201485336E+01 0.  0.
     999903    2    3    3    0    0  0.43543977384E-01  0.92197422801E-01  0.75777037887E-01  0.12869823061E+00  0.20606609441E-01 0.  0.
         14    1    1    2    0    0  0.18897144612E-02  0.23296426336E-01 -0.25403151607E-02  0.23510587017E-01  0.00000000000E+00 0. -1.
     999901    1    3    3    0    0 -0.45433691845E-01 -0.11549384914E+00 -0.73236722727E-01  0.89172118238E+00  0.88000000000E+00 0.  1.
        -11    1    4    4    0    0  0.33641012935E-01  0.84299660306E-01  0.70661471383E-01  0.11502806239E+00  0.51100000000E-03 0.  1.
         11    1    4    4    0    0  0.99029644490E-02  0.78977624948E-02  0.51155665043E-02  0.13670168213E-01  0.51100000000E-03 0. -1.
</event>
<event>
 8    1  0.1078274E+005  0.1043930E+01  0.7957747E-01            NaN
         13   -1    0    0    0    0  0.00000000000E+00  0.00000000000E+00  0.74505805969E-08  0.10566000000E+00  0.10566000000E+00 0.  1.
     999900   -1    0    0    0    0 -0.00000000000E+00 -0.00000000000E+00 -0.74505805969E-08  0.93827000000E+00  0.93827000000E+00 0. -1.
     999902    2    1    2    0    0  0.95383208839E-02 -0.21542553988E-01  0.45578689215E-02  0.10199334301E+01  0.10196511004E+01 0.  0.
     999903    2    3    3    0    0  0.59503622309E-01  0.96350872229E-01 -0.57297346791E-01  0.12851800562E+00  0.20241545721E-01 0.  0.
         14    1    1    2    0    0 -0.95383208839E-02  0.21542553988E-01 -0.45578689215E-02  0.23996569895E-01  0.00000000000E+00 0. -1.
     999901    1    3    3    0    0 -0.49965301425E-01 -0.11789342622E+00  0.61855215713E-01  0.89141542448E+00  0.88000000000E+00 0.  1.
        -11    1    4    4    0    0  0.34590581356E-01  0.45959926261E-01 -0.19343530829E-01  0.60689838082E-01  0.51100000000E-03 0.  1.
         11    1    4    4    0    0  0.24913040953E-01  0.50390945968E-01 -0.37953815963E-01  0.67828167542E-01  0.51100000000E-03 0. -1.
</event>
<event>
 8    1  0.1078274E+005  0.1043930E+01  0.7957747E-01            NaN
         13   -1    0    0    0    0  0.00000000000E+00  0.00000000000E+00  0.74505805969E-08  0.10566000000E+00  0.10566000000E+00 0.  1.
     999900   -1    0    0    0    0 -0.00000000000E+00 -0.00000000000E+00 -0.74505805969E-08  0.93827000000E+00  0.93827000000E+00 0. -1.
     999902    2    1    2    0    0  0.26836178273E-02  0.89395247224E-02  0.22691645459E-01  0.10193937476E+01  0.10190984177E+01 0.  0.
     999903    2    3    3    0    0 -0.51879786842E-01  0.62112778342E-01 -0.97034269433E-01  0.12802465756E+00  0.20619262421E-01 0.  0.
         14    1    1    2    0    0 -0.26836178273E-02 -0.89395247224E-02 -0.22691645459E-01  0.24536252373E-01  0.00000000000E+00 0. -1.
     999901    1    3    3    0    0  0.54563404669E-01 -0.53173253620E-01  0.11972591489E+00  0.89136909007E+00  0.88000000000E+00 0.  1.
        -11    1    4    4    0    0 -0.19012581750E-01  0.38417254779E-01 -0.53383496182E-01  0.68464753816E-01  0.51100000000E-03 0. -1.
         11    1    4    4    0    0 -0.32867205092E-01  0.23695523563E-01 -0.43650773252E-01  0.59559903744E-01  0.51100000000E-03 0.  1.
</event>
<event>
 8    1  0.1078274E+005  0.1043930E+01  0.7957747E-01            NaN
         13   -1    0    0    0    0  0.00000000000E+00  0.00000000000E+00  0.74505805969E-08  0.10566000000E+00  0.10566000000E+00 0.  1.
     999900   -1    0    0    0    0 -0.00000000000E+00 -0.00000000000E+00 -0.74505805969E-08  0.93827000000E+00  0.93827000000E+00 0.  1.
     999902    2    1    2    0    0 -0.15273951376E-01 -0.16398235106E-01 -0.79562760570E-02  0.10201497974E+01  0.10198725956E+01 0.  0.
     999903    2    3    3    0    0  0.26337387139E-01  0.12336338056E+00 -0.99544788213E-02  0.12814710376E+00  0.20258502640E-01 0.  0.
         14    1    1    2    0    0  0.15273951376E-01  0.16398235106E-01  0.79562760570E-02  0.23780202562E-01  0.00000000000E+00 0.  1.
     999901    1    3    3    0    0 -0.41611338515E-01 -0.13976161567E+00  0.19982027643E-02  0.89200269367E+00  0.88000000000E+00 0.  1.
        -11    1    4    4    0    0 -0.28751338754E-03  0.43703824236E-01 -0.52613166754E-02  0.44023283509E-01  0.51100000000E-03 0. -1.
         11    1    4    4    0    0  0.26624900527E-01  0.79659556327E-01 -0.46931621459E-02  0.84123820255E-01  0.51100000000E-03 0.  1.
</event>
<event>
 8    1  0.1078274E+005  0.1043930E+01  0.7957747E-01            NaN
         13   -1    0    0    0    0  0.00000000000E+00  0.00000000000E+00  0.74505805969E-08  0.10566000000E+00  0.10566000000E+00 0. -1.
     999900   -1    0    0    0    0 -0.00000000000E+00 -0.00000000000E+00 -0.74505805969E-08  0.93827000000E+00  0.93827000000E+00 0. -1.
     999902    2    1    2    0    0 -0.23856356665E-01 -0.57405129296E-02  0.62735843663E-02  0.10186033914E+01  0.10182884817E+01 0.  0.
     999903    2    3    3    0    0  0.48075032668E-01  0.32586508370E-01  0.11276941272E+00  0.12844360418E+00  0.20192318257E-01 0.  0.
         14    1    1    2    0    0  0.23856356665E-01  0.57405129296E-02 -0.62735843663E-02  0.25326608593E-01  0.00000000000E+00 0. -1.
     999901    1    3    3    0    0 -0.71931389333E-01 -0.38327021299E-01 -0.10649582835E+00  0.89015978722E+00  0.88000000000E+00 0. -1.
        -11    1    4    4    0    0  0.13100172321E-01 -0.62610003973E-03  0.27665586684E-01  0.30621109119E-01  0.51100000000E-03 0.  1.
         11    1    4    4    0    0  0.34974860347E-01  0.33212608409E-01  0.85103826036E-01  0.97822495065E-01  0.51100000000E-03 0. -1.
</event>
<event>
 8    1  0.1078274E+005  0.1043930E+01  0.7957747E-01            NaN
         13   -1    0    0    0    0  0.00000000000E+00  0.00000000000E+00  0.74505805969E-08  0.10566000000E+00  0.10566000000E+00 0.  1.
     999900   -1    0    0    0    0 -0.00000000000E+00 -0.00000000000E+00 -0.74505805969E-08  0.93827000000E+00  0.93827000000E+00 0. -1.
     999902    2    1    2    0    0 -0.19297717081E-02  0.13785675335E-01 -0.17345196315E-01  0.10216898404E+01  0.10214477497E+01 0.  0.
     999903    2    3    3    0    0  0.43388901672E-01  0.10436804685E-01 -0.12511362661E+00  0.13395168551E+00  0.17265885671E-01 0.  0.
         14    1    1    2    0    0  0.19297717081E-02 -0.13785675335E-01  0.17345196315E-01  0.22240159588E-01  0.00000000000E+00 0.  1.
     999901    1    3    3    0    0 -0.45318673380E-01  0.33488706500E-02  0.10776843030E+00  0.88773815490E+00  0.88000000000E+00 0.  1.
        -11    1    4    4    0    0  0.33588101992E-01  0.27368101831E-02 -0.73609284538E-01  0.80958252307E-01  0.51100000000E-03 0. -1.
         11    1    4    4    0    0  0.98007996796E-02  0.76999945019E-02 -0.51504342074E-01  0.52993433208E-01  0.51100000000E-03 0.  1.
</event>
<event>
 7    1  0.1078274E+005  0.1043930E+01  0.7957747E-01            NaN
         13   -1    0    0    0    0  0.00000000000E+00  0.00000000000E+00  0.74505805969E-08  0.10566000000E+00  0.10566000000E+00 0.  1.
     999900   -1    0    0    0    0 -0.00000000000E+00 -0.00000000000E+00 -0.74505805969E-08  0.93827000000E+00  0.93827000000E+00 0.  1.
     999903    2    1    2    0    0  0.16454075199E-01  0.43939749483E-01  0.75674393214E-01  0.92130544482E-01  0.23664007755E-01 0.  0.
         14    1    1    2    0    0 -0.49935767321E-01  0.33222186044E-01 -0.28834535711E-01  0.66548666050E-01  0.00000000000E+00 0. -1.
     999901    1    1    2    0    0  0.33481692122E-01 -0.77161935527E-01 -0.46839857503E-01  0.88525078947E+00  0.88000000000E+00 0.  1.
        -11    1    3    3    0    0  0.20353987822E-03  0.29052274002E-01  0.53386598363E-01  0.60782119566E-01  0.51100000000E-03 0. -1.
         11    1    3    3    0    0  0.16250535321E-01  0.14887475481E-01  0.22287794851E-01  0.31348424916E-01  0.51100000000E-03 0.  1.
</event>
<event>
 8    1  0.1078274E+005  0.1043930E+01  0.7957747E-01            NaN
         13   -1    0    0    0    0  0.00000000000E+00  0.00000000000E+00  0.74505805969E-08  0.10566000000E+00  0.10566000000E+00 0.  1.
     999900   -1    0    0    0    0 -0.00000000000E+00 -0.00000000000E+00 -0.74505805969E-08  0.93827000000E+00  0.93827000000E+00 0.  1.
     999902    2    1    2    0    0  0.69194045701E-02  0.19581685644E-01 -0.11660409888E-01  0.10201122392E+01  0.10198341506E+01 0.  0.
     999903    2    3    3    0    0  0.27064431551E-01  0.55644432124E-02  0.12459642101E+00  0.12928777320E+00  0.20678822223E-01 0.  0.
         14    1    1    2    0    0 -0.69194045701E-02 -0.19581685644E-01  0.11660409888E-01  0.23817760832E-01  0.00000000000E+00 0.  1.
     999901    1    3    3    0    0 -0.20145026981E-01  0.14017242432E-01 -0.13625683089E+00  0.89082446597E+00  0.88000000000E+00 0.  1.
        -11    1    4    4    0    0  0.19756283794E-01  0.38868989776E-02  0.44576458787E-01  0.48915647108E-01  0.51100000000E-03 0. -1.
         11    1    4    4    0    0  0.73081477569E-02  0.16775442348E-02  0.80019962220E-01  0.80372126094E-01  0.51100000000E-03 0.  1.
</event>
<event>
 8    1  0.1078274E+005  0.1043930E+01  0.7957747E-01            NaN
         13   -1    0    0    0    0  0.00000000000E+00  0.00000000000E+00  0.74505805969E-08  0.10566000000E+00  0.10566000000E+00 0.  1.
     999900   -1    0    0    0    0 -0.00000000000E+00 -0.00000000000E+00 -0.74505805969E-08  0.93827000000E+00  0.93827000000E+00 0.  1.
     999902    2    1    2    0    0  0.18538623149E-01 -0.97456617146E-02 -0.12100319256E-01  0.10197416516E+01  0.10194547366E+01 0.  0.
     999903    2    3    3    0    0 -0.49444346541E-01 -0.10887323659E+00 -0.47845970342E-01  0.13085149428E+00  0.23124697357E-01 0.  0.
         14    1    1    2    0    0 -0.18538623149E-01  0.97456617146E-02  0.12100319256E-01  0.24188348364E-01  0.00000000000E+00 0. -1.
     999901    1    3    3    0    0  0.67982969689E-01  0.99127574874E-01  0.35745651086E-01  0.88889015735E+00  0.88000000000E+00 0. -1.
        -11    1    4    4    0    0 -0.22647825466E-01 -0.38903046327E-01 -0.71405741513E-02  0.45580916314E-01  0.51100000000E-03 0.  1.
         11    1    4    4    0    0 -0.26796521075E-01 -0.69970190262E-01 -0.40705396190E-01  0.85270577968E-01  0.51100000000E-03 0. -1.
</event>
<event>
 8    1  0.1525400E+005  0.1043930E+01  0.7957747E-01            NaN
         13   -1    0    0    0    0  0.00000000000E+00  0.00000000000E+00  0.74505805969E-08  0.10566000000E+00  0.10566000000E+00 0. -1.
     999900   -1    0    0    0    0 -0.00000000000E+00 -0.00000000000E+00 -0.74505805969E-08  0.93827000000E+00  0.93827000000E+00 0. -1.
     999902    2    1    2    0    0  0.46596538721E-02 -0.21060378226E-01  0.11735488595E-01  0.10193744793E+01  0.10190786797E+01 0.  0.
     999903    2    3    3    0    0  0.47515411114E-01  0.10087475944E-01 -0.11716054156E+00  0.12840815481E+00  0.20064651960E-01 0.  0.
         14    1    1    2    0    0 -0.46596538721E-02  0.21060378226E-01 -0.11735488595E-01  0.24555520719E-01  0.00000000000E+00 0.  1.
     999901    1    3    3    0    0 -0.42855757242E-01 -0.31147854171E-01  0.12889603016E+00  0.89096632447E+00  0.88000000000E+00 0.  1.
        -11    1    4    4    0    0  0.26556514577E-01 -0.43048566061E-02 -0.66053705486E-01  0.71324143081E-01  0.51100000000E-03 0. -1.
         11    1    4    4    0    0  0.20958896537E-01  0.14392332550E-01 -0.51106836078E-01  0.57084011730E-01  0.51100000000E-03 0.  1.
</event>
<event>
 8    1  0.1078274E+005  0.1043930E+01  0.7957747E-01            NaN
         13   -1    0    0    0    0  0.00000000000E+00  0.00000000000E+00  0.74505805969E-08  0.10566000000E+00  0.10566000000E+00 0.  1.
     999900   -1    0    0    0    0 -0.00000000000E+00 -0.00000000000E+00 -0.74505805969E-08  0.93827000000E+00  0.93827000000E+00 0. -1.
     999902    2    1    2    0    0  0.33490895399E-02  0.25143318318E-01  0.32037653492E-03  0.10185625898E+01  0.10182466518E+01 0.  0.
     999903    2    3    3    0    0  0.52676628382E-01  0.11056398512E+00 -0.45252516212E-01  0.13187956590E+00  0.18579765753E-01 0.  0.
         14    1    1    2    0    0 -0.33490895399E-02 -0.25143318318E-01 -0.32037653492E-03  0.25367410154E-01  0.00000000000E+00 0. -1.
     999901    1    3    3    0    0 -0.49327538842E-01 -0.85420666799E-01  0.45572892747E-01  0.88668302395E+00  0.88000000000E+00 0.  1.
        -11    1    4    4    0    0  0.24612151358E-01  0.32051280380E-01 -0.12573459728E-01  0.42324881322E-01  0.51100000000E-03 0. -1.
         11    1    4    4    0    0  0.28064477024E-01  0.78512704737E-01 -0.32679056484E-01  0.89554684576E-01  0.51100000000E-03 0.  1.
</event>
<event>
 8    1  0.1078274E+005  0.1043930E+01  0.7957747E-01            NaN
         13   -1    0    0    0    0  0.00000000000E+00  0.00000000000E+00  0.74505805969E-08  0.10566000000E+00  0.10566000000E+00 0. -1.
     999900   -1    0    0    0    0 -0.00000000000E+00 -0.00000000000E+00 -0.74505805969E-08  0.93827000000E+00  0.93827000000E+00 0. -1.
     999902    2    1    2    0    0  0.18608466236E-01  0.89559287093E-03 -0.12038445112E-01  0.10217488985E+01  0.10215081059E+01 0.  0.
     999903    2    3    3    0    0  0.15880323300E-01  0.12965883093E+00 -0.76236481723E-02  0.13236320903E+00  0.19957504545E-01 0.  0.
         14    1    1    2    0    0 -0.18608466236E-01 -0.89559287093E-03  0.12038445112E-01  0.22181101482E-01  0.00000000000E+00 0. -1.
     999901    1    3    3    0    0  0.27281429358E-02 -0.12876323805E+00 -0.44147969394E-02  0.88938568949E+00  0.88000000000E+00 0. -1.
        -11    1    4    4    0    0  0.20455934636E-01  0.11030835824E+00 -0.79310195956E-02  0.11247017984E+00  0.51100000000E-03 0. -1.
         11    1    4    4    0    0 -0.45756113366E-02  0.19350472684E-01  0.30737142334E-03  0.19893029191E-01  0.51100000000E-03 0.  1.
</event>
<event>
 8    1  0.1078274E+005  0.1043930E+01  0.7957747E-01            NaN
         13   -1    0    0    0    0  0.00000000000E+00  0.00000000000E+00  0.74505805969E-08  0.10566000000E+00  0.10566000000E+00 0. -1.
     999900   -1    0    0    0    0 -0.00000000000E+00 -0.00000000000E+00 -0.74505805969E-08  0.93827000000E+00  0.93827000000E+00 0.  1.
     999902    2    1    2    0    0  0.19225626069E-01  0.28905870310E-02 -0.14073637443E-01  0.10199290112E+01  0.10196465763E+01 0.  0.
     999903    2    3    3    0    0  0.54117938485E-01  0.45084679901E-01  0.10715320169E+00  0.12993251603E+00  0.20958780094E-01 0.  0.
         14    1    1    2    0    0 -0.19225626069E-01 -0.28905870310E-02  0.14073637443E-01  0.24000988771E-01  0.00000000000E+00 0. -1.
     999901    1    3    3    0    0 -0.34892312416E-01 -0.42194092870E-01 -0.12122683913E+00  0.88999649520E+00  0.88000000000E+00 0.  1.
        -11    1    4    4    0    0  0.27693980410E-01  0.32815754355E-01  0.51015568523E-01  0.66683428508E-01  0.51100000000E-03 0. -1.
         11    1    4    4    0    0  0.26423958075E-01  0.12268925546E-01  0.56137633163E-01  0.63249087523E-01  0.51100000000E-03 0.  1.
</event>
<event>
 8    1  0.1079886E+005  0.1043930E+01  0.7957747E-01            NaN
         13   -1    0    0    0    0  0.00000000000E+00  0.00000000000E+00  0.74505805969E-08  0.10566000000E+00  0.10566000000E+00 0. -1.
     999900   -1    0    0    0    0 -0.00000000000E+00 -0.00000000000E+00 -0.74505805969E-08  0.93827000000E+00  0.93827000000E+00 0. -1.
     999902    2    1    2    0    0  0.13939824133E-02  0.86822952823E-02  0.21844196053E-01  0.10203822965E+01  0.10201105512E+01 0.  0.
     999903    2    3    3    0    0 -0.11689826094E-01  0.11047348543E+00  0.70553076082E-01  0.13308010029E+00  0.19787206248E-01 0.  0.
         14    1    1    2    0    0 -0.13939824133E-02 -0.86822952823E-02 -0.21844196053E-01  0.23547703488E-01  0.00000000000E+00 0.  1.
     999901    1    3    3    0    0  0.13083808507E-01 -0.10179119014E+00 -0.48708880029E-01  0.88730219623E+00  0.88000000000E+00 0.  1.
        -11    1    4    4    0    0 -0.60447126813E-02  0.64344772491E-01  0.52330520329E-01  0.83159682402E-01  0.51100000000E-03 0. -1.
         11    1    4    4    0    0 -0.56451134125E-02  0.46128712935E-01  0.18222555753E-01  0.49920417883E-01  0.51100000000E-03 0.  1.
</event>
<event>
 8    1  0.1078274E+005  0.1043930E+01  0.7957747E-01            NaN
         13   -1    0    0    0    0  0.00000000000E+00  0.00000000000E+00  0.74505805969E-08  0.10566000000E+00  0.10566000000E+00 0. -1.
     999900   -1    0    0    0    0 -0.00000000000E+00 -0.00000000000E+00 -0.74505805969E-08  0.93827000000E+00  0.93827000000E+00 0.  1.
     999902    2    1    2    0    0 -0.20631301800E-01  0.10755076247E-01  0.30399501050E-02  0.10204659088E+01  0.10201961123E+01 0.  0.
     999903    2    3    3    0    0 -0.11943756331E+00  0.53975075072E-01 -0.16774769594E-01  0.13366081819E+00  0.20129112434E-01 0.  0.
         14    1    1    2    0    0  0.20631301800E-01 -0.10755076247E-01 -0.30399501050E-02  0.23464091197E-01  0.00000000000E+00 0.  1.
     999901    1    3    3    0    0  0.98806261509E-01 -0.43219998824E-01  0.19814719699E-01  0.88680509061E+00  0.88000000000E+00 0. -1.
        -11    1    4    4    0    0 -0.25694756688E-01  0.15222013397E-01 -0.11751102350E-01  0.32097970973E-01  0.51100000000E-03 0.  1.
         11    1    4    4    0    0 -0.93742806621E-01  0.38753061675E-01 -0.50236672445E-02  0.10156284722E+00  0.51100000000E-03 0. -1.
</event>
<event>
 8    1  0.1078274E+005  0.1043930E+01  0.7957747E-01            NaN
         13   -1    0    0    0    0  0.00000000000E+00  0.00000000000E+00  0.74505805969E-08  0.10566000000E+00  0.10566000000E+00 0.  1.
     999900   -1    0    0    0    0 -0.00000000000E+00 -0.00000000000E+00 -0.74505805969E-08  0.93827000000E+00  0.93827000000E+00 0.  1.
     999902    2    1    2    0    0  0.84468211299E-02 -0.46728463782E-02 -0.21387757943E-01  0.10204646965E+01  0.10201948717E+01 0.  0.
     999903    2    3    3    0    0  0.41573834654E-01  0.36093630245E-01 -0.11996619408E+00  0.13340381201E+00  0.19327583006E-01 0.  0.
         14    1    1    2    0    0 -0.84468211299E-02  0.46728463782E-02  0.21387757943E-01  0.23465303542E-01  0.00000000000E+00 0.  1.
     999901    1    3    3    0    0 -0.33127013524E-01 -0.40766476623E-01  0.98578436139E-01  0.88706088445E+00  0.88000000000E+00 0. -1.
        -11    1    4    4    0    0  0.53388867557E-02  0.15511676136E-01 -0.39815315303E-01  0.43065488062E-01  0.51100000000E-03 0.  1.
         11    1    4    4    0    0  0.36234947899E-01  0.20581954109E-01 -0.80150878779E-01  0.90338323950E-01  0.51100000000E-03 0. -1.
</event>
<event>
 8    1  0.1078274E+005  0.1043930E+01  0.7957747E-01            NaN
         13   -1    0    0    0    0  0.00000000000E+00  0.00000000000E+00  0.74505805969E-08  0.10566000000E+00  0.10566000000E+00 0.  1.
     999900   -1    0    0    0    0 -0.00000000000E+00 -0.00000000000E+00 -0.74505805969E-08  0.93827000000E+00  0.93827000000E+00 0. -1.
     999902    2    1    2    0    0  0.15118312206E-01  0.16523104594E-01  0.10702165085E-01  0.10191083827E+01  0.10188060576E+01 0.  0.
     999903    2    3    3    0    0  0.54408512996E-01 -0.37303243447E-01 -0.10861352733E+00  0.12855954623E+00  0.19463821555E-01 0.  0.
         14    1    1    2    0    0 -0.15118312206E-01 -0.16523104594E-01 -0.10702165085E-01  0.24821617330E-01  0.00000000000E+00 0. -1.
     999901    1    3    3    0    0 -0.39290200790E-01  0.53826348041E-01  0.11931569242E+00  0.89054883644E+00  0.88000000000E+00 0.  1.
        -11    1    4    4    0    0  0.42217393056E-01 -0.37477458626E-01 -0.86254444169E-01  0.10308714004E+00  0.51100000000E-03 0. -1.
         11    1    4    4    0    0  0.12191119939E-01  0.17421517896E-03 -0.22359083166E-01  0.25472406194E-01  0.51100000000E-03 0.  1.
</event>
<event>
 8    1  0.1078274E+005  0.1043930E+01  0.7957747E-01            NaN
         13   -1    0    0    0    0  0.00000000000E+00  0.00000000000E+00  0.74505805969E-08  0.10566000000E+00  0.10566000000E+00 0.  1.
     999900   -1    0    0    0    0 -0.00000000000E+00 -0.00000000000E+00 -0.74505805969E-08  0.93827000000E+00  0.93827000000E+00 0.  1.
     999902    2    1    2    0    0  0.45333172921E-02 -0.41800780492E-02 -0.23219878625E-01  0.10199052881E+01  0.10196222879E+01 0.  0.
     999903    2    3    3    0    0  0.36863648447E-01 -0.43884904187E-01  0.11263953844E+00  0.12800871073E+00  0.20340870452E-01 0.  0.
         14    1    1    2    0    0 -0.45333172921E-02  0.41800780492E-02  0.23219878625E-01  0.24024711893E-01  0.00000000000E+00 0.  1.
     999901    1    3    3    0    0 -0.32330331155E-01  0.39704826137E-01 -0.13585941706E+00  0.89189657738E+00  0.88000000000E+00 0.  1.
        -11    1    4    4    0    0  0.26115001664E-01 -0.36410879131E-01  0.67609286578E-01  0.81111171756E-01  0.51100000000E-03 0.  1.
         11    1    4    4    0    0  0.10748646784E-01 -0.74740250558E-02  0.45030251861E-01  0.46897538975E-01  0.51100000000E-03 0. -1.
</event>
<event>
 8    1  0.1078274E+005  0.1043930E+01  0.7957747E-01            NaN
         13   -1    0    0    0    0  0.00000000000E+00  0.00000000000E+00  0.74505805969E-08  0.10566000000E+00  0.10566000000E+00 0.  1.
     999900   -1    0    0    0    0 -0.00000000000E+00 -0.00000000000E+00 -0.74505805969E-08  0.93827000000E+00  0.93827000000E+00 0. -1.
     999902    2    1    2    0    0  0.22133353982E-01 -0.10511829584E-01 -0.76403515137E-02  0.10182637013E+01  0.10179401782E+01 0.  0.
     999903    2    3    3    0    0 -0.45871943908E-01  0.11611800061E+00  0.22492925921E-02  0.12654758080E+00  0.20533036399E-01 0.  0.
         14    1    1    2    0    0 -0.22133353982E-01  0.10511829584E-01  0.76403515137E-02  0.25666298739E-01  0.00000000000E+00 0.  1.
     999901    1    3    3    0    0  0.68005297891E-01 -0.12662983020E+00 -0.98896441058E-02  0.89171612047E+00  0.88000000000E+00 0. -1.
        -11    1    4    4    0    0 -0.20454565818E-01  0.49898946914E-01  0.11114218920E-01  0.55064336454E-01  0.51100000000E-03 0.  1.
         11    1    4    4    0    0 -0.25417378091E-01  0.66219053700E-01 -0.88649263281E-02  0.71483244342E-01  0.51100000000E-03 0. -1.
</event>
<event>
 8    1  0.1078274E+005  0.1043930E+01  0.7957747E-01            NaN
         13   -1    0    0    0    0  0.00000000000E+00  0.00000000000E+00  0.74505805969E-08  0.10566000000E+00  0.10566000000E+00 0.  1.
     999900   -1    0    0    0    0 -0.00000000000E+00 -0.00000000000E+00 -0.74505805969E-08  0.93827000000E+00  0.93827000000E+00 0. -1.
     999902    2    1    2    0    0  0.86833090460E-02  0.22598916318E-02  0.22329934760E-01  0.10198648187E+01  0.10195808528E+01 0.  0.
     999903    2    3    3    0    0 -0.20213090333E-01  0.12715857152E+00 -0.15881342470E-03  0.13029164802E+00  0.19950363154E-01 0.  0.
         14    1    1    2    0    0 -0.86833090460E-02 -0.22598916318E-02 -0.22329934760E-01  0.24065181333E-01  0.00000000000E+00 0. -1.
     999901    1    3    3    0    0  0.28896399379E-01 -0.12489867989E+00  0.22488748185E-01  0.88957317064E+00  0.88000000000E+00 0. -1.
        -11    1    4    4    0    0 -0.22765569495E-01  0.95643846931E-01 -0.42324430229E-02  0.98408288803E-01  0.51100000000E-03 0. -1.
         11    1    4    4    0    0  0.25524791618E-02  0.31514724592E-01  0.40736295982E-02  0.31883359219E-01  0.51100000000E-03 0.  1.
</event>
<event>
 8    1  0.1078274E+005  0.1043930E+01  0.7957747E-01            NaN
         13   -1    0    0    0    0  0.00000000000E+00  0.00000000000E+00  0.74505805969E-08  0.10566000000E+00  0.10566000000E+00 0. -1.
     999900   -1    0    0    0    0 -0.00000000000E+00 -0.00000000000E+00 -0.74505805969E-08  0.93827000000E+00  0.93827000000E+00 0. -1.
     999902    2    1    2    0    0 -0.97151381514E-02  0.20981586062E-01 -0.13827679550E-02  0.10207670358E+01  0.10205041982E+01 0.  0.
     999903    2    3    3    0    0 -0.64175187044E-01  0.11657009720E-01  0.11266082912E+00  0.13168954386E+00  0.19882983623E-01 0.  0.
         14    1    1    2    0    0  0.97151381514E-02 -0.20981586062E-01  0.13827679550E-02  0.23162964192E-01  0.00000000000E+00 0. -1.
     999901    1    3    3    0    0  0.54460048893E-01  0.93245763416E-02 -0.11404359707E+00  0.88907749194E+00  0.88000000000E+00 0. -1.
        -11    1    4    4    0    0 -0.33690551727E-01 -0.28713691829E-02  0.47661024449E-01  0.58439134227E-01  0.51100000000E-03 0.  1.
         11    1    4    4    0    0 -0.30484635317E-01  0.14528378903E-01  0.64999804669E-01  0.73250409636E-01  0.51100000000E-03 0. -1.
</event>
<event>
 8    1  0.1078274E+005  0.1043930E+01  0.7957747E-01            NaN
         13   -1    0    0    0    0  0.00000000000E+00  0.00000000000E+00  0.74505805969E-08  0.10566000000E+00  0.10566000000E+00 0.  1.
     999900   -1    0    0    0    0 -0.00000000000E+00 -0.00000000000E+00 -0.74505805969E-08  0.93827000000E+00  0.93827000000E+00 0.  1.
     999902    2    1    2    0    0  0.19205245029E-01  0.19948729926E-01 -0.35034717849E-02  0.10160182180E+01  0.10156347531E+01 0.  0.
     999903    2    3    3    0    0 -0.90848622359E-01  0.80912654532E-01 -0.28361475867E-01  0.12672278100E+00  0.21306338551E-01 0.  0.
         14    1    1    2    0    0 -0.19205245029E-01 -0.19948729926E-01  0.35034717849E-02  0.27911782043E-01  0.00000000000E+00 0. -1.
     999901    1    3    3    0    0  0.11005386739E+00 -0.60963924606E-01  0.24858004082E-01  0.88929543696E+00  0.88000000000E+00 0.  1.
        -11    1    4    4    0    0 -0.80729660955E-01  0.61201827687E-01 -0.22052035772E-01  0.10367977273E+00  0.51100000000E-03 0.  1.
         11    1    4    4    0    0 -0.10118961404E-01  0.19710826846E-01 -0.63094400944E-02  0.23043008270E-01  0.51100000000E-03 0. -1.
</event>
<event>
 8    1  0.1078274E+005  0.1043930E+01  0.7957747E-01            NaN
         13   -1    0    0    0    0  0.00000000000E+00  0.00000000000E+00  0.74505805969E-08  0.10566000000E+00  0.10566000000E+00 0. -1.
     999900   -1    0    0    0    0 -0.00000000000E+00 -0.00000000000E+00 -0.74505805969E-08  0.93827000000E+00  0.93827000000E+00 0. -1.
     999902    2    1    2    0    0 -0.14510706737E-01 -0.49411792621E-02  0.17070241077E-01  0.10209872671E+01  0.10207294600E+01 0.  0.
     999903    2    3    3    0    0 -0.12824679192E+00 -0.19182000702E-01 -0.20344123648E-01  0.13276514806E+00  0.19937712597E-01 0.  0.
         14    1    1    2    0    0  0.14510706737E-01  0.49411792621E-02 -0.17070241077E-01  0.22942732901E-01  0.00000000000E+00 0.  1.
     999901    1    3    3    0    0  0.11373608518E+00  0.14240821440E-01  0.37414364726E-01  0.88822211904E+00  0.88000000000E+00 0.  1.
        -11    1    4    4    0    0 -0.45336952581E-01  0.20267558289E-02 -0.33125924634E-02  0.45505839168E-01  0.51100000000E-03 0.  1.
         11    1    4    4    0    0 -0.82909839336E-01 -0.21208756531E-01 -0.17031531185E-01  0.87259308889E-01  0.51100000000E-03 0. -1.
</event>
<event>
 8    1  0.1078274E+005  0.1043930E+01  0.7957747E-01            NaN
         13   -1    0    0    0    0  0.00000000000E+00  0.00000000000E+00  0.74505805969E-08  0.10566000000E+00  0.10566000000E+00 0. -1.
     999900   -1    0    0    0    0 -0.00000000000E+00 -0.00000000000E+00 -0.74505805969E-08  0.93827000000E+00  0.93827000000E+00 0. -1.
     999902    2    1    2    0    0 -0.16190119992E-01 -0.70517193410E-02  0.13136737009E-01  0.10219204432E+01  0.10216834009E+01 0.  0.
     999903    2    3    3    0    0  0.81374500296E-01 -0.17198039655E-01  0.10080054772E+00  0.13214139948E+00  0.19570824451E-01 0.  0.
         14    1    1    2    0    0  0.16190119992E-01  0.70517193410E-02 -0.13136737009E-01  0.22009556794E-01  0.00000000000E+00 0.  1.
     999901    1    3    3    0    0 -0.97564620289E-01  0.10146320314E-01 -0.87663810707E-01  0.88977904373E+00  0.88000000000E+00 0. -1.
        -11    1    4    4    0    0  0.64418115445E-01 -0.11784913988E-01  0.90034268814E-01  0.11133287240E+00  0.51100000000E-03 0.  1.
         11    1    4    4    0    0  0.16956384852E-01 -0.54131256669E-02  0.10766278902E-01  0.20808527077E-01  0.51100000000E-03 0. -1.
</event>
<event>
 8    1  0.1078274E+005  0.1043930E+01  0.7957747E-01            NaN
         13   -1    0    0    0    0  0.00000000000E+00  0.00000000000E+00  0.74505805969E-08  0.10566000000E+00  0.10566000000E+00 0.  1.
     999900   -1    0    0    0    0 -0.00000000000E+00 -0.00000000000E+00 -0.74505805969E-08  0.93827000000E+00  0.93827000000E+00 0. -1.
     999902    2    1    2    0    0 -0.67000068614E-02  0.19676460765E-01 -0.10862139990E-01  0.10204770836E+01  0.10202075470E+01 0.  0.
     999903    2    3    3    0    0  0.48197040039E-01 -0.11593587660E+00 -0.18246213478E-01  0.12836783230E+00  0.19526748634E-01 0.  0.
         14    1    1    2    0    0  0.67000068614E-02 -0.19676460765E-01  0.10862139990E-01  0.23452916351E-01  0.00000000000E+00 0.  1.
     999901    1    3    3    0    0 -0.54897046901E-01  0.13561233736E+00  0.73840734876E-02  0.89210925135E+00  0.88000000000E+00 0. -1.
        -11    1    4    4    0    0  0.30281218920E-01 -0.89163431916E-01 -0.19336650401E-01  0.96131352742E-01  0.51100000000E-03 0. -1.
         11    1    4    4    0    0  0.17915821120E-01 -0.26772444680E-01  0.10904369235E-02  0.32236479557E-01  0.51100000000E-03 0.  1.
</event>
<event>
 8    1  0.1078274E+005  0.1043930E+01  0.7957747E-01            NaN
         13   -1    0    0    0    0  0.00000000000E+00  0.00000000000E+00  0.74505805969E-08  0.10566000000E+00  0.10566000000E+00 0.  1.
     999900   -1    0    0    0    0 -0.00000000000E+00 -0.00000000000E+00 -0.74505805969E-08  0.93827000000E+00  0.93827000000E+00 0. -1.
     999902    2    1    2    0    0 -0.70536569066E-02  0.16424624852E-01  0.19962236102E-01  0.10171342308E+01  0.10167812106E+01 0.  0.
     999903    2    3    3    0    0  0.18948964303E-01  0.11899265889E+00 -0.41066685519E-01  0.12869691326E+00  0.18923707480E-01 0.  0.
         14    1    1    2    0    0  0.70536569066E-02 -0.16424624852E-01 -0.19962236102E-01  0.26795769209E-01  0.00000000000E+00 0.  1.
     999901    1    3    3    0    0 -0.26002621210E-01 -0.10256803403E+00  0.61028921621E-01  0.88843731754E+00  0.88000000000E+00 0. -1.
        -11    1    4    4    0    0  0.98443682145E-03  0.64382927677E-01 -0.19288958533E-01  0.67219458004E-01  0.51100000000E-03 0.  1.
         11    1    4    4    0    0  0.17964527482E-01  0.54609731210E-01 -0.21777726986E-01  0.61477455251E-01  0.51100000000E-03 0. -1.
</event>
<event>
 8    1  0.1078274E+005  0.1043930E+01  0.7957747E-01            NaN
         13   -1    0    0    0    0  0.00000000000E+00  0.00000000000E+00  0.74505805969E-08  0.10566000000E+00  0.10566000000E+00 0. -1.
     999900   -1    0    0    0    0 -0.00000000000E+00 -0.00000000000E+00 -0.74505805969E-08  0.93827000000E+00  0.93827000000E+00 0.  1.
     999902    2    1    2    0    0  0.22277966987E-02 -0.15643330701E-01  0.18726714610E-01  0.10194276182E+01  0.10191331130E+01 0.  0.
     999903    2    3    3    0    0 -0.91438970937E-01 -0.90937154539E-01 -0.90976590377E-02  0.13082375875E+00  0.20035892092E-01 0.  0.
         14    1    1    2    0    0 -0.22277966987E-02  0.15643330701E-01 -0.18726714610E-01  0.24502381795E-01  0.00000000000E+00 0.  1.
     999901    1    3    3    0    0  0.93666767636E-01  0.75293823839E-01  0.27824373648E-01  0.88860385945E+00  0.88000000000E+00 0.  1.
        -11    1    4    4    0    0 -0.87829177777E-01 -0.83368224723E-01 -0.12540193938E-01  0.12174458077E+00  0.51100000000E-03 0.  1.
         11    1    4    4    0    0 -0.36097931605E-02 -0.75689298166E-02  0.34425349000E-02  0.90791779787E-02  0.51100000000E-03 0. -1.
</event>
<event>
 8    1  0.1078274E+005  0.1043930E+01  0.7957747E-01            NaN
         13   -1    0    0    0    0  0.00000000000E+00  0.00000000000E+00  0.74505805969E-08  0.10566000000E+00  0.10566000000E+00 0.  1.
     999900   -1    0    0    0    0 -0.00000000000E+00 -0.00000000000E+00 -0.74505805969E-08  0.93827000000E+00  0.93827000000E+00 0.  1.
     999902    2    1    2    0    0 -0.58646137384E-02  0.47201288266E-02  0.22724700486E-01  0.10199907995E+01  0.10197098340E+01 0.  0.
     999903    2    3    3    0    0 -0.11723886172E+00  0.72962454420E-02 -0.52127207181E-01  0.12981459916E+00  0.18341170383E-01 0.  0.
         14    1    1    2    0    0  0.58646137384E-02 -0.47201288266E-02 -0.22724700486E-01  0.23939200543E-01  0.00000000000E+00 0. -1.
     999901    1    3    3    0    0  0.11137424799E+00 -0.25761166154E-02  0.74851907668E-01  0.89017620030E+00  0.88000000000E+00 0.  1.
        -11    1    4    4    0    0 -0.45722341921E-01  0.65540448007E-02 -0.11674452715E-01  0.47644957983E-01  0.51100000000E-03 0.  1.
         11    1    4    4    0    0 -0.71516519803E-01  0.74220064135E-03 -0.40452754466E-01  0.82169641178E-01  0.51100000000E-03 0. -1.
</event>
<event>
 8    1  0.1078274E+005  0.1043930E+01  0.7957747E-01            NaN
         13   -1    0    0    0    0  0.00000000000E+00  0.00000000000E+00  0.74505805969E-08  0.10566000000E+00  0.10566000000E+00 0. -1.
     999900   -1    0    0    0    0 -0.00000000000E+00 -0.00000000000E+00 -0.74505805969E-08  0.93827000000E+00  0.93827000000E+00 0.  1.
     999902    2    1    2    0    0  0.13705891716E-02 -0.16318196722E-01  0.16815832026E-01  0.10204580110E+01  0.10201880307E+01 0.  0.
     999903    2    3    3    0    0 -0.89736881735E-01  0.33539789224E-01 -0.83607307324E-01  0.12867821931E+00  0.19755426676E-01 0.  0.
         14    1    1    2    0    0 -0.13705891716E-02  0.16318196722E-01 -0.16815832026E-01  0.23471988958E-01  0.00000000000E+00 0.  1.
     999901    1    3    3    0    0  0.91107470906E-01 -0.49857985946E-01  0.10042313935E+00  0.89177979173E+00  0.88000000000E+00 0.  1.
        -11    1    4    4    0    0 -0.94211713780E-02  0.85444178261E-02 -0.54184719527E-02  0.13834251170E-01  0.51100000000E-03 0. -1.
         11    1    4    4    0    0 -0.80315710357E-01  0.24995371398E-01 -0.78188835371E-01  0.11484396814E+00  0.51100000000E-03 0.  1.
</event>
<event>
 8    1  0.1078274E+005  0.1043930E+01  0.7957747E-01            NaN
         13   -1    0    0    0    0  0.00000000000E+00  0.00000000000E+00  0.74505805969E-08  0.10566000000E+00  0.10566000000E+00 0.  1.
     999900   -1    0    0    0    0 -0.00000000000E+00 -0.00000000000E+00 -0.74505805969E-08  0.93827000000E+00  0.93827000000E+00 0. -1.
     999902    2    1    2    0    0 -0.71026638097E-02  0.15042402916E-01  0.15466495995E-01  0.10212158146E+01  0.10209631756E+01 0.  0.
     999903    2    3    3    0    0  0.90552235064E-01 -0.48296123829E-01  0.79373553521E-01  0.13125381530E+00  0.19879139338E-01 0.  0.
         14    1    1    2    0    0  0.71026638097E-02 -0.15042402916E-01 -0.15466495995E-01  0.22714185371E-01  0.00000000000E+00 0. -1.
     999901    1    3    3    0    0 -0.97654898874E-01  0.63338526745E-01 -0.63907057526E-01  0.88996199933E+00  0.88000000000E+00 0. -1.
        -11    1    4    4    0    0  0.70672441845E-01 -0.44903922475E-01  0.57971691665E-01  0.10184269461E+00  0.51100000000E-03 0.  1.
         11    1    4    4    0    0  0.19879793219E-01 -0.33922013544E-02  0.21401861856E-01  0.29411120692E-01  0.51100000000E-03 0. -1.
</event>
<event>
 8    1  0.1078274E+005  0.1043930E+01  0.7957747E-01            NaN
         13   -1    0    0    0    0  0.00000000000E+00  0.00000000000E+00  0.74505805969E-08  0.10566000000E+00  0.10566000000E+00 0. -1.
     999900   -1    0    0    0    0 -0.00000000000E+00 -0.00000000000E+00 -0.74505805969E-08  0.93827000000E+00  0.93827000000E+00 0. -1.
     999902    2    1    2    0    0  0.21587228888E-01  0.57527179484E-02 -0.25812730650E-03  0.10215879132E+01  0.10213435737E+01 0.  0.
     999903    2    3    3    0    0 -0.96374072709E-01  0.60860693340E-01  0.58335947818E-01  0.13008074927E+00  0.22933221262E-01 0.  0.
         14    1    1    2    0    0 -0.21587228888E-01 -0.57527179484E-02  0.25812730650E-03  0.22342086844E-01  0.00000000000E+00 0. -1.
     999901    1    3    3    0    0  0.11796130160E+00 -0.55107975391E-01 -0.58594075124E-01  0.89150716389E+00  0.88000000000E+00 0. -1.
        -11    1    4    4    0    0 -0.36920270921E-01  0.34362346663E-01  0.32751107338E-01  0.60139616111E-01  0.51100000000E-03 0.  1.
         11    1    4    4    0    0 -0.59453801789E-01  0.26498346677E-01  0.25584840479E-01  0.69941133156E-01  0.51100000000E-03 0. -1.
</event>
<event>
 8    1  0.1078274E+005  0.1043930E+01  0.7957747E-01            NaN
         13   -1    0    0    0    0  0.00000000000E+00  0.00000000000E+00  0.74505805969E-08  0.10566000000E+00  0.10566000000E+00 0.  1.
     999900   -1    0    0    0    0 -0.00000000000E+00 -0.00000000000E+00 -0.74505805969E-08  0.93827000000E+00  0.93827000000E+00 0.  1.
     999902    2    1    2    0    0 -0.20730754497E-01  0.12253663203E-01  0.34432345935E-02  0.10196036294E+01  0.10193133908E+01 0.  0.
     999903    2    3    3    0    0 -0.48809507183E-02 -0.12110714970E+00 -0.37771393496E-01  0.12846112209E+00  0.19616736035E-01 0.  0.
         14    1    1    2    0    0  0.20730754497E-01 -0.12253663203E-01 -0.34432345935E-02  0.24326370637E-01  0.00000000000E+00 0. -1.
     999901    1    3    3    0    0 -0.15849803779E-01  0.13336081291E+00  0.41214628089E-01  0.89114250727E+00  0.88000000000E+00 0. -1.
        -11    1    4    4    0    0 -0.63622451485E-02 -0.46480130748E-01 -0.23472363876E-01  0.52460401300E-01  0.51100000000E-03 0.  1.
         11    1    4    4    0    0  0.14812944302E-02 -0.74627018957E-01 -0.14299029620E-01  0.76000720790E-01  0.51100000000E-03 0. -1.
</event>
<event>
 8    1  0.1078274E+005  0.1043930E+01  0.7957747E-01            NaN
         13   -1    0    0    0    0  0.00000000000E+00  0.00000000000E+00  0.74505805969E-08  0.10566000000E+00  0.10566000000E+00 0. -1.
     999900   -1    0    0    0    0 -0.00000000000E+00 -0.00000000000E+00 -0.74505805969E-08  0.93827000000E+00  0.93827000000E+00 0. -1.
     999902    2    1    2    0    0  0.12317698325E-01  0.18788524229E-01 -0.64946121742E-02  0.10205438006E+01  0.10202758130E+01 0.  0.
     999903    2    3    3    0    0 -0.10360837085E+00  0.77271652777E-01  0.70340981203E-02  0.13091345274E+00  0.19576790840E-01 0.  0.
         14    1    1    2    0    0 -0.12317698325E-01 -0.18788524229E-01  0.64946121742E-02  0.23386199393E-01  0.00000000000E+00 0. -1.
     999901    1    3    3    0    0  0.11592606918E+00 -0.58483128548E-01 -0.13528710294E-01  0.88963034786E+00  0.88000000000E+00 0. -1.
        -11    1    4    4    0    0 -0.41055602343E-01  0.19298310062E-01  0.44620661062E-02  0.45586822766E-01  0.51100000000E-03 0. -1.
         11    1    4    4    0    0 -0.62552768507E-01  0.57973342715E-01  0.25720320141E-02  0.85326629976E-01  0.51100000000E-03 0.  1.
</event>
<event>
 8    1  0.1078274E+005  0.1043930E+01  0.7957747E-01            NaN
         13   -1    0    0    0    0  0.00000000000E+00  0.00000000000E+00  0.74505805969E-08  0.10566000000E+00  0.10566000000E+00 0.  1.
     999900   -1    0    0    0    0 -0.00000000000E+00 -0.00000000000E+00 -0.74505805969E-08  0.93827000000E+00  0.93827000000E+00 0.  1.
     999902    2    1    2    0    0 -0.40243087284E-02  0.23392059198E-01 -0.43559325113E-02  0.10197979126E+01  0.10195123466E+01 0.  0.
     999903    2    3    3    0    0  0.52607488326E-01 -0.10745481211E+00 -0.40530405436E-01  0.12758904879E+00  0.17949014787E-01 0.  0.
         14    1    1    2    0    0  0.40243087284E-02 -0.23392059198E-01  0.43559325113E-02  0.24132087401E-01  0.00000000000E+00 0.  1.
     999901    1    3    3    0    0 -0.56631797054E-01  0.13084687131E+00  0.36174472925E-01  0.89220886381E+00  0.88000000000E+00 0. -1.
        -11    1    4    4    0    0  0.41019655594E-01 -0.90417831578E-01 -0.39790529690E-01  0.10696515220E+00  0.51100000000E-03 0.  1.
         11    1    4    4    0    0  0.11587832732E-01 -0.17036980536E-01 -0.73987574654E-03  0.20623896585E-01  0.51100000000E-03 0. -1.
</event>
<event>
 8    1  0.1078274E+005  0.1043930E+01  0.7957747E-01            NaN
         13   -1    0    0    0    0  0.00000000000E+00  0.00000000000E+00  0.74505805969E-08  0.10566000000E+00  0.10566000000E+00 0. -1.
     999900   -1    0    0    0    0 -0.00000000000E+00 -0.00000000000E+00 -0.74505805969E-08  0.93827000000E+00  0.93827000000E+00 0.  1.
     999902    2    1    2    0    0  0.21776756876E-01  0.78610588914E-02 -0.25924410285E-02  0.10206331303E+01  0.10203672097E+01 0.  0.
     999903    2    3    3    0    0 -0.11571371973E+00  0.51765540192E-01 -0.12417985991E-01  0.12882161661E+00  0.19273464732E-01 0.  0.
         14    1    1    2    0    0 -0.21776756876E-01 -0.78610588914E-02  0.25924410285E-02  0.23296869692E-01  0.00000000000E+00 0. -1.
     999901    1    3    3    0    0  0.13749047661E+00 -0.43904481301E-01  0.98255449628E-02  0.89181151370E+00  0.88000000000E+00 0. -1.
        -11    1    4    4    0    0 -0.92393671698E-01  0.32449277661E-01 -0.88446811836E-02  0.98326169949E-01  0.51100000000E-03 0. -1.
         11    1    4    4    0    0 -0.23320048037E-01  0.19316262531E-01 -0.35733048077E-02  0.30495446658E-01  0.51100000000E-03 0.  1.
</event>
<event>
 8    1  0.1078274E+005  0.1043930E+01  0.7957747E-01            NaN
         13   -1    0    0    0    0  0.00000000000E+00  0.00000000000E+00  0.74505805969E-08  0.10566000000E+00  0.10566000000E+00 0.  1.
     999900   -1    0    0    0    0 -0.00000000000E+00 -0.00000000000E+00 -0.74505805969E-08  0.93827000000E+00  0.93827000000E+00 0. -1.
     999902    2    1    2    0    0  0.15419005437E-01  0.99217431546E-02 -0.15748767114E-01  0.10197595556E+01  0.10194730702E+01 0.  0.
     999903    2    3    3    0    0 -0.12093291344E+00 -0.13383917525E-01 -0.36736185290E-01  0.12870654299E+00  0.20296011828E-01 0.  0.
         14    1    1    2    0    0 -0.15419005437E-01 -0.99217431546E-02  0.15748767114E-01  0.24170444380E-01  0.00000000000E+00 0.  1.
     999901    1    3    3    0    0  0.13635191888E+00  0.23305660680E-01  0.20987418175E-01  0.89105301263E+00  0.88000000000E+00 0. -1.
        -11    1    4    4    0    0 -0.10688643689E+00 -0.50401777148E-02 -0.31964925995E-01  0.11167869715E+00  0.51100000000E-03 0.  1.
         11    1    4    4    0    0 -0.14046476550E-01 -0.83437398107E-02 -0.47712592946E-02  0.17027845834E-01  0.51100000000E-03 0. -1.
</event>
<event>
 8    1  0.1078274E+005  0.1043930E+01  0.7957747E-01            NaN
         13   -1    0    0    0    0  0.00000000000E+00  0.00000000000E+00  0.74505805969E-08  0.10566000000E+00  0.10566000000E+00 0.  1.
     999900   -1    0    0    0    0 -0.00000000000E+00 -0.00000000000E+00 -0.74505805969E-08  0.93827000000E+00  0.93827000000E+00 0. -1.
     999902    2    1    2    0    0  0.16730657129E-01 -0.78544467334E-02  0.14288767439E-01  0.10205681487E+01  0.10203007253E+01 0.  0.
     999903    2    3    3    0    0 -0.92521757436E-01  0.74530147575E-01  0.47193545587E-01  0.12938576787E+00  0.19960653440E-01 0.  0.
         14    1    1    2    0    0 -0.16730657129E-01  0.78544467334E-02 -0.14288767439E-01  0.23361851305E-01  0.00000000000E+00 0. -1.
     999901    1    3    3    0    0  0.10925241457E+00 -0.82384594309E-01 -0.32904778148E-01  0.89118238082E+00  0.88000000000E+00 0. -1.
        -11    1    4    4    0    0 -0.44285992761E-01  0.36039450163E-01  0.12013088945E-01  0.58349520563E-01  0.51100000000E-03 0.  1.
         11    1    4    4    0    0 -0.48235764675E-01  0.38490697412E-01  0.35180456642E-01  0.71036247308E-01  0.51100000000E-03 0. -1.
</event>
<event>
 8    1  0.1078274E+005  0.1043930E+01  0.7957747E-01            NaN
         13   -1    0    0    0    0  0.00000000000E+00  0.00000000000E+00  0.74505805969E-08  0.10566000000E+00  0.10566000000E+00 0. -1.
     999900   -1    0    0    0    0 -0.00000000000E+00 -0.00000000000E+00 -0.74505805969E-08  0.93827000000E+00  0.93827000000E+00 0.  1.
     999902    2    1    2    0    0 -0.47736322266E-02 -0.22543873952E-01  0.44303630083E-02  0.10204642391E+01  0.10201944037E+01 0.  0.
     999903    2    3    3    0    0 -0.47013218839E-01  0.59326382148E-01  0.10394919247E+00  0.13007616702E+00  0.19608983871E-01 0.  0.
         14    1    1    2    0    0  0.47736322266E-02  0.22543873952E-01 -0.44303630083E-02  0.23465760882E-01  0.00000000000E+00 0.  1.
     999901    1    3    3    0    0  0.42239586613E-01 -0.81870256101E-01 -0.99518829459E-01  0.89038807209E+00  0.88000000000E+00 0. -1.
        -11    1    4    4    0    0 -0.15064572075E-01  0.34461243941E-01  0.53239305377E-01  0.65185914305E-01  0.51100000000E-03 0. -1.
         11    1    4    4    0    0 -0.31948646764E-01  0.24865138208E-01  0.50709887090E-01  0.64890252718E-01  0.51100000000E-03 0.  1.
</event>
<event>
 8    1  0.1078274E+005  0.1043930E+01  0.7957747E-01            NaN
         13   -1    0    0    0    0  0.00000000000E+00  0.00000000000E+00  0.74505805969E-08  0.10566000000E+00  0.10566000000E+00 0. -1.
     999900   -1    0    0    0    0 -0.00000000000E+00 -0.00000000000E+00 -0.74505805969E-08  0.93827000000E+00  0.93827000000E+00 0.  1.
     999902    2    1    2    0    0 -0.11875395187E-01 -0.81660058218E-02  0.18249815580E-01  0.10206756578E+01  0.10204107183E+01 0.  0.
     999903    2    3    3    0    0  0.10658609964E+00  0.15258623023E-01  0.71595204051E-01  0.13082872184E+00  0.19921320245E-01 0.  0.
         14    1    1    2    0    0  0.11875395187E-01  0.81660058218E-02 -0.18249815580E-01  0.23254342189E-01  0.00000000000E+00 0. -1.
     999901    1    3    3    0    0 -0.11846149483E+00 -0.23424628845E-01 -0.53345388471E-01  0.88984693598E+00  0.88000000000E+00 0.  1.
        -11    1    4    4    0    0  0.39731297691E-01  0.58243860260E-02  0.38507934812E-01  0.55638311021E-01  0.51100000000E-03 0. -1.
         11    1    4    4    0    0  0.66854801952E-01  0.94342369968E-02  0.33087269239E-01  0.75190410815E-01  0.51100000000E-03 0.  1.
</event>
<event>
 8    1  0.1078274E+005  0.1043930E+01  0.7957747E-01            NaN
         13   -1    0    0    0    0  0.00000000000E+00  0.00000000000E+00  0.74505805969E-08  0.10566000000E+00  0.10566000000E+00 0. -1.
     999900   -1    0    0    0    0 -0.00000000000E+00 -0.00000000000E+00 -0.74505805969E-08  0.93827000000E+00  0.93827000000E+00 0.  1.
     999902    2    1    2    0    0  0.36257250063E-03  0.11062498798E-01  0.19929698048E-01  0.10211330001E+01  0.10208784946E+01 0.  0.
     999903    2    3    3    0    0 -0.18043138868E-01  0.26427202471E-01  0.12927643343E+00  0.13404137417E+00  0.15190189543E-01 0.  0.
         14    1    1    2    0    0 -0.36257250063E-03 -0.11062498798E-01 -0.19929698048E-01  0.22796999864E-01  0.00000000000E+00 0.  1.
     999901    1    3    3    0    0  0.18405711369E-01 -0.15364703673E-01 -0.10934673538E+00  0.88709162597E+00  0.88000000000E+00 0.  1.
        -11    1    4    4    0    0  0.45024559236E-03  0.11508803478E-01  0.47701775539E-01  0.49075205441E-01  0.51100000000E-03 0. -1.
         11    1    4    4    0    0 -0.18493384460E-01  0.14918398994E-01  0.81574657887E-01  0.84966168724E-01  0.51100000000E-03 0.  1.
</event>
<event>
 8    1  0.1078274E+005  0.1043930E+01  0.7957747E-01            NaN
         13   -1    0    0    0    0  0.00000000000E+00  0.00000000000E+00  0.74505805969E-08  0.10566000000E+00  0.10566000000E+00 0. -1.
     999900   -1    0    0    0    0 -0.00000000000E+00 -0.00000000000E+00 -0.74505805969E-08  0.93827000000E+00  0.93827000000E+00 0. -1.
     999902    2    1    2    0    0 -0.63798760300E-03  0.59915047124E-02  0.31579092651E-01  0.10117812170E+01  0.10112703332E+01 0.  0.
     999903    2    3    3    0    0 -0.49764510907E-01 -0.98569140354E-01  0.53080224947E-01  0.12397006450E+00  0.18938971319E-01 0.  0.
         14    1    1    2    0    0  0.63798760300E-03 -0.59915047124E-02 -0.31579092651E-01  0.32148783019E-01  0.00000000000E+00 0.  1.
     999901    1    3    3    0    0  0.49126523304E-01  0.10456064507E+00 -0.21501132296E-01  0.88781115249E+00  0.88000000000E+00 0.  1.
        -11    1    4    4    0    0 -0.46528998255E-01 -0.76865012551E-01  0.39440350557E-01  0.98127367264E-01  0.51100000000E-03 0. -1.
         11    1    4    4    0    0 -0.32355126514E-02 -0.21704127803E-01  0.13639874390E-01  0.25842697232E-01  0.51100000000E-03 0.  1.
</event>
<event>
 8    1  0.1078274E+005  0.1043930E+01  0.7957747E-01            NaN
         13   -1    0    0    0    0  0.00000000000E+00  0.00000000000E+00  0.74505805969E-08  0.10566000000E+00  0.10566000000E+00 0.  1.
     999900   -1    0    0    0    0 -0.00000000000E+00 -0.00000000000E+00 -0.74505805969E-08  0.93827000000E+00  0.93827000000E+00 0.  1.
     999902    2    1    2    0    0 -0.16993048150E-02  0.14691543955E-01  0.18527018368E-01  0.10202238930E+01  0.10199484361E+01 0.  0.
     999903    2    3    3    0    0  0.11092780666E+00  0.67865901284E-01  0.98540503697E-02  0.13141142744E+00  0.16158654228E-01 0.  0.
         14    1    1    2    0    0  0.16993048150E-02 -0.14691543955E-01 -0.18527018368E-01  0.23706107025E-01  0.00000000000E+00 0. -1.
     999901    1    3    3    0    0 -0.11262711147E+00 -0.53174357329E-01  0.86729679986E-02  0.88881246553E+00  0.88000000000E+00 0.  1.
        -11    1    4    4    0    0  0.35158896027E-01  0.29257063170E-01 -0.48417083547E-03  0.45745155564E-01  0.51100000000E-03 0.  1.
         11    1    4    4    0    0  0.75768910629E-01  0.38608838114E-01  0.10338221205E-01  0.85666271876E-01  0.51100000000E-03 0. -1.
</event>
<event>
 8    1  0.1078274E+005  0.1043930E+01  0.7957747E-01            NaN
         13   -1    0    0    0    0  0.00000000000E+00  0.00000000000E+00  0.74505805969E-08  0.10566000000E+00  0.10566000000E+00 0.  1.
     999900   -1    0    0    0    0 -0.00000000000E+00 -0.00000000000E+00 -0.74505805969E-08  0.93827000000E+00  0.93827000000E+00 0.  1.
     999902    2    1    2    0    0  0.15965127702E-01 -0.92369337309E-02  0.57223111398E-02  0.10246180583E+01  0.10244360470E+01 0.  0.
     999903    2    3    3    0    0 -0.86619013175E-01  0.97429518109E-01  0.61970639130E-02  0.13226080737E+00  0.21427858559E-01 0.  0.
         14    1    1    2    0    0 -0.15965127702E-01  0.92369337309E-02 -0.57223111398E-02  0.19311941696E-01  0.00000000000E+00 0. -1.
     999901    1    3    3    0    0  0.10258414088E+00 -0.10666645184E+00 -0.47475277320E-03  0.89235725094E+00  0.88000000000E+00 0. -1.
        -11    1    4    4    0    0 -0.20206280245E-01  0.37646473559E-01  0.32703324360E-02  0.42854485507E-01  0.51100000000E-03 0.  1.
         11    1    4    4    0    0 -0.66412732929E-01  0.59783044549E-01  0.29267314770E-02  0.89406321862E-01  0.51100000000E-03 0. -1.
</event>
<event>
 8    1  0.1078274E+005  0.1043930E+01  0.7957747E-01            NaN
         13   -1    0    0    0    0  0.00000000000E+00  0.00000000000E+00  0.74505805969E-08  0.10566000000E+00  0.10566000000E+00 0.  1.
     999900   -1    0    0    0    0 -0.00000000000E+00 -0.00000000000E+00 -0.74505805969E-08  0.93827000000E+00  0.93827000000E+00 0. -1.
     999902    2    1    2    0    0  0.19098137772E-02  0.14741455823E-01  0.20741770208E-01  0.10184117920E+01  0.10180920386E+01 0.  0.
     999903    2    3    3    0    0  0.12754131576E-01 -0.67291464486E-01 -0.10361571816E+00  0.12582466227E+00  0.20120127209E-01 0.  0.
         14    1    1    2    0    0 -0.19098137772E-02 -0.14741455823E-01 -0.20741770208E-01  0.25518208006E-01  0.00000000000E+00 0. -1.
     999901    1    3    3    0    0 -0.10844317799E-01  0.82032920309E-01  0.12435748837E+00  0.89258712973E+00  0.88000000000E+00 0.  1.
        -11    1    4    4    0    0  0.18171005864E-01 -0.54986809487E-01 -0.83024282755E-01  0.10122760157E+00  0.51100000000E-03 0. -1.
         11    1    4    4    0    0 -0.54168742880E-02 -0.12304654999E-01 -0.20591435409E-01  0.24597060696E-01  0.51100000000E-03 0.  1.
</event>
<event>
 8    1  0.1078274E+005  0.1043930E+01  0.7957747E-01            NaN
         13   -1    0    0    0    0  0.00000000000E+00  0.00000000000E+00  0.74505805969E-08  0.10566000000E+00  0.10566000000E+00 0.  1.
     999900   -1    0    0    0    0 -0.00000000000E+00 -0.00000000000E+00 -0.74505805969E-08  0.93827000000E+00  0.93827000000E+00 0.  1.
     999902    2    1    2    0    0 -0.18955749954E-02  0.19058321018E-01 -0.11218534730E-01  0.10217338669E+01  0.10214927442E+01 0.  0.
     999903    2    3    3    0    0  0.87287583288E-01  0.94223705468E-01  0.29129364054E-01  0.13312178971E+00  0.19382006495E-01 0.  0.
         14    1    1    2    0    0  0.18955749954E-02 -0.19058321018E-01  0.11218534730E-01  0.22196133133E-01  0.00000000000E+00 0.  1.
     999901    1    3    3    0    0 -0.89183158283E-01 -0.75165384450E-01 -0.40347898785E-01  0.88861207716E+00  0.88000000000E+00 0. -1.
        -11    1    4    4    0    0  0.37711535471E-01  0.35690412270E-01  0.20898513006E-01  0.55972979218E-01  0.51100000000E-03 0.  1.
         11    1    4    4    0    0  0.49576047816E-01  0.58533293198E-01  0.82308510480E-02  0.77148810487E-01  0.51100000000E-03 0. -1.
</event>
<event>
 8    1  0.1078274E+005  0.1043930E+01  0.7957747E-01            NaN
         13   -1    0    0    0    0  0.00000000000E+00  0.00000000000E+00  0.74505805969E-08  0.10566000000E+00  0.10566000000E+00 0.  1.
     999900   -1    0    0    0    0 -0.00000000000E+00 -0.00000000000E+00 -0.74505805969E-08  0.93827000000E+00  0.93827000000E+00 0. -1.
     999902    2    1    2    0    0 -0.29600383738E-03  0.82281747598E-02  0.22533050136E-01  0.10199398181E+01  0.10196576405E+01 0.  0.
     999903    2    3    3    0    0  0.50661854986E-01  0.10011537237E+00 -0.61796659162E-01  0.12968622485E+00  0.20247925756E-01 0.  0.
         14    1    1    2    0    0  0.29600383738E-03 -0.82281747598E-02 -0.22533050136E-01  0.23990181879E-01  0.00000000000E+00 0. -1.
     999901    1    3    3    0    0 -0.50957858823E-01 -0.91887197609E-01  0.84329709297E-01  0.89025359327E+00  0.88000000000E+00 0.  1.
        -11    1    4    4    0    0  0.25854439350E-01  0.60230351100E-01 -0.46195437023E-01  0.80189941704E-01  0.51100000000E-03 0. -1.
         11    1    4    4    0    0  0.24807415636E-01  0.39885021269E-01 -0.15601222138E-01  0.49496283147E-01  0.51100000000E-03 0.  1.
</event>
<event>
 8    1  0.1113068E+005  0.1043930E+01  0.7957747E-01            NaN
         13   -1    0    0    0    0  0.00000000000E+00  0.00000000000E+00  0.74505805969E-08  0.10566000000E+00  0.10566000000E+00 0. -1.
     999900   -1    0    0    0    0 -0.00000000000E+00 -0.00000000000E+00 -0.74505805969E-08  0.93827000000E+00  0.93827000000E+00 0.  1.
     999902    2    1    2    0    0  0.99295814391E-02 -0.93695142130E-02 -0.20269703925E-01  0.10194913977E+01  0.10191984423E+01 0.  0.
     999903    2    3    3    0    0 -0.99769899109E-01  0.70274661470E-01 -0.36641002268E-01  0.12896055033E+00  0.19892201494E-01 0.  0.
         14    1    1    2    0    0 -0.99295814391E-02  0.93695142130E-02  0.20269703925E-01  0.24438602279E-01  0.00000000000E+00 0. -1.
     999901    1    3    3    0    0  0.10969948055E+00 -0.79644175683E-01  0.16371298344E-01  0.89053084740E+00  0.88000000000E+00 0. -1.
        -11    1    4    4    0    0 -0.38162642992E-01  0.21305807643E-01 -0.44665939905E-02  0.43937869114E-01  0.51100000000E-03 0. -1.
         11    1    4    4    0    0 -0.61607256117E-01  0.48968853828E-01 -0.32174408278E-01  0.85022681212E-01  0.51100000000E-03 0.  1.
</event>
<event>
 8    1  0.1078274E+005  0.1043930E+01  0.7957747E-01            NaN
         13   -1    0    0    0    0  0.00000000000E+00  0.00000000000E+00  0.74505805969E-08  0.10566000000E+00  0.10566000000E+00 0.  1.
     999900   -1    0    0    0    0 -0.00000000000E+00 -0.00000000000E+00 -0.74505805969E-08  0.93827000000E+00  0.93827000000E+00 0.  1.
     999902    2    1    2    0    0  0.91632974869E-02 -0.31800324203E-02 -0.20204785079E-01  0.10215176827E+01  0.10212717876E+01 0.  0.
     999903    2    3    3    0    0  0.38640043662E-01 -0.12260772847E+00  0.21819112630E-01  0.13196843665E+00  0.20344201672E-01 0.  0.
         14    1    1    2    0    0 -0.91632974869E-02  0.31800324203E-02  0.20204785079E-01  0.22412317308E-01  0.00000000000E+00 0.  1.
     999901    1    3    3    0    0 -0.29476746175E-01  0.11942769605E+00 -0.42023897709E-01  0.88954924604E+00  0.88000000000E+00 0. -1.
        -11    1    4    4    0    0  0.10354607817E-01 -0.66276751495E-01  0.12750764202E-01  0.68283737452E-01  0.51100000000E-03 0.  1.
         11    1    4    4    0    0  0.28285435845E-01 -0.56330976977E-01  0.90683484276E-02  0.63684699201E-01  0.51100000000E-03 0. -1.
</event>
<event>
 7    1  0.1078274E+005  0.1043930E+01  0.7957747E-01            NaN
         13   -1    0    0    0    0  0.00000000000E+00  0.00000000000E+00  0.74505805969E-08  0.10566000000E+00  0.10566000000E+00 0.  1.
     999900   -1    0    0    0    0 -0.00000000000E+00 -0.00000000000E+00 -0.74505805969E-08  0.93827000000E+00  0.93827000000E+00 0.  1.
     999902    2    1    2    0    0  0.19768342012E-01  0.10557557547E-01  0.68252242617E-02  0.10205028138E+01  0.10202338751E+01 0.  0.
         14    1    1    2    0    0 -0.19768342012E-01 -0.10557557547E-01 -0.68252242617E-02  0.23427186205E-01  0.00000000000E+00 0.  1.
     999901    1    3    3    0    0  0.16716795319E-01 -0.42073745101E-04  0.13082097023E+00  0.88982783687E+00  0.88000000000E+00 0. -1.
        -11    1    3    3    0    0 -0.40667214423E-02  0.21697566256E-01 -0.10648095067E+00  0.10874638652E+00  0.51100000000E-03 0.  1.
         11    1    3    3    0    0  0.71182681358E-02 -0.11097934964E-01 -0.17514795304E-01  0.21928590408E-01  0.51100000000E-03 0. -1.
</event>
<event>
 8    1  0.1078274E+005  0.1043930E+01  0.7957747E-01            NaN
         13   -1    0    0    0    0  0.00000000000E+00  0.00000000000E+00  0.74505805969E-08  0.10566000000E+00  0.10566000000E+00 0.  1.
     999900   -1    0    0    0    0 -0.00000000000E+00 -0.00000000000E+00 -0.74505805969E-08  0.93827000000E+00  0.93827000000E+00 0.  1.
     999902    2    1    2    0    0  0.20852093907E-01 -0.10382084363E-01  0.37631404729E-02  0.10203342647E+01  0.10200613967E+01 0.  0.
     999903    2    3    3    0    0  0.84603464636E-02 -0.17592856151E-01  0.12859183319E+00  0.13140920988E+00  0.18746595149E-01 0.  0.
         14    1    1    2    0    0 -0.20852093907E-01  0.10382084363E-01 -0.37631404729E-02  0.23595735255E-01  0.00000000000E+00 0. -1.
     999901    1    3    3    0    0  0.12391747444E-01  0.72107717882E-02 -0.12482869272E+00  0.88892505486E+00  0.88000000000E+00 0.  1.
        -11    1    4    4    0    0  0.85265720706E-02 -0.21124883872E-01  0.98229501101E-01  0.10083778636E+00  0.51100000000E-03 0. -1.
         11    1    4    4    0    0 -0.66225607027E-04  0.35320277208E-02  0.30362332087E-01  0.30571423526E-01  0.51100000000E-03 0.  1.
</event>
<event>
 8    1  0.1078274E+005  0.1043930E+01  0.7957747E-01            NaN
         13   -1    0    0    0    0  0.00000000000E+00  0.00000000000E+00  0.74505805969E-08  0.10566000000E+00  0.10566000000E+00 0. -1.
     999900   -1    0    0    0    0 -0.00000000000E+00 -0.00000000000E+00 -0.74505805969E-08  0.93827000000E+00  0.93827000000E+00 0. -1.
     999902    2    1    2    0    0 -0.94076029304E-02 -0.20312750690E-01 -0.98822729954E-02  0.10194602196E+01  0.10191665071E+01 0.  0.
     999903    2    3    3    0    0  0.11863809466E+00 -0.48414480371E-01 -0.31635220032E-02  0.12972399492E+00  0.19983682662E-01 0.  0.
         14    1    1    2    0    0  0.94076029304E-02  0.20312750690E-01  0.98822729954E-02  0.24469780405E-01  0.00000000000E+00 0. -1.
     999901    1    3    3    0    0 -0.12804569759E+00  0.28101729681E-01 -0.67187509922E-02  0.88973622467E+00  0.88000000000E+00 0.  1.
        -11    1    4    4    0    0  0.49096955070E-01 -0.95518321422E-02 -0.13224551098E-02  0.50037570914E-01  0.51100000000E-03 0. -1.
         11    1    4    4    0    0  0.69541139590E-01 -0.38862648229E-01 -0.18410668934E-02  0.79686424007E-01  0.51100000000E-03 0.  1.
</event>
<event>
 8    1  0.1078274E+005  0.1043930E+01  0.7957747E-01            NaN
         13   -1    0    0    0    0  0.00000000000E+00  0.00000000000E+00  0.74505805969E-08  0.10566000000E+00  0.10566000000E+00 0.  1.
     999900   -1    0    0    0    0 -0.00000000000E+00 -0.00000000000E+00 -0.74505805969E-08  0.93827000000E+00  0.93827000000E+00 0. -1.
     999902    2    1    2    0    0  0.22848257092E-01 -0.23891695188E-02  0.28656188562E-02  0.10207791306E+01  0.10205165705E+01 0.  0.
     999903    2    3    3    0    0  0.53338277016E-01 -0.84933845491E-01  0.84564569919E-01  0.13262487402E+00  0.19479754090E-01 0.  0.
         14    1    1    2    0    0 -0.22848257092E-01  0.23891695188E-02 -0.28656188562E-02  0.23150869412E-01  0.00000000000E+00 0. -1.
     999901    1    3    3    0    0 -0.30490019925E-01  0.82544675972E-01 -0.81698951063E-01  0.88815425656E+00  0.88000000000E+00 0. -1.
        -11    1    4    4    0    0  0.35296561300E-01 -0.38688629863E-01  0.47025338099E-01  0.70386794675E-01  0.51100000000E-03 0.  1.
         11    1    4    4    0    0  0.18041715716E-01 -0.46245215628E-01  0.37539231820E-01  0.62238079349E-01  0.51100000000E-03 0. -1.
</event>
<event>
 7    1  0.1078274E+005  0.1043930E+01  0.7957747E-01            NaN
         13   -1    0    0    0    0  0.00000000000E+00  0.00000000000E+00  0.74505805969E-08  0.10566000000E+00  0.10566000000E+00 0.  1.
     999900   -1    0    0    0    0 -0.00000000000E+00 -0.00000000000E+00 -0.74505805969E-08  0.93827000000E+00  0.93827000000E+00 0. -1.
     999903    2    1    2    0    0 -0.11404715526E+00 -0.96140861557E-03 -0.16171956252E-01  0.11711143656E+00  0.21115834714E-01 0.  0.
         14    1    1    2    0    0  0.32380301664E-02  0.79747477030E-02  0.38610271256E-01  0.39557988912E-01  0.00000000000E+00 0.  1.
     999901    1    1    2    0    0  0.11080912509E+00 -0.70133390874E-02 -0.22438315005E-01  0.88726057453E+00  0.88000000000E+00 0. -1.
        -11    1    3    3    0    0 -0.72638322433E-01 -0.22033679618E-03 -0.20472240324E-01  0.75470180728E-01  0.51100000000E-03 0. -1.
         11    1    3    3    0    0 -0.41408832824E-01 -0.74107181940E-03  0.43002840723E-02  0.41641255834E-01  0.51100000000E-03 0.  1.
</event>
<event>
 8    1  0.1078274E+005  0.1043930E+01  0.7957747E-01            NaN
         13   -1    0    0    0    0  0.00000000000E+00  0.00000000000E+00  0.74505805969E-08  0.10566000000E+00  0.10566000000E+00 0.  1.
     999900   -1    0    0    0    0 -0.00000000000E+00 -0.00000000000E+00 -0.74505805969E-08  0.93827000000E+00  0.93827000000E+00 0. -1.
     999902    2    1    2    0    0  0.22376683067E-02 -0.17235533702E-01 -0.15410392169E-01  0.10207017636E+01  0.10204374254E+01 0.  0.
     999903    2    3    3    0    0 -0.78250924854E-01 -0.21266270134E-01 -0.10313910474E+00  0.13267530704E+00  0.19738305020E-01 0.  0.
         14    1    1    2    0    0 -0.22376683067E-02  0.17235533702E-01  0.15410392169E-01  0.23228236443E-01  0.00000000000E+00 0.  1.
     999901    1    3    3    0    0  0.80488593161E-01  0.40307364318E-02  0.87728712574E-01  0.88802645652E+00  0.88000000000E+00 0. -1.
        -11    1    4    4    0    0 -0.25947275755E-01 -0.13217915090E-01 -0.48754892147E-01  0.56791504890E-01  0.51100000000E-03 0.  1.
         11    1    4    4    0    0 -0.52303649099E-01 -0.80483550433E-02 -0.54384212596E-01  0.75883802149E-01  0.51100000000E-03 0. -1.
</event>
<event>
 8    1  0.1078274E+005  0.1043930E+01  0.7957747E-01            NaN
         13   -1    0    0    0    0  0.00000000000E+00  0.00000000000E+00  0.74505805969E-08  0.10566000000E+00  0.10566000000E+00 0. -1.
     999900   -1    0    0    0    0 -0.00000000000E+00 -0.00000000000E+00 -0.74505805969E-08  0.93827000000E+00  0.93827000000E+00 0.  1.
     999902    2    1    2    0    0  0.16310667280E-01  0.12271569997E-01 -0.13680448846E-01  0.10193579838E+01  0.10190617819E+01 0.  0.
     999903    2    3    3    0    0 -0.35188865840E-01  0.38634490811E-01 -0.11871248446E+00  0.13122571103E+00  0.19916151991E-01 0.  0.
         14    1    1    2    0    0 -0.16310667280E-01 -0.12271569997E-01  0.13680448846E-01  0.24572016155E-01  0.00000000000E+00 0. -1.
     999901    1    3    3    0    0  0.51499533120E-01 -0.26362920813E-01  0.10503203561E+00  0.88813227281E+00  0.88000000000E+00 0. -1.
        -11    1    4    4    0    0 -0.22666533635E-01  0.12246428414E-01 -0.43786324901E-01  0.50806004815E-01  0.51100000000E-03 0. -1.
         11    1    4    4    0    0 -0.12522332205E-01  0.26388062396E-01 -0.74926159559E-01  0.80419706218E-01  0.51100000000E-03 0.  1.
</event>
<event>
 8    1  0.1078274E+005  0.1043930E+01  0.7957747E-01            NaN
         13   -1    0    0    0    0  0.00000000000E+00  0.00000000000E+00  0.74505805969E-08  0.10566000000E+00  0.10566000000E+00 0.  1.
     999900   -1    0    0    0    0 -0.00000000000E+00 -0.00000000000E+00 -0.74505805969E-08  0.93827000000E+00  0.93827000000E+00 0. -1.
     999902    2    1    2    0    0 -0.14051974587E-01  0.16923027398E-01 -0.96651470990E-02  0.10199037245E+01  0.10196206870E+01 0.  0.
     999903    2    3    3    0    0 -0.96326027181E-01  0.55867175114E-01 -0.70297731611E-01  0.13313319235E+00  0.19566069336E-01 0.  0.
         14    1    1    2    0    0  0.14051974587E-01 -0.16923027398E-01  0.96651470990E-02  0.24026275503E-01  0.00000000000E+00 0.  1.
     999901    1    3    3    0    0  0.82274052594E-01 -0.38944147716E-01  0.60632584512E-01  0.88677053214E+00  0.88000000000E+00 0.  1.
        -11    1    4    4    0    0 -0.80756556050E-01  0.39331425756E-01 -0.50804902582E-01  0.10319874827E+00  0.51100000000E-03 0.  1.
         11    1    4    4    0    0 -0.15569471131E-01  0.16535749358E-01 -0.19492829029E-01  0.29934444085E-01  0.51100000000E-03 0. -1.
</event>
<event>
 8    1  0.1078274E+005  0.1043930E+01  0.7957747E-01            NaN
         13   -1    0    0    0    0  0.00000000000E+00  0.00000000000E+00  0.74505805969E-08  0.10566000000E+00  0.10566000000E+00 0. -1.
     999900   -1    0    0    0    0 -0.00000000000E+00 -0.00000000000E+00 -0.74505805969E-08  0.93827000000E+00  0.93827000000E+00 0. -1.
     999902    2    1    2    0    0 -0.87530885671E-02 -0.21480401897E-01 -0.57440464471E-02  0.10200340109E+01  0.10197540709E+01 0.  0.
     999903    2    3    3    0    0 -0.33858194859E-01  0.29931340977E-01  0.11954676823E+00  0.12932012760E+00  0.19748495553E-01 0.  0.
         14    1    1    2    0    0  0.87530885671E-02  0.21480401897E-01  0.57440464471E-02  0.23895989092E-01  0.00000000000E+00 0.  1.
     999901    1    3    3    0    0  0.25105106292E-01 -0.51411742874E-01 -0.12529081468E+00  0.89071388330E+00  0.88000000000E+00 0. -1.
        -11    1    4    4    0    0 -0.34463419764E-01  0.21205466387E-01  0.10109390804E+00  0.10889278429E+00  0.51100000000E-03 0. -1.
         11    1    4    4    0    0  0.60522490560E-03  0.87258745900E-02  0.18452860189E-01  0.20427343310E-01  0.51100000000E-03 0.  1.
</event>
<event>
 8    1  0.1078274E+005  0.1043930E+01  0.7957747E-01            NaN
         13   -1    0    0    0    0  0.00000000000E+00  0.00000000000E+00  0.74505805969E-08  0.10566000000E+00  0.10566000000E+00 0. -1.
     999900   -1    0    0    0    0 -0.00000000000E+00 -0.00000000000E+00 -0.74505805969E-08  0.93827000000E+00  0.93827000000E+00 0.  1.
     999902    2    1    2    0    0 -0.27969499104E-04  0.18675278814E-01 -0.15053042688E-01  0.10199433180E+01  0.10196612236E+01 0.  0.
     999903    2    3    3    0    0 -0.28360668472E-01  0.25352720707E-01  0.12177237748E+00  0.12889420278E+00  0.18387920791E-01 0.  0.
         14    1    1    2    0    0  0.27969499104E-04 -0.18675278814E-01  0.15053042688E-01  0.23986682039E-01  0.00000000000E+00 0.  1.
     999901    1    3    3    0    0  0.28332698973E-01 -0.66774418924E-02 -0.13682542016E+00  0.89104911518E+00  0.88000000000E+00 0.  1.
        -11    1    4    4    0    0 -0.12066059847E-02  0.10068679068E-01  0.42969359676E-01  0.44152703067E-01  0.51100000000E-03 0. -1.
         11    1    4    4    0    0 -0.27154062487E-01  0.15284041638E-01  0.78803017800E-01  0.84741499713E-01  0.51100000000E-03 0.  1.
</event>
<event>
 8    1  0.1078274E+005  0.1043930E+01  0.7957747E-01            NaN
         13   -1    0    0    0    0  0.00000000000E+00  0.00000000000E+00  0.74505805969E-08  0.10566000000E+00  0.10566000000E+00 0. -1.
     999900   -1    0    0    0    0 -0.00000000000E+00 -0.00000000000E+00 -0.74505805969E-08  0.93827000000E+00  0.93827000000E+00 0.  1.
     999902    2    1    2    0    0 -0.11071969188E-01 -0.10968618035E-01 -0.17048285719E-01  0.10208314475E+01  0.10205700863E+01 0.  0.
     999903    2    3    3    0    0  0.12369885018E+00 -0.25002763475E-01 -0.26117470191E-01  0.13041447711E+00  0.19981738453E-01 0.  0.
         14    1    1    2    0    0  0.11071969188E-01  0.10968618035E-01  0.17048285719E-01  0.23098552536E-01  0.00000000000E+00 0. -1.
     999901    1    3    3    0    0 -0.13477081937E+00  0.14034145440E-01  0.90691844725E-02  0.89041697036E+00  0.88000000000E+00 0.  1.
        -11    1    4    4    0    0  0.57077133262E-01 -0.21323159401E-01 -0.15231030746E-01  0.62807019408E-01  0.51100000000E-03 0. -1.
         11    1    4    4    0    0  0.66621716922E-01 -0.36796040743E-02 -0.10886439445E-01  0.67607457699E-01  0.51100000000E-03 0.  1.
</event>
<event>
 8    1  0.1078274E+005  0.1043930E+01  0.7957747E-01            NaN
         13   -1    0    0    0    0  0.00000000000E+00  0.00000000000E+00  0.74505805969E-08  0.10566000000E+00  0.10566000000E+00 0. -1.
     999900   -1    0    0    0    0 -0.00000000000E+00 -0.00000000000E+00 -0.74505805969E-08  0.93827000000E+00  0.93827000000E+00 0. -1.
     999902    2    1    2    0    0 -0.19196730104E-01  0.93484710223E-02  0.10149201753E-01  0.10202886241E+01  0.10200146871E+01 0.  0.
     999903    2    3    3    0    0  0.68225487488E-01  0.46823678551E-01  0.99252387731E-01  0.13068960599E+00  0.19533628135E-01 0.  0.
         14    1    1    2    0    0  0.19196730104E-01 -0.93484710223E-02 -0.10149201753E-01  0.23641375877E-01  0.00000000000E+00 0. -1.
     999901    1    3    3    0    0 -0.87422217592E-01 -0.37475207529E-01 -0.89103185978E-01  0.88959901813E+00  0.88000000000E+00 0. -1.
        -11    1    4    4    0    0  0.13034410496E-01  0.40416548584E-02  0.26700145226E-01  0.29989826726E-01  0.51100000000E-03 0. -1.
         11    1    4    4    0    0  0.55191076992E-01  0.42782023693E-01  0.72552242505E-01  0.10069977927E+00  0.51100000000E-03 0.  1.
</event>
<event>
 8    1  0.1078274E+005  0.1043930E+01  0.7957747E-01            NaN
         13   -1    0    0    0    0  0.00000000000E+00  0.00000000000E+00  0.74505805969E-08  0.10566000000E+00  0.10566000000E+00 0.  1.
     999900   -1    0    0    0    0 -0.00000000000E+00 -0.00000000000E+00 -0.74505805969E-08  0.93827000000E+00  0.93827000000E+00 0.  1.
     999902    2    1    2    0    0  0.36877808327E-02 -0.11593678876E-02  0.21659343664E-01  0.10219283858E+01  0.10216915164E+01 0.  0.
     999903    2    3    3    0    0 -0.12726430101E+00 -0.16842907955E-01  0.23626373095E-01  0.13209790169E+00  0.20291975365E-01 0.  0.
         14    1    1    2    0    0 -0.36877808327E-02  0.11593678876E-02 -0.21659343664E-01  0.22001614244E-01  0.00000000000E+00 0. -1.
     999901    1    3    3    0    0  0.13095208185E+00  0.15683540068E-01 -0.19670294309E-02  0.88983048407E+00  0.88000000000E+00 0.  1.
        -11    1    4    4    0    0 -0.13708253590E-01 -0.40283699632E-02  0.89847263354E-02  0.16885804967E-01  0.51100000000E-03 0. -1.
         11    1    4    4    0    0 -0.11355604742E+00 -0.12814537992E-01  0.14641646760E-01  0.11521209672E+00  0.51100000000E-03 0.  1.
</event>
<event>
 8    1  0.1078274E+005  0.1043930E+01  0.7957747E-01            NaN
         13   -1    0    0    0    0  0.00000000000E+00  0.00000000000E+00  0.74505805969E-08  0.10566000000E+00  0.10566000000E+00 0.  1.
     999900   -1    0    0    0    0 -0.00000000000E+00 -0.00000000000E+00 -0.74505805969E-08  0.93827000000E+00  0.93827000000E+00 0.  1.
     999902    2    1    2    0    0  0.18736978647E-02  0.22308055367E-01 -0.68374878884E-02  0.10205224944E+01  0.10202540126E+01 0.  0.
     999903    2    3    3    0    0  0.11389171219E+00 -0.52354958081E-01 -0.27830843200E-01  0.13003761408E+00  0.20563596485E-01 0.  0.
         14    1    1    2    0    0 -0.18736978647E-02 -0.22308055367E-01  0.68374878884E-02  0.23407505603E-01  0.00000000000E+00 0.  1.
     999901    1    3    3    0    0 -0.11201801433E+00  0.74663013448E-01  0.20993355311E-01  0.89048488032E+00  0.88000000000E+00 0. -1.
        -11    1    4    4    0    0  0.62167698998E-01 -0.33836433538E-01 -0.24844790615E-01  0.75015010331E-01  0.51100000000E-03 0. -1.
         11    1    4    4    0    0  0.51724013192E-01 -0.18518524544E-01 -0.29860525845E-02  0.55022603746E-01  0.51100000000E-03 0.  1.
</event>
<event>
 8    1  0.1078274E+005  0.1043930E+01  0.7957747E-01            NaN
         13   -1    0    0    0    0  0.00000000000E+00  0.00000000000E+00  0.74505805969E-08  0.10566000000E+00  0.10566000000E+00 0.  1.
     999900   -1    0    0    0    0 -0.00000000000E+00 -0.00000000000E+00 -0.74505805969E-08  0.93827000000E+00  0.93827000000E+00 0.  1.
     999902    2    1    2    0    0  0.93802734169E-03 -0.13978129194E-02 -0.23816826378E-01  0.10200537567E+01  0.10197742846E+01 0.  0.
     999903    2    3    3    0    0  0.93247715886E-01  0.84570834089E-01 -0.30618750872E-01  0.13103297344E+00  0.19615548066E-01 0.  0.
         14    1    1    2    0    0 -0.93802734169E-03  0.13978129194E-02  0.23816826378E-01  0.23876243318E-01  0.00000000000E+00 0.  1.
     999901    1    3    3    0    0 -0.92309688544E-01 -0.85968647008E-01  0.68019244935E-02  0.88902078325E+00  0.88000000000E+00 0.  1.
        -11    1    4    4    0    0  0.50706890924E-01  0.58681386304E-01 -0.16903276325E-01  0.79376796089E-01  0.51100000000E-03 0. -1.
         11    1    4    4    0    0  0.42540824962E-01  0.25889447784E-01 -0.13715474546E-01  0.51656177346E-01  0.51100000000E-03 0.  1.
</event>
<event>
 8    1  0.1078274E+005  0.1043930E+01  0.7957747E-01            NaN
         13   -1    0    0    0    0  0.00000000000E+00  0.00000000000E+00  0.74505805969E-08  0.10566000000E+00  0.10566000000E+00 0.  1.
     999900   -1    0    0    0    0 -0.00000000000E+00 -0.00000000000E+00 -0.74505805969E-08  0.93827000000E+00  0.93827000000E+00 0. -1.
     999902    2    1    2    0    0 -0.81418460255E-02  0.25843429830E-01  0.26303313609E-02  0.10167070104E+01  0.10163424884E+01 0.  0.
     999903    2    3    3    0    0  0.54345015866E-01  0.72731261241E-01  0.89352029617E-01  0.12900000374E+00  0.20346956963E-01 0.  0.
         14    1    1    2    0    0  0.81418460255E-02 -0.25843429830E-01 -0.26303313609E-02  0.27222989643E-01  0.00000000000E+00 0. -1.
     999901    1    3    3    0    0 -0.62486861892E-01 -0.46887831411E-01 -0.86721698256E-01  0.88770700661E+00  0.88000000000E+00 0. -1.
        -11    1    4    4    0    0  0.38890247900E-01  0.64228718281E-01  0.76307164723E-01  0.10705523875E+00  0.51100000000E-03 0. -1.
         11    1    4    4    0    0  0.15454767966E-01  0.85025429599E-02  0.13044864894E-01  0.21944764997E-01  0.51100000000E-03 0.  1.
</event>
<event>
 8    1  0.1078274E+005  0.1043930E+01  0.7957747E-01            NaN
         13   -1    0    0    0    0  0.00000000000E+00  0.00000000000E+00  0.74505805969E-08  0.10566000000E+00  0.10566000000E+00 0. -1.
     999900   -1    0    0    0    0 -0.00000000000E+00 -0.00000000000E+00 -0.74505805969E-08  0.93827000000E+00  0.93827000000E+00 0.  1.
     999902    2    1    2    0    0  0.14793451379E-01  0.17588371278E-01 -0.28936805369E-02  0.10207660108E+01  0.10205031496E+01 0.  0.
     999903    2    3    3    0    0  0.20230964947E-01  0.10953715190E+00 -0.70487081840E-01  0.13338051808E+00  0.20353238292E-01 0.  0.
         14    1    1    2    0    0 -0.14793451379E-01 -0.17588371278E-01  0.28936805369E-02  0.23163989186E-01  0.00000000000E+00 0.  1.
     999901    1    3    3    0    0 -0.54375135675E-02 -0.91948780620E-01  0.67593401303E-01  0.88738549273E+00  0.88000000000E+00 0. -1.
        -11    1    4    4    0    0 -0.17405981336E-02  0.36450684775E-01 -0.17529879421E-01  0.40487527660E-01  0.51100000000E-03 0. -1.
         11    1    4    4    0    0  0.21971563080E-01  0.73086467123E-01 -0.52957202418E-01  0.92892990423E-01  0.51100000000E-03 0.  1.
</event>
<event>
 8    1  0.1078274E+005  0.1043930E+01  0.7957747E-01            NaN
         13   -1    0    0    0    0  0.00000000000E+00  0.00000000000E+00  0.74505805969E-08  0.10566000000E+00  0.10566000000E+00 0.  1.
     999900   -1    0    0    0    0 -0.00000000000E+00 -0.00000000000E+00 -0.74505805969E-08  0.93827000000E+00  0.93827000000E+00 0. -1.
     999902    2    1    2    0    0 -0.19926676050E-01 -0.10317823348E-01  0.88619904833E-02  0.10198039814E+01  0.10195185608E+01 0.  0.
     999903    2    3    3    0    0 -0.11419559639E+00  0.12441040930E-01 -0.61211232669E-01  0.13170778627E+00  0.20117460703E-01 0.  0.
         14    1    1    2    0    0  0.19926676050E-01  0.10317823348E-01 -0.88619904833E-02  0.24126018577E-01  0.00000000000E+00 0. -1.
     999901    1    3    3    0    0  0.94268920337E-01 -0.22758864279E-01  0.70073223153E-01  0.88809619515E+00  0.88000000000E+00 0.  1.
        -11    1    4    4    0    0 -0.83371387692E-01  0.90522542469E-02 -0.54378034170E-01  0.99949803970E-01  0.51100000000E-03 0. -1.
         11    1    4    4    0    0 -0.30824208696E-01  0.33887866832E-02 -0.68331984999E-02  0.31757982298E-01  0.51100000000E-03 0.  1.
</event>
<event>
 8    1  0.1078274E+005  0.1043930E+01  0.7957747E-01            NaN
         13   -1    0    0    0    0  0.00000000000E+00  0.00000000000E+00  0.74505805969E-08  0.10566000000E+00  0.10566000000E+00 0.  1.
     999900   -1    0    0    0    0 -0.00000000000E+00 -0.00000000000E+00 -0.74505805969E-08  0.93827000000E+00  0.93827000000E+00 0. -1.
     999902    2    1    2    0    0  0.45687170561E-02  0.52813972032E-03  0.22948377802E-01  0.10205252964E+01  0.10202568796E+01 0.  0.
     999903    2    3    3    0    0 -0.94651242682E-01 -0.79009072049E-01 -0.34234517521E-01  0.12954793867E+00  0.20233017958E-01 0.  0.
         14    1    1    2    0    0 -0.45687170561E-02 -0.52813972032E-03 -0.22948377802E-01  0.23404703605E-01  0.00000000000E+00 0. -1.
     999901    1    3    3    0    0  0.99219959739E-01  0.79537211769E-01  0.57182895323E-01  0.89097735773E+00  0.88000000000E+00 0. -1.
        -11    1    4    4    0    0 -0.79894786724E-01 -0.68110618152E-01 -0.36285936550E-01  0.11108178772E+00  0.51100000000E-03 0.  1.
         11    1    4    4    0    0 -0.14756455958E-01 -0.10898453897E-01  0.20514190283E-02  0.18466150947E-01  0.51100000000E-03 0. -1.
</event>
<event>
 8    1  0.1078274E+005  0.1043930E+01  0.7957747E-01            NaN
         13   -1    0    0    0    0  0.00000000000E+00  0.00000000000E+00  0.74505805969E-08  0.10566000000E+00  0.10566000000E+00 0. -1.
     999900   -1    0    0    0    0 -0.00000000000E+00 -0.00000000000E+00 -0.74505805969E-08  0.93827000000E+00  0.93827000000E+00 0.  1.
     999902    2    1    2    0    0  0.16170864653E-01  0.17091172825E-01  0.28476953347E-02  0.10202294848E+01  0.10199541594E+01 0.  0.
     999903    2    3    3    0    0  0.93369810234E-01 -0.40655393005E-01 -0.80025757052E-01  0.13109375153E+00  0.20264931646E-01 0.  0.
         14    1    1    2    0    0 -0.16170864653E-01 -0.17091172825E-01 -0.28476953347E-02  0.23700515203E-01  0.00000000000E+00 0. -1.
     999901    1    3    3    0    0 -0.77198945581E-01  0.57746565830E-01  0.82873452386E-01  0.88913573327E+00  0.88000000000E+00 0. -1.
        -11    1    4    4    0    0  0.68817350592E-01 -0.24154636119E-01 -0.47067427804E-01  0.86803675439E-01  0.51100000000E-03 0. -1.
         11    1    4    4    0    0  0.24552459642E-01 -0.16500756886E-01 -0.32958329247E-01  0.44290076090E-01  0.51100000000E-03 0.  1.
</event>
<event>
 7    1  0.1260980E+005  0.1043930E+01  0.7957747E-01            NaN
         13   -1    0    0    0    0  0.00000000000E+00  0.00000000000E+00  0.74505805969E-08  0.10566000000E+00  0.10566000000E+00 0. -1.
     999900   -1    0    0    0    0 -0.00000000000E+00 -0.00000000000E+00 -0.74505805969E-08  0.93827000000E+00  0.93827000000E+00 0. -1.
     999903    2    1    2    0    0 -0.10202070682E+00  0.87022590778E-02 -0.72462081941E-02  0.10456239455E+00  0.19920664886E-01 0.  0.
         14    1    1    2    0    0  0.14113670270E-01 -0.42579448099E-01  0.30140548668E-01  0.54043110226E-01  0.00000000000E+00 0. -1.
     999901    1    1    2    0    0  0.87907036545E-01  0.33877189021E-01 -0.22894340474E-01  0.88532449522E+00  0.88000000000E+00 0. -1.
        -11    1    3    3    0    0 -0.31603412978E-01 -0.20019984378E-02  0.56651674265E-02  0.32173575377E-01  0.51100000000E-03 0.  1.
         11    1    3    3    0    0 -0.70417293837E-01  0.10704257516E-01 -0.12911375621E-01  0.72388819176E-01  0.51100000000E-03 0. -1.
</event>
<event>
 8    1  0.1078274E+005  0.1043930E+01  0.7957747E-01            NaN
         13   -1    0    0    0    0  0.00000000000E+00  0.00000000000E+00  0.74505805969E-08  0.10566000000E+00  0.10566000000E+00 0.  1.
     999900   -1    0    0    0    0 -0.00000000000E+00 -0.00000000000E+00 -0.74505805969E-08  0.93827000000E+00  0.93827000000E+00 0. -1.
     999902    2    1    2    0    0 -0.19586320000E-01  0.99269347950E-02  0.10236684668E-01  0.10197027905E+01  0.10194149417E+01 0.  0.
     999903    2    3    3    0    0  0.88224621474E-01 -0.80719415066E-01 -0.39293262739E-01  0.12712608485E+00  0.17828997417E-01 0.  0.
         14    1    1    2    0    0  0.19586320000E-01 -0.99269347950E-02 -0.10236684668E-01  0.24227209467E-01  0.00000000000E+00 0. -1.
     999901    1    3    3    0    0 -0.10781094147E+00  0.90646349861E-01  0.49529947406E-01  0.89257670569E+00  0.88000000000E+00 0.  1.
        -11    1    4    4    0    0  0.41576232807E-01 -0.32424001208E-01 -0.25529324587E-01  0.58582476250E-01  0.51100000000E-03 0.  1.
         11    1    4    4    0    0  0.46648388667E-01 -0.48295413858E-01 -0.13763938152E-01  0.68543608596E-01  0.51100000000E-03 0. -1.
</event>
<event>
 8    1  0.1078274E+005  0.1043930E+01  0.7957747E-01            NaN
         13   -1    0    0    0    0  0.00000000000E+00  0.00000000000E+00  0.74505805969E-08  0.10566000000E+00  0.10566000000E+00 0.  1.
     999900   -1    0    0    0    0 -0.00000000000E+00 -0.00000000000E+00 -0.74505805969E-08  0.93827000000E+00  0.93827000000E+00 0. -1.
     999902    2    1    2    0    0 -0.54807595358E-02 -0.35980371341E-02 -0.21572425676E-01  0.10213832897E+01  0.10211344036E+01 0.  0.
     999903    2    3    3    0    0 -0.56700735072E-01  0.10425068933E+00  0.50362095426E-01  0.13041224133E+00  0.19693462053E-01 0.  0.
         14    1    1    2    0    0  0.54807595358E-02  0.35980371341E-02  0.21572425676E-01  0.22546710311E-01  0.00000000000E+00 0.  1.
     999901    1    3    3    0    0  0.51219975537E-01 -0.10784872647E+00 -0.71934521101E-01  0.89097104836E+00  0.88000000000E+00 0. -1.
        -11    1    4    4    0    0 -0.21885899781E-01  0.33431685905E-01  0.76774722938E-02  0.40692443199E-01  0.51100000000E-03 0.  1.
         11    1    4    4    0    0 -0.34814835292E-01  0.70819003430E-01  0.42684623132E-01  0.89719798127E-01  0.51100000000E-03 0. -1.
</event>
<event>
 8    1  0.1078274E+005  0.1043930E+01  0.7957747E-01            NaN
         13   -1    0    0    0    0  0.00000000000E+00  0.00000000000E+00  0.74505805969E-08  0.10566000000E+00  0.10566000000E+00 0. -1.
     999900   -1    0    0    0    0 -0.00000000000E+00 -0.00000000000E+00 -0.74505805969E-08  0.93827000000E+00  0.93827000000E+00 0.  1.
     999902    2    1    2    0    0 -0.18903097781E-01  0.13604512614E-01  0.36878644898E-02  0.10203501312E+01  0.10200776343E+01 0.  0.
     999903    2    3    3    0    0  0.66924618513E-01 -0.83687131508E-01  0.68184657663E-01  0.12850266819E+00  0.19528124575E-01 0.  0.
         14    1    1    2    0    0  0.18903097781E-01 -0.13604512614E-01 -0.36878644898E-02  0.23579868822E-01  0.00000000000E+00 0. -1.
     999901    1    3    3    0    0 -0.85827716294E-01  0.97291644121E-01 -0.64496793174E-01  0.89184746298E+00  0.88000000000E+00 0.  1.
        -11    1    4    4    0    0  0.30972065863E-01 -0.33527349745E-01  0.18422877342E-01  0.49224136105E-01  0.51100000000E-03 0. -1.
         11    1    4    4    0    0  0.35952552650E-01 -0.50159781763E-01  0.49761780322E-01  0.79278532090E-01  0.51100000000E-03 0.  1.
</event>
<event>
 8    1  0.1078274E+005  0.1043930E+01  0.7957747E-01            NaN
         13   -1    0    0    0    0  0.00000000000E+00  0.00000000000E+00  0.74505805969E-08  0.10566000000E+00  0.10566000000E+00 0.  1.
     999900   -1    0    0    0    0 -0.00000000000E+00 -0.00000000000E+00 -0.74505805969E-08  0.93827000000E+00  0.93827000000E+00 0. -1.
     999902    2    1    2    0    0 -0.12865069343E-01 -0.10309655007E-01 -0.19155722125E-01  0.10186566804E+01  0.10183431110E+01 0.  0.
     999903    2    3    3    0    0 -0.11182466489E+00  0.28921520983E-01  0.54456929035E-01  0.12919003729E+00  0.19578012188E-01 0.  0.
         14    1    1    2    0    0  0.12865069343E-01  0.10309655007E-01  0.19155722125E-01  0.25273319641E-01  0.00000000000E+00 0.  1.
     999901    1    3    3    0    0  0.98959595549E-01 -0.39231175990E-01 -0.73612651159E-01  0.88946664307E+00  0.88000000000E+00 0.  1.
        -11    1    4    4    0    0 -0.10889901130E+00  0.26569681078E-01  0.55742381580E-01  0.12518952369E+00  0.51100000000E-03 0.  1.
         11    1    4    4    0    0 -0.29256535871E-02  0.23518399049E-02 -0.12854525455E-02  0.40005136042E-02  0.51100000000E-03 0. -1.
</event>
<event>
 8    1  0.1078274E+005  0.1043930E+01  0.7957747E-01            NaN
         13   -1    0    0    0    0  0.00000000000E+00  0.00000000000E+00  0.74505805969E-08  0.10566000000E+00  0.10566000000E+00 0.  1.
     999900   -1    0    0    0    0 -0.00000000000E+00 -0.00000000000E+00 -0.74505805969E-08  0.93827000000E+00  0.93827000000E+00 0. -1.
     999902    2    1    2    0    0 -0.10655309178E-01  0.19163330425E-01 -0.97777413216E-02  0.10199222289E+01  0.10196396324E+01 0.  0.
     999903    2    3    3    0    0 -0.29820868669E-02 -0.48052232779E-01 -0.11962599374E+00  0.13051599506E+00  0.20152832820E-01 0.  0.
         14    1    1    2    0    0  0.10655309178E-01 -0.19163330425E-01  0.97777413216E-02  0.24007771075E-01  0.00000000000E+00 0.  1.
     999901    1    3    3    0    0 -0.76732223108E-02  0.67215563203E-01  0.10984825242E+00  0.88940623386E+00  0.88000000000E+00 0.  1.
        -11    1    4    4    0    0 -0.74908203372E-02 -0.18410506987E-01 -0.67635548151E-01  0.70497430106E-01  0.51100000000E-03 0. -1.
         11    1    4    4    0    0  0.45087334703E-02 -0.29641725792E-01 -0.51990445591E-01  0.60018564954E-01  0.51100000000E-03 0.  1.
</event>
<event>
 8    1  0.1078274E+005  0.1043930E+01  0.7957747E-01            NaN
         13   -1    0    0    0    0  0.00000000000E+00  0.00000000000E+00  0.74505805969E-08  0.10566000000E+00  0.10566000000E+00 0.  1.
     999900   -1    0    0    0    0 -0.00000000000E+00 -0.00000000000E+00 -0.74505805969E-08  0.93827000000E+00  0.93827000000E+00 0.  1.
     999902    2    1    2    0    0 -0.92238359716E-02 -0.21851324868E-01 -0.47169152964E-02  0.10197471789E+01  0.10194603965E+01 0.  0.
     999903    2    3    3    0    0 -0.51415623393E-01  0.89581550013E-01  0.73535252515E-01  0.12827601595E+00  0.19464903638E-01 0.  0.
         14    1    1    2    0    0  0.92238359716E-02  0.21851324868E-01  0.47169152964E-02  0.24182821142E-01  0.00000000000E+00 0.  1.
     999901    1    3    3    0    0  0.42191787421E-01 -0.11143287488E+00 -0.78252167812E-01  0.89147116291E+00  0.88000000000E+00 0.  1.
        -11    1    4    4    0    0 -0.10780194105E-01  0.33154675362E-01  0.17736624768E-01  0.39118973178E-01  0.51100000000E-03 0.  1.
         11    1    4    4    0    0 -0.40635429287E-01  0.56426874651E-01  0.55798627747E-01  0.89157042771E-01  0.51100000000E-03 0. -1.
</event>
<event>
 8    1  0.1078274E+005  0.1043930E+01  0.7957747E-01            NaN
         13   -1    0    0    0    0  0.00000000000E+00  0.00000000000E+00  0.74505805969E-08  0.10566000000E+00  0.10566000000E+00 0. -1.
     999900   -1    0    0    0    0 -0.00000000000E+00 -0.00000000000E+00 -0.74505805969E-08  0.93827000000E+00  0.93827000000E+00 0.  1.
     999902    2    1    2    0    0 -0.56218248196E-02  0.15598257163E-01 -0.17740258264E-01  0.10196477574E+01  0.10193585836E+01 0.  0.
     999903    2    3    3    0    0  0.13086999953E-01 -0.10389067737E+00  0.66817270589E-01  0.12735991078E+00  0.28132842228E-01 0.  0.
         14    1    1    2    0    0  0.56218248196E-02 -0.15598257163E-01  0.17740258264E-01  0.24282242567E-01  0.00000000000E+00 0. -1.
     999901    1    3    3    0    0 -0.18708824773E-01  0.11948893454E+00 -0.84557528853E-01  0.89228784665E+00  0.88000000000E+00 0.  1.
        -11    1    4    4    0    0  0.17086373500E-02 -0.58270312482E-03  0.74139659127E-02  0.76476791303E-02  0.51100000000E-03 0.  1.
         11    1    4    4    0    0  0.11378362603E-01 -0.10330797425E+00  0.59403304676E-01  0.11971223165E+00  0.51100000000E-03 0. -1.
</event>
<event>
 8    1  0.1078274E+005  0.1043930E+01  0.7957747E-01            NaN
         13   -1    0    0    0    0  0.00000000000E+00  0.00000000000E+00  0.74505805969E-08  0.10566000000E+00  0.10566000000E+00 0. -1.
     999900   -1    0    0    0    0 -0.00000000000E+00 -0.00000000000E+00 -0.74505805969E-08  0.93827000000E+00  0.93827000000E+00 0. -1.
     999902    2    1    2    0    0 -0.16275024265E-01 -0.10078900692E-01  0.12881703344E-01  0.10208562284E+01  0.10205954341E+01 0.  0.
     999903    2    3    3    0    0 -0.13062447602E+00  0.39594749349E-02 -0.12641134487E-01  0.13297994855E+00  0.21105384575E-01 0.  0.
         14    1    1    2    0    0  0.16275024265E-01  0.10078900692E-01 -0.12881703344E-01  0.23073771582E-01  0.00000000000E+00 0. -1.
     999901    1    3    3    0    0  0.11434945175E+00 -0.14038375627E-01  0.25522837831E-01  0.88787627987E+00  0.88000000000E+00 0. -1.
        -11    1    4    4    0    0 -0.34285127224E-01 -0.27764638590E-02  0.51332039663E-02  0.34782029905E-01  0.51100000000E-03 0. -1.
         11    1    4    4    0    0 -0.96339348793E-01  0.67359387939E-02 -0.17774338454E-01  0.98197918643E-01  0.51100000000E-03 0.  1.
</event>
<event>
 8    1  0.1078274E+005  0.1043930E+01  0.7957747E-01            NaN
         13   -1    0    0    0    0  0.00000000000E+00  0.00000000000E+00  0.74505805969E-08  0.10566000000E+00  0.10566000000E+00 0. -1.
     999900   -1    0    0    0    0 -0.00000000000E+00 -0.00000000000E+00 -0.74505805969E-08  0.93827000000E+00  0.93827000000E+00 0. -1.
     999902    2    1    2    0    0  0.53140369574E-02  0.12378878535E-01 -0.17077803300E-01  0.10221785176E+01  0.10219470607E+01 0.  0.
     999903    2    3    3    0    0 -0.81175963184E-02 -0.84841502112E-01 -0.99849067927E-01  0.13286232327E+00  0.20459343301E-01 0.  0.
         14    1    1    2    0    0 -0.53140369574E-02 -0.12378878535E-01  0.17077803300E-01  0.21751482435E-01  0.00000000000E+00 0. -1.
     999901    1    3    3    0    0  0.13431633276E-01  0.97220380647E-01  0.82771264628E-01  0.88931619429E+00  0.88000000000E+00 0.  1.
        -11    1    4    4    0    0 -0.71179494729E-02 -0.42942567323E-01 -0.36019043556E-01  0.56500990369E-01  0.51100000000E-03 0. -1.
         11    1    4    4    0    0 -0.99964684553E-03 -0.41898934789E-01 -0.63830024372E-01  0.76361332902E-01  0.51100000000E-03 0.  1.
</event>
<event>
 8    1  0.1078274E+005  0.1043930E+01  0.7957747E-01            NaN
         13   -1    0    0    0    0  0.00000000000E+00  0.00000000000E+00  0.74505805969E-08  0.10566000000E+00  0.10566000000E+00 0. -1.
     999900   -1    0    0    0    0 -0.00000000000E+00 -0.00000000000E+00 -0.74505805969E-08  0.93827000000E+00  0.93827000000E+00 0.  1.
     999902    2    1    2    0    0 -0.11881457237E-01  0.11673032693E-01  0.16713752145E-01  0.10203338514E+01  0.10200609737E+01 0.  0.
     999903    2    3    3    0    0 -0.26053580368E-01  0.92450161404E-02 -0.12432764484E+00  0.12898688191E+00  0.20395907960E-01 0.  0.
         14    1    1    2    0    0  0.11881457237E-01 -0.11673032693E-01 -0.16713752145E-01  0.23596148607E-01  0.00000000000E+00 0.  1.
     999901    1    3    3    0    0  0.14172123132E-01  0.24280165530E-02  0.14104139698E+00  0.89134696948E+00  0.88000000000E+00 0. -1.
        -11    1    4    4    0    0 -0.28304273267E-01  0.69794595002E-02 -0.92282531393E-01  0.96778982539E-01  0.51100000000E-03 0. -1.
         11    1    4    4    0    0  0.22506928987E-02  0.22655566402E-02 -0.32045113445E-01  0.32207899374E-01  0.51100000000E-03 0.  1.
</event>
<event>
 8    1  0.1078274E+005  0.1043930E+01  0.7957747E-01            NaN
         13   -1    0    0    0    0  0.00000000000E+00  0.00000000000E+00  0.74505805969E-08  0.10566000000E+00  0.10566000000E+00 0. -1.
     999900   -1    0    0    0    0 -0.00000000000E+00 -0.00000000000E+00 -0.74505805969E-08  0.93827000000E+00  0.93827000000E+00 0.  1.
     999902    2    1    2    0    0 -0.76921795881E-02 -0.10312266516E-01  0.19312684749E-01  0.10207245640E+01  0.10204607505E+01 0.  0.
     999903    2    3    3    0    0 -0.12828542492E+00 -0.22287551792E-01 -0.41108710567E-02  0.13211058637E+00  0.21964119808E-01 0.  0.
         14    1    1    2    0    0  0.76921795881E-02  0.10312266516E-01 -0.19312684749E-01  0.23205435995E-01  0.00000000000E+00 0.  1.
     999901    1    3    3    0    0  0.12059324533E+00  0.11975285276E-01  0.23423555806E-01  0.88861397763E+00  0.88000000000E+00 0. -1.
        -11    1    4    4    0    0 -0.10896490934E+00 -0.11860469071E-01  0.77777269668E-03  0.10961244567E+00  0.51100000000E-03 0.  1.
         11    1    4    4    0    0 -0.19320515576E-01 -0.10427082721E-01 -0.48886437534E-02  0.22498140700E-01  0.51100000000E-03 0. -1.
</event>
<event>
 8    1  0.1078274E+005  0.1043930E+01  0.7957747E-01            NaN
         13   -1    0    0    0    0  0.00000000000E+00  0.00000000000E+00  0.74505805969E-08  0.10566000000E+00  0.10566000000E+00 0. -1.
     999900   -1    0    0    0    0 -0.00000000000E+00 -0.00000000000E+00 -0.74505805969E-08  0.93827000000E+00  0.93827000000E+00 0.  1.
     999902    2    1    2    0    0  0.11968187964E-01 -0.16687338931E-01 -0.12189729201E-01  0.10200491646E+01  0.10197695837E+01 0.  0.
     999903    2    3    3    0    0 -0.48673283893E-01 -0.63837809228E-01  0.99855339329E-01  0.12962530349E+00  0.19679330816E-01 0.  0.
         14    1    1    2    0    0 -0.11968187964E-01  0.16687338931E-01  0.12189729201E-01  0.23880835449E-01  0.00000000000E+00 0. -1.
     999901    1    3    3    0    0  0.60641471857E-01  0.47150470297E-01 -0.11204506853E+00  0.89042386106E+00  0.88000000000E+00 0.  1.
        -11    1    4    4    0    0 -0.13929816335E-01 -0.27741236603E-01  0.50602326759E-01  0.59367268640E-01  0.51100000000E-03 0.  1.
         11    1    4    4    0    0 -0.34743467558E-01 -0.36096572626E-01  0.49253012570E-01  0.70258034854E-01  0.51100000000E-03 0. -1.
</event>
<event>
 8    1  0.1078274E+005  0.1043930E+01  0.7957747E-01            NaN
         13   -1    0    0    0    0  0.00000000000E+00  0.00000000000E+00  0.74505805969E-08  0.10566000000E+00  0.10566000000E+00 0.  1.
     999900   -1    0    0    0    0 -0.00000000000E+00 -0.00000000000E+00 -0.74505805969E-08  0.93827000000E+00  0.93827000000E+00 0. -1.
     999902    2    1    2    0    0  0.11072043509E-01  0.26633657891E-02 -0.20761364733E-01  0.10202505167E+01  0.10199756854E+01 0.  0.
     999903    2    3    3    0    0 -0.36635631277E-01 -0.48054304531E-01 -0.11609770514E+00  0.13236689699E+00  0.19772015954E-01 0.  0.
         14    1    1    2    0    0 -0.11072043509E-01 -0.26633657891E-02  0.20761364733E-01  0.23679483321E-01  0.00000000000E+00 0.  1.
     999901    1    3    3    0    0  0.47707674785E-01  0.50717670320E-01  0.95336340411E-01  0.88788361969E+00  0.88000000000E+00 0.  1.
        -11    1    4    4    0    0 -0.61102742285E-02 -0.28111901425E-02 -0.27428054175E-01  0.28245309663E-01  0.51100000000E-03 0.  1.
         11    1    4    4    0    0 -0.30525357048E-01 -0.45243114389E-01 -0.88669650969E-01  0.10412158732E+00  0.51100000000E-03 0. -1.
</event>
<event>
 8    1  0.1078274E+005  0.1043930E+01  0.7957747E-01            NaN
         13   -1    0    0    0    0  0.00000000000E+00  0.00000000000E+00  0.74505805969E-08  0.10566000000E+00  0.10566000000E+00 0.  1.
     999900   -1    0    0    0    0 -0.00000000000E+00 -0.00000000000E+00 -0.74505805969E-08  0.93827000000E+00  0.93827000000E+00 0. -1.
     999902    2    1    2    0    0 -0.15554892095E-01 -0.32391526969E-02 -0.19657539690E-01  0.10186542083E+01  0.10183405769E+01 0.  0.
     999903    2    3    3    0    0  0.36581857209E-01 -0.92428536741E-01  0.77016364799E-01  0.12735244648E+00  0.20145930023E-01 0.  0.
         14    1    1    2    0    0  0.15554892095E-01  0.32391526969E-02  0.19657539690E-01  0.25275791678E-01  0.00000000000E+00 0.  1.
     999901    1    3    3    0    0 -0.52136749304E-01  0.89189384045E-01 -0.96673904489E-01  0.89130176184E+00  0.88000000000E+00 0. -1.
        -11    1    4    4    0    0  0.15038330149E-01 -0.40588919150E-01  0.46196777138E-01  0.63308886188E-01  0.51100000000E-03 0. -1.
         11    1    4    4    0    0  0.21543527061E-01 -0.51839617592E-01  0.30819587660E-01  0.64043560292E-01  0.51100000000E-03 0.  1.
</event>
<event>
 8    1  0.1078274E+005  0.1043930E+01  0.7957747E-01            NaN
         13   -1    0    0    0    0  0.00000000000E+00  0.00000000000E+00  0.74505805969E-08  0.10566000000E+00  0.10566000000E+00 0. -1.
     999900   -1    0    0    0    0 -0.00000000000E+00 -0.00000000000E+00 -0.74505805969E-08  0.93827000000E+00  0.93827000000E+00 0. -1.
     999902    2    1    2    0    0 -0.20574221705E-01  0.25773733917E-02  0.12101374103E-01  0.10199219866E+01  0.10196393843E+01 0.  0.
     999903    2    3    3    0    0 -0.11111483304E+00  0.40880309564E-01  0.58014064404E-01  0.13325818766E+00  0.19349601494E-01 0.  0.
         14    1    1    2    0    0  0.20574221705E-01 -0.25773733917E-02 -0.12101374103E-01  0.24008013403E-01  0.00000000000E+00 0.  1.
     999901    1    3    3    0    0  0.90540611332E-01 -0.38302936172E-01 -0.45912690301E-01  0.88666379894E+00  0.88000000000E+00 0.  1.
        -11    1    4    4    0    0 -0.28815398139E-01  0.18473763781E-02  0.13923610602E-01  0.32060380887E-01  0.51100000000E-03 0.  1.
         11    1    4    4    0    0 -0.82299434898E-01  0.39032933186E-01  0.44090453803E-01  0.10119780677E+00  0.51100000000E-03 0. -1.
</event>
<event>
 8    1  0.1078274E+005  0.1043930E+01  0.7957747E-01            NaN
         13   -1    0    0    0    0  0.00000000000E+00  0.00000000000E+00  0.74505805969E-08  0.10566000000E+00  0.10566000000E+00 0.  1.
     999900   -1    0    0    0    0 -0.00000000000E+00 -0.00000000000E+00 -0.74505805969E-08  0.93827000000E+00  0.93827000000E+00 0.  1.
     999902    2    1    2    0    0 -0.63987189923E-02 -0.12257018497E-02  0.22622526396E-01  0.10203880237E+01  0.10201164121E+01 0.  0.
     999903    2    3    3    0    0 -0.27112795795E-01  0.52279240561E-01 -0.11260018739E+00  0.12821257333E+00  0.17071586619E-01 0.  0.
         14    1    1    2    0    0  0.63987189923E-02  0.12257018497E-02 -0.22622526396E-01  0.23541976347E-01  0.00000000000E+00 0. -1.
     999901    1    3    3    0    0  0.20714076803E-01 -0.53504942410E-01  0.13522271379E+00  0.89217545033E+00  0.88000000000E+00 0. -1.
        -11    1    4    4    0    0 -0.19908507011E-01  0.20140281121E-01 -0.49439157353E-01  0.56977811259E-01  0.51100000000E-03 0.  1.
         11    1    4    4    0    0 -0.72042887838E-02  0.32138959440E-01 -0.63161030036E-01  0.71234762069E-01  0.51100000000E-03 0. -1.
</event>
<event>
 8    1  0.1078274E+005  0.1043930E+01  0.7957747E-01            NaN
         13   -1    0    0    0    0  0.00000000000E+00  0.00000000000E+00  0.74505805969E-08  0.10566000000E+00  0.10566000000E+00 0. -1.
     999900   -1    0    0    0    0 -0.00000000000E+00 -0.00000000000E+00 -0.74505805969E-08  0.93827000000E+00  0.93827000000E+00 0. -1.
     999902    2    1    2    0    0  0.57431638986E-02 -0.17208575157E-01  0.14753182761E-01  0.10205467711E+01  0.10202788524E+01 0.  0.
     999903    2    3    3    0    0 -0.67488292012E-01  0.66021664498E-01 -0.84671623224E-01  0.12803603676E+00  0.17618546727E-01 0.  0.
         14    1    1    2    0    0 -0.57431638986E-02  0.17208575157E-01 -0.14753182761E-01  0.23383228863E-01  0.00000000000E+00 0.  1.
     999901    1    3    3    0    0  0.73231455910E-01 -0.83230239655E-01  0.99424805984E-01  0.89251073437E+00  0.88000000000E+00 0.  1.
        -11    1    4    4    0    0 -0.25352578237E-01  0.36182076214E-01 -0.34702097832E-01  0.56181781543E-01  0.51100000000E-03 0.  1.
         11    1    4    4    0    0 -0.42135713775E-01  0.29839588284E-01 -0.49969525392E-01  0.71854255220E-01  0.51100000000E-03 0. -1.
</event>
<event>
 8    1  0.1078274E+005  0.1043930E+01  0.7957747E-01            NaN
         13   -1    0    0    0    0  0.00000000000E+00  0.00000000000E+00  0.74505805969E-08  0.10566000000E+00  0.10566000000E+00 0.  1.
     999900   -1    0    0    0    0 -0.00000000000E+00 -0.00000000000E+00 -0.74505805969E-08  0.93827000000E+00  0.93827000000E+00 0.  1.
     999902    2    1    2    0    0  0.35208556900E-02  0.57169826141E-02 -0.21836991632E-01  0.10210841138E+01  0.10208285031E+01 0.  0.
     999903    2    3    3    0    0 -0.11683244312E+00  0.56259597520E-01 -0.11305004417E-02  0.13121433045E+00  0.20023995733E-01 0.  0.
         14    1    1    2    0    0 -0.35208556900E-02 -0.57169826141E-02  0.21836991632E-01  0.22845886250E-01  0.00000000000E+00 0.  1.
     999901    1    3    3    0    0  0.12035329881E+00 -0.50542614906E-01 -0.20706491191E-01  0.88986978330E+00  0.88000000000E+00 0.  1.
        -11    1    4    4    0    0 -0.48499670799E-01  0.27345760697E-01  0.87360218258E-02  0.56361226868E-01  0.51100000000E-03 0.  1.
         11    1    4    4    0    0 -0.68332772321E-01  0.28913836823E-01 -0.98665222675E-02  0.74853103580E-01  0.51100000000E-03 0. -1.
</event>
<event>
 8    1  0.1078274E+005  0.1043930E+01  0.7957747E-01            NaN
         13   -1    0    0    0    0  0.00000000000E+00  0.00000000000E+00  0.74505805969E-08  0.10566000000E+00  0.10566000000E+00 0.  1.
     999900   -1    0    0    0    0 -0.00000000000E+00 -0.00000000000E+00 -0.74505805969E-08  0.93827000000E+00  0.93827000000E+00 0.  1.
     999902    2    1    2    0    0  0.14442265407E-01 -0.84050296401E-02  0.17071129358E-01  0.10200417809E+01  0.10197620251E+01 0.  0.
     999903    2    3    3    0    0  0.81757886457E-01 -0.10024794154E+00  0.21875530206E-01  0.13269202148E+00  0.19865345743E-01 0.  0.
         14    1    1    2    0    0 -0.14442265407E-01  0.84050296401E-02 -0.17071129358E-01  0.23888219081E-01  0.00000000000E+00 0. -1.
     999901    1    3    3    0    0 -0.67315621050E-01  0.91842911905E-01 -0.48044008482E-02  0.88734975944E+00  0.88000000000E+00 0.  1.
        -11    1    4    4    0    0  0.13920799380E-01 -0.17704400050E-01  0.11645639077E-01  0.25359741067E-01  0.51100000000E-03 0.  1.
         11    1    4    4    0    0  0.67837087076E-01 -0.82543541495E-01  0.10229891129E-01  0.10733228041E+00  0.51100000000E-03 0. -1.
</event>
<event>
 8    1  0.1078274E+005  0.1043930E+01  0.7957747E-01            NaN
         13   -1    0    0    0    0  0.00000000000E+00  0.00000000000E+00  0.74505805969E-08  0.10566000000E+00  0.10566000000E+00 0. -1.
     999900   -1    0    0    0    0 -0.00000000000E+00 -0.00000000000E+00 -0.74505805969E-08  0.93827000000E+00  0.93827000000E+00 0.  1.
     999902    2    1    2    0    0 -0.20132681617E-01 -0.42007091070E-02  0.10098001671E-01  0.10210184207E+01  0.10207613213E+01 0.  0.
     999903    2    3    3    0    0  0.67862180137E-01 -0.66352537200E-02  0.11025881906E+00  0.13097279717E+00  0.18643077407E-01 0.  0.
         14    1    1    2    0    0  0.20132681617E-01  0.42007091070E-02 -0.10098001671E-01  0.22911579252E-01  0.00000000000E+00 0. -1.
     999901    1    3    3    0    0 -0.87994861754E-01  0.24345446130E-02 -0.10016081739E+00  0.89004562357E+00  0.88000000000E+00 0.  1.
        -11    1    4    4    0    0  0.36990945592E-01  0.27146582819E-02  0.46193343226E-01  0.59243442716E-01  0.51100000000E-03 0. -1.
         11    1    4    4    0    0  0.30871234545E-01 -0.93499120019E-02  0.64065475830E-01  0.71729354459E-01  0.51100000000E-03 0.  1.
</event>
<event>
 8    1  0.1078274E+005  0.1043930E+01  0.7957747E-01            NaN
         13   -1    0    0    0    0  0.00000000000E+00  0.00000000000E+00  0.74505805969E-08  0.10566000000E+00  0.10566000000E+00 0. -1.
     999900   -1    0    0    0    0 -0.00000000000E+00 -0.00000000000E+00 -0.74505805969E-08  0.93827000000E+00  0.93827000000E+00 0.  1.
     999902    2    1    2    0    0  0.70228525081E-02 -0.28889778550E-01 -0.46015371455E-02  0.10138448890E+01  0.10133984137E+01 0.  0.
     999903    2    3    3    0    0  0.10287025828E+00  0.65396150655E-01 -0.66294568557E-02  0.12363105280E+00  0.19538192306E-01 0.  0.
         14    1    1    2    0    0 -0.70228525081E-02  0.28889778550E-01  0.46015371455E-02  0.30085111037E-01  0.00000000000E+00 0. -1.
     999901    1    3    3    0    0 -0.95847405774E-01 -0.94285929204E-01  0.20279197102E-02  0.89021383616E+00  0.88000000000E+00 0. -1.
        -11    1    4    4    0    0  0.39473335161E-01  0.15219566512E-01  0.17533569451E-02  0.42345185973E-01  0.51100000000E-03 0.  1.
         11    1    4    4    0    0  0.63396923122E-01  0.50176584142E-01 -0.83828138008E-02  0.81285866826E-01  0.51100000000E-03 0. -1.
</event>
<event>
 8    1  0.1078274E+005  0.1043930E+01  0.7957747E-01            NaN
         13   -1    0    0    0    0  0.00000000000E+00  0.00000000000E+00  0.74505805969E-08  0.10566000000E+00  0.10566000000E+00 0.  1.
     999900   -1    0    0    0    0 -0.00000000000E+00 -0.00000000000E+00 -0.74505805969E-08  0.93827000000E+00  0.93827000000E+00 0. -1.
     999902    2    1    2    0    0 -0.30656442520E-03  0.13187185277E-01 -0.19266680671E-01  0.10205804642E+01  0.10203133260E+01 0.  0.
     999903    2    3    3    0    0  0.10987953759E+00 -0.50468823916E-01  0.41436400704E-01  0.12935774869E+00  0.19895649604E-01 0.  0.
         14    1    1    2    0    0  0.30656442520E-03 -0.13187185277E-01  0.19266680671E-01  0.23349535785E-01  0.00000000000E+00 0.  1.
     999901    1    3    3    0    0 -0.11018610202E+00  0.63656009194E-01 -0.60703081375E-01  0.89122271553E+00  0.88000000000E+00 0. -1.
        -11    1    4    4    0    0  0.54402485947E-01 -0.28020506201E-01  0.10868304898E-01  0.62154327422E-01  0.51100000000E-03 0.  1.
         11    1    4    4    0    0  0.55477051646E-01 -0.22448317715E-01  0.30568095807E-01  0.67203421265E-01  0.51100000000E-03 0. -1.
</event>
<event>
 8    1  0.1078274E+005  0.1043930E+01  0.7957747E-01            NaN
         13   -1    0    0    0    0  0.00000000000E+00  0.00000000000E+00  0.74505805969E-08  0.10566000000E+00  0.10566000000E+00 0. -1.
     999900   -1    0    0    0    0 -0.00000000000E+00 -0.00000000000E+00 -0.74505805969E-08  0.93827000000E+00  0.93827000000E+00 0. -1.
     999902    2    1    2    0    0 -0.19739150206E-02 -0.24041924663E-01 -0.12317900787E-02  0.10197757501E+01  0.10194896531E+01 0.  0.
     999903    2    3    3    0    0  0.48631923571E-01 -0.12021169236E+00 -0.20931465599E-01  0.13287234366E+00  0.20025446007E-01 0.  0.
         14    1    1    2    0    0  0.19739150206E-02  0.24041924663E-01  0.12317900787E-02  0.24154249911E-01  0.00000000000E+00 0. -1.
     999901    1    3    3    0    0 -0.50605838592E-01  0.96169767696E-01  0.19699675520E-01  0.88690340643E+00  0.88000000000E+00 0.  1.
        -11    1    4    4    0    0  0.31754647883E-01 -0.52256663923E-01 -0.11425594895E-01  0.62208696549E-01  0.51100000000E-03 0. -1.
         11    1    4    4    0    0  0.16877275688E-01 -0.67955028436E-01 -0.95058707031E-02  0.70663647112E-01  0.51100000000E-03 0.  1.
</event>
<event>
 8    1  0.1078274E+005  0.1043930E+01  0.7957747E-01            NaN
         13   -1    0    0    0    0  0.00000000000E+00  0.00000000000E+00  0.74505805969E-08  0.10566000000E+00  0.10566000000E+00 0.  1.
     999900   -1    0    0    0    0 -0.00000000000E+00 -0.00000000000E+00 -0.74505805969E-08  0.93827000000E+00  0.93827000000E+00 0.  1.
     999902    2    1    2    0    0 -0.56142759779E-02 -0.18629831882E-01 -0.17658973114E-01  0.10176539641E+01  0.10173146812E+01 0.  0.
     999903    2    3    3    0    0 -0.96390074699E-01 -0.44724605878E-01  0.69272320840E-01  0.12834061510E+00  0.19527472374E-01 0.  0.
         14    1    1    2    0    0  0.56142759779E-02  0.18629831882E-01  0.17658973114E-01  0.26276035891E-01  0.00000000000E+00 0.  1.
     999901    1    3    3    0    0  0.90775798721E-01  0.26094773996E-01 -0.86931293954E-01  0.88931334901E+00  0.88000000000E+00 0. -1.
        -11    1    4    4    0    0 -0.70945869986E-01 -0.23174584618E-01  0.45963439639E-01  0.87654302488E-01  0.51100000000E-03 0. -1.
         11    1    4    4    0    0 -0.25444204713E-01 -0.21550021260E-01  0.23308881202E-01  0.40686312609E-01  0.51100000000E-03 0.  1.
</event>
<event>
 8    1  0.1078274E+005  0.1043930E+01  0.7957747E-01            NaN
         13   -1    0    0    0    0  0.00000000000E+00  0.00000000000E+00  0.74505805969E-08  0.10566000000E+00  0.10566000000E+00 0. -1.
     999900   -1    0    0    0    0 -0.00000000000E+00 -0.00000000000E+00 -0.74505805969E-08  0.93827000000E+00  0.93827000000E+00 0.  1.
     999902    2    1    2    0    0  0.10429096820E-02 -0.21644836017E-01 -0.68804618398E-02  0.10211939638E+01  0.10209408329E+01 0.  0.
     999903    2    3    3    0    0  0.24699623836E-02  0.12337336814E+00  0.29501753762E-01  0.12858207635E+00  0.20878414739E-01 0.  0.
         14    1    1    2    0    0 -0.10429096820E-02  0.21644836017E-01  0.68804618398E-02  0.22736036197E-01  0.00000000000E+00 0.  1.
     999901    1    3    3    0    0 -0.14270527016E-02 -0.14501820416E+00 -0.36382215601E-01  0.89261188746E+00  0.88000000000E+00 0. -1.
        -11    1    4    4    0    0 -0.80514731269E-02  0.31197841757E-01  0.10397842197E-01  0.33860120985E-01  0.51100000000E-03 0. -1.
         11    1    4    4    0    0  0.10521435511E-01  0.92175526384E-01  0.19103911564E-01  0.94721955361E-01  0.51100000000E-03 0.  1.
</event>
<event>
 8    1  0.1078274E+005  0.1043930E+01  0.7957747E-01            NaN
         13   -1    0    0    0    0  0.00000000000E+00  0.00000000000E+00  0.74505805969E-08  0.10566000000E+00  0.10566000000E+00 0.  1.
     999900   -1    0    0    0    0 -0.00000000000E+00 -0.00000000000E+00 -0.74505805969E-08  0.93827000000E+00  0.93827000000E+00 0. -1.
     999902    2    1    2    0    0 -0.75336219600E-02 -0.83791875138E-02 -0.21005817287E-01  0.10200928315E+01  0.10198142842E+01 0.  0.
     999903    2    3    3    0    0 -0.34792282040E-01 -0.10433422081E+00 -0.72333908426E-01  0.13297109468E+00  0.18787900093E-01 0.  0.
         14    1    1    2    0    0  0.75336219600E-02  0.83791875138E-02  0.21005817287E-01  0.23837168521E-01  0.00000000000E+00 0.  1.
     999901    1    3    3    0    0  0.27258660080E-01  0.95955033298E-01  0.51328091139E-01  0.88712173680E+00  0.88000000000E+00 0. -1.
        -11    1    4    4    0    0 -0.36160210631E-01 -0.10328012551E+00 -0.69566288209E-01  0.12966909707E+00  0.51100000000E-03 0.  1.
         11    1    4    4    0    0  0.13679285917E-02 -0.10540952964E-02 -0.27676202169E-02  0.33019976061E-02  0.51100000000E-03 0. -1.
</event>
<event>
 8    1  0.1078274E+005  0.1043930E+01  0.7957747E-01            NaN
         13   -1    0    0    0    0  0.00000000000E+00  0.00000000000E+00  0.74505805969E-08  0.10566000000E+00  0.10566000000E+00 0. -1.
     999900   -1    0    0    0    0 -0.00000000000E+00 -0.00000000000E+00 -0.74505805969E-08  0.93827000000E+00  0.93827000000E+00 0. -1.
     999902    2    1    2    0    0  0.41803569904E-02 -0.22495933516E-01 -0.72711925901E-02  0.10199214046E+01  0.10196387885E+01 0.  0.
     999903    2    3    3    0    0  0.27563792236E-01 -0.12355400769E+00  0.34989947992E-01  0.13282190436E+00  0.19799150433E-01 0.  0.
         14    1    1    2    0    0 -0.41803569904E-02  0.22495933516E-01  0.72711925901E-02  0.24008595357E-01  0.00000000000E+00 0. -1.
     999901    1    3    3    0    0 -0.23383435246E-01  0.10105807418E+00 -0.42261140582E-01  0.88709950028E+00  0.88000000000E+00 0. -1.
        -11    1    4    4    0    0  0.19491540564E-01 -0.52978801394E-01  0.22100552998E-01  0.60624822594E-01  0.51100000000E-03 0. -1.
         11    1    4    4    0    0  0.80722516717E-02 -0.70575206299E-01  0.12889394993E-01  0.72197081766E-01  0.51100000000E-03 0.  1.
</event>
<event>
 8    1  0.1078274E+005  0.1043930E+01  0.7957747E-01            NaN
         13   -1    0    0    0    0  0.00000000000E+00  0.00000000000E+00  0.74505805969E-08  0.10566000000E+00  0.10566000000E+00 0.  1.
     999900   -1    0    0    0    0 -0.00000000000E+00 -0.00000000000E+00 -0.74505805969E-08  0.93827000000E+00  0.93827000000E+00 0. -1.
     999902    2    1    2    0    0 -0.12319540433E-01 -0.13291497332E-01  0.16467293905E-01  0.10194431311E+01  0.10191490033E+01 0.  0.
     999903    2    3    3    0    0 -0.92620438818E-01  0.53944304622E-01  0.73506638632E-01  0.13139900263E+00  0.19337483821E-01 0.  0.
         14    1    1    2    0    0  0.12319540433E-01  0.13291497332E-01 -0.16467293905E-01  0.24486868856E-01  0.00000000000E+00 0. -1.
     999901    1    3    3    0    0  0.80300898385E-01 -0.67235801954E-01 -0.57039344727E-01  0.88804412852E+00  0.88000000000E+00 0. -1.
        -11    1    4    4    0    0 -0.82343589832E-01  0.52511685008E-01  0.61034535441E-01  0.11516692010E+00  0.51100000000E-03 0.  1.
         11    1    4    4    0    0 -0.10276848986E-01  0.14326196144E-02  0.12472103191E-01  0.16232082523E-01  0.51100000000E-03 0. -1.
</event>
<event>
 7    1  0.1078274E+005  0.1043930E+01  0.7957747E-01            NaN
         13   -1    0    0    0    0  0.00000000000E+00  0.00000000000E+00  0.74505805969E-08  0.10566000000E+00  0.10566000000E+00 0.  1.
     999900   -1    0    0    0    0 -0.00000000000E+00 -0.00000000000E+00 -0.74505805969E-08  0.93827000000E+00  0.93827000000E+00 0. -1.
     999902    2    1    2    0    0  0.14156570633E-01  0.17390752566E-01  0.78949887474E-02  0.10201565355E+01  0.10198794925E+01 0.  0.
         14    1    1    2    0    0 -0.14156570633E-01 -0.17390752566E-01 -0.78949887474E-02  0.23773464498E-01  0.00000000000E+00 0.  1.
     999901    1    3    3    0    0 -0.23214317807E-02  0.94228381221E-01  0.66302984570E-01  0.88751364082E+00  0.88000000000E+00 0.  1.
        -11    1    3    3    0    0 -0.30443470035E-01 -0.37522281081E-01 -0.42380240440E-03  0.48323567488E-01  0.51100000000E-03 0. -1.
         11    1    3    3    0    0  0.46921472449E-01 -0.39315347574E-01 -0.57984193418E-01  0.84319327197E-01  0.51100000000E-03 0.  1.
</event>
<event>
 8    1  0.1078274E+005  0.1043930E+01  0.7957747E-01            NaN
         13   -1    0    0    0    0  0.00000000000E+00  0.00000000000E+00  0.74505805969E-08  0.10566000000E+00  0.10566000000E+00 0.  1.
     999900   -1    0    0    0    0 -0.00000000000E+00 -0.00000000000E+00 -0.74505805969E-08  0.93827000000E+00  0.93827000000E+00 0. -1.
     999902    2    1    2    0    0 -0.27557489006E-02 -0.20930313476E-01 -0.17648799282E-01  0.10164135996E+01  0.10160410687E+01 0.  0.
     999903    2    3    3    0    0  0.47455006534E-01  0.25958071153E-01  0.11030573130E+00  0.12451001599E+00  0.20238345362E-01 0.  0.
         14    1    1    2    0    0  0.27557489006E-02  0.20930313476E-01  0.17648799282E-01  0.27516400388E-01  0.00000000000E+00 0.  1.
     999901    1    3    3    0    0 -0.50210755435E-01 -0.46888384629E-01 -0.12795453058E+00  0.89190358362E+00  0.88000000000E+00 0. -1.
        -11    1    4    4    0    0  0.25768995212E-01  0.11522796826E-01  0.78328381264E-01  0.83261109729E-01  0.51100000000E-03 0.  1.
         11    1    4    4    0    0  0.21686011323E-01  0.14435274327E-01  0.31977350032E-01  0.41248906265E-01  0.51100000000E-03 0. -1.
</event>
<event>
 8    1  0.1078274E+005  0.1043930E+01  0.7957747E-01            NaN
         13   -1    0    0    0    0  0.00000000000E+00  0.00000000000E+00  0.74505805969E-08  0.10566000000E+00  0.10566000000E+00 0. -1.
     999900   -1    0    0    0    0 -0.00000000000E+00 -0.00000000000E+00 -0.74505805969E-08  0.93827000000E+00  0.93827000000E+00 0.  1.
     999902    2    1    2    0    0 -0.18509989302E-01  0.19300644902E-01  0.65586263029E-02  0.10163954730E+01  0.10160224443E+01 0.  0.
     999903    2    3    3    0    0  0.52189650331E-01 -0.10598661454E+00 -0.31991609696E-01  0.12388135149E+00  0.19136459761E-01 0.  0.
         14    1    1    2    0    0  0.18509989302E-01 -0.19300644902E-01 -0.65586263029E-02  0.27534526990E-01  0.00000000000E+00 0. -1.
     999901    1    3    3    0    0 -0.70699639633E-01  0.12528725944E+00  0.38550235999E-01  0.89251412152E+00  0.88000000000E+00 0. -1.
        -11    1    4    4    0    0  0.33989402748E-01 -0.54515949278E-01 -0.99863870522E-02  0.65017361314E-01  0.51100000000E-03 0. -1.
         11    1    4    4    0    0  0.18200247583E-01 -0.51470665261E-01 -0.22005222644E-01  0.58863990173E-01  0.51100000000E-03 0.  1.
</event>
<event>
 8    1  0.1078274E+005  0.1043930E+01  0.7957747E-01            NaN
         13   -1    0    0    0    0  0.00000000000E+00  0.00000000000E+00  0.74505805969E-08  0.10566000000E+00  0.10566000000E+00 0.  1.
     999900   -1    0    0    0    0 -0.00000000000E+00 -0.00000000000E+00 -0.74505805969E-08  0.93827000000E+00  0.93827000000E+00 0. -1.
     999902    2    1    2    0    0  0.47384723302E-02  0.96621199352E-02  0.20552521886E-01  0.10207305207E+01  0.10204668442E+01 0.  0.
     999903    2    3    3    0    0 -0.12205247498E+00 -0.30539699466E-01 -0.24103430274E-01  0.12961532917E+00  0.19740271315E-01 0.  0.
         14    1    1    2    0    0 -0.47384723302E-02 -0.96621199352E-02 -0.20552521886E-01  0.23199479252E-01  0.00000000000E+00 0. -1.
     999901    1    3    3    0    0  0.12679094731E+00  0.40201819402E-01  0.44655952161E-01  0.89111519158E+00  0.88000000000E+00 0.  1.
        -11    1    4    4    0    0 -0.27413718102E-01  0.44215655582E-03 -0.91989239933E-02  0.28923844250E-01  0.51100000000E-03 0. -1.
         11    1    4    4    0    0 -0.94638756879E-01 -0.30981856022E-01 -0.14904506281E-01  0.10069148492E+00  0.51100000000E-03 0.  1.
</event>
<event>
 8    1  0.1078274E+005  0.1043930E+01  0.7957747E-01            NaN
         13   -1    0    0    0    0  0.00000000000E+00  0.00000000000E+00  0.74505805969E-08  0.10566000000E+00  0.10566000000E+00 0.  1.
     999900   -1    0    0    0    0 -0.00000000000E+00 -0.00000000000E+00 -0.74505805969E-08  0.93827000000E+00  0.93827000000E+00 0. -1.
     999902    2    1    2    0    0  0.20400036218E-02 -0.19861706675E-01  0.57863973346E-02  0.10231422295E+01  0.10229310292E+01 0.  0.
     999903    2    3    3    0    0 -0.75423341039E-02  0.12646741514E+00  0.25598951985E-01  0.13078772016E+00  0.19980678301E-01 0.  0.
         14    1    1    2    0    0 -0.20400036218E-02  0.19861706675E-01 -0.57863973346E-02  0.20787770466E-01  0.00000000000E+00 0.  1.
     999901    1    3    3    0    0  0.95823377257E-02 -0.14632912181E+00 -0.19812554650E-01  0.89235450938E+00  0.88000000000E+00 0. -1.
        -11    1    4    4    0    0 -0.85348283665E-02  0.68060009165E-01  0.47444624417E-02  0.68758848068E-01  0.51100000000E-03 0.  1.
         11    1    4    4    0    0  0.99249426261E-03  0.58407405973E-01  0.20854489543E-01  0.62028872087E-01  0.51100000000E-03 0. -1.
</event>
<event>
 8    1  0.1078274E+005  0.1043930E+01  0.7957747E-01            NaN
         13   -1    0    0    0    0  0.00000000000E+00  0.00000000000E+00  0.74505805969E-08  0.10566000000E+00  0.10566000000E+00 0. -1.
     999900   -1    0    0    0    0 -0.00000000000E+00 -0.00000000000E+00 -0.74505805969E-08  0.93827000000E+00  0.93827000000E+00 0. -1.
     999902    2    1    2    0    0  0.64670093423E-02 -0.22124471664E-01 -0.64107592056E-03  0.10208708275E+01  0.10206103669E+01 0.  0.
     999903    2    3    3    0    0  0.46471317246E-01 -0.48105082774E-01 -0.11251087303E+00  0.13250705728E+00  0.20633501033E-01 0.  0.
         14    1    1    2    0    0 -0.64670093423E-02  0.22124471664E-01  0.64107592056E-03  0.23059172461E-01  0.00000000000E+00 0. -1.
     999901    1    3    3    0    0 -0.40004307903E-01  0.25980611110E-01  0.11186979710E+00  0.88836377026E+00  0.88000000000E+00 0.  1.
        -11    1    4    4    0    0  0.43061852090E-02 -0.16424461957E-01 -0.32585258862E-01  0.36747331845E-01  0.51100000000E-03 0. -1.
         11    1    4    4    0    0  0.42165132037E-01 -0.31680620817E-01 -0.79925614164E-01  0.95759725435E-01  0.51100000000E-03 0.  1.
</event>
<event>
 8    1  0.1078274E+005  0.1043930E+01  0.7957747E-01            NaN
         13   -1    0    0    0    0  0.00000000000E+00  0.00000000000E+00  0.74505805969E-08  0.10566000000E+00  0.10566000000E+00 0. -1.
     999900   -1    0    0    0    0 -0.00000000000E+00 -0.00000000000E+00 -0.74505805969E-08  0.93827000000E+00  0.93827000000E+00 0.  1.
     999902    2    1    2    0    0  0.12112734747E-01 -0.43254304578E-02 -0.19796371711E-01  0.10203222889E+01  0.10200491406E+01 0.  0.
     999903    2    3    3    0    0  0.13062937441E+00 -0.48597313595E-02  0.19255715952E-02  0.13211154689E+00  0.19028992288E-01 0.  0.
         14    1    1    2    0    0 -0.12112734747E-01  0.43254304578E-02  0.19796371711E-01  0.23607711126E-01  0.00000000000E+00 0. -1.
     999901    1    3    3    0    0 -0.11851663966E+00  0.53430090170E-03 -0.21721943307E-01  0.88821074198E+00  0.88000000000E+00 0. -1.
        -11    1    4    4    0    0  0.12252092619E+00 -0.72289228349E-02  0.56506484797E-02  0.12286507082E+00  0.51100000000E-03 0.  1.
         11    1    4    4    0    0  0.81084482265E-02  0.23691914754E-02 -0.37250768845E-02  0.92464760685E-02  0.51100000000E-03 0. -1.
</event>
<event>
 8    1  0.1078274E+005  0.1043930E+01  0.7957747E-01            NaN
         13   -1    0    0    0    0  0.00000000000E+00  0.00000000000E+00  0.74505805969E-08  0.10566000000E+00  0.10566000000E+00 0. -1.
     999900   -1    0    0    0    0 -0.00000000000E+00 -0.00000000000E+00 -0.74505805969E-08  0.93827000000E+00  0.93827000000E+00 0.  1.
     999902    2    1    2    0    0 -0.20298089371E-01  0.10072035510E-01 -0.39080119751E-02  0.10209358510E+01  0.10206768739E+01 0.  0.
     999903    2    3    3    0    0  0.51133984973E-01  0.11424196560E+00 -0.34918363051E-01  0.13137665821E+00  0.19355183300E-01 0.  0.
         14    1    1    2    0    0  0.20298089371E-01 -0.10072035510E-01  0.39080119751E-02  0.22994149017E-01  0.00000000000E+00 0.  1.
     999901    1    3    3    0    0 -0.71432074344E-01 -0.10416993009E+00  0.31010351076E-01  0.88955919278E+00  0.88000000000E+00 0.  1.
        -11    1    4    4    0    0  0.19344824885E-01  0.34227001268E-01 -0.19568082336E-01  0.43919025865E-01  0.51100000000E-03 0.  1.
         11    1    4    4    0    0  0.31789160088E-01  0.80014964329E-01 -0.15350280715E-01  0.87457632341E-01  0.51100000000E-03 0. -1.
</event>
<event>
 8    1  0.1078274E+005  0.1043930E+01  0.7957747E-01            NaN
         13   -1    0    0    0    0  0.00000000000E+00  0.00000000000E+00  0.74505805969E-08  0.10566000000E+00  0.10566000000E+00 0. -1.
     999900   -1    0    0    0    0 -0.00000000000E+00 -0.00000000000E+00 -0.74505805969E-08  0.93827000000E+00  0.93827000000E+00 0. -1.
     999902    2    1    2    0    0  0.19972513404E-02 -0.22373332843E-01 -0.73044130104E-02  0.10203098924E+01  0.10200364537E+01 0.  0.
     999903    2    3    3    0    0 -0.10769039009E+00 -0.39382244478E-01  0.59977603119E-01  0.13078892496E+00  0.18980219124E-01 0.  0.
         14    1    1    2    0    0 -0.19972513404E-02  0.22373332843E-01  0.73044130104E-02  0.23620107638E-01  0.00000000000E+00 0.  1.
     999901    1    3    3    0    0  0.10968764143E+00  0.17008911636E-01 -0.67282016129E-01  0.88952096740E+00  0.88000000000E+00 0.  1.
        -11    1    4    4    0    0 -0.70233586984E-02 -0.66133825919E-02  0.12996128639E-02  0.97475387308E-02  0.51100000000E-03 0.  1.
         11    1    4    4    0    0 -0.10066703139E+00 -0.32768861886E-01  0.58677990255E-01  0.12104138623E+00  0.51100000000E-03 0. -1.
</event>
<event>
 8    1  0.1078274E+005  0.1043930E+01  0.7957747E-01            NaN
         13   -1    0    0    0    0  0.00000000000E+00  0.00000000000E+00  0.74505805969E-08  0.10566000000E+00  0.10566000000E+00 0. -1.
     999900   -1    0    0    0    0 -0.00000000000E+00 -0.00000000000E+00 -0.74505805969E-08  0.93827000000E+00  0.93827000000E+00 0. -1.
     999902    2    1    2    0    0  0.22859844854E-01 -0.56670719035E-03  0.41625624885E-02  0.10206873541E+01  0.10204226841E+01 0.  0.
     999903    2    3    3    0    0  0.10014700427E+00 -0.58176238081E-01 -0.61888623910E-01  0.13296277837E+00  0.20856690093E-01 0.  0.
         14    1    1    2    0    0 -0.22859844854E-01  0.56670719035E-03 -0.41625624885E-02  0.23242645939E-01  0.00000000000E+00 0.  1.
     999901    1    3    3    0    0 -0.77287159414E-01  0.57609530890E-01  0.66051186398E-01  0.88772457569E+00  0.88000000000E+00 0.  1.
        -11    1    4    4    0    0  0.92174973728E-01 -0.54255688395E-01 -0.62775853201E-01  0.12402005633E+00  0.51100000000E-03 0.  1.
         11    1    4    4    0    0  0.79720305395E-02 -0.39205496854E-02  0.88722929079E-03  0.89427220450E-02  0.51100000000E-03 0. -1.
</event>
<event>
 8    1  0.1078274E+005  0.1043930E+01  0.7957747E-01            NaN
         13   -1    0    0    0    0  0.00000000000E+00  0.00000000000E+00  0.74505805969E-08  0.10566000000E+00  0.10566000000E+00 0. -1.
     999900   -1    0    0    0    0 -0.00000000000E+00 -0.00000000000E+00 -0.74505805969E-08  0.93827000000E+00  0.93827000000E+00 0. -1.
     999902    2    1    2    0    0  0.14595910915E-01  0.69747335611E-03 -0.19580963465E-01  0.10194976195E+01  0.10192048151E+01 0.  0.
     999903    2    3    3    0    0 -0.31875539705E-01  0.10686500761E+00  0.60773402272E-01  0.12826927330E+00  0.17983886301E-01 0.  0.
         14    1    1    2    0    0 -0.14595910915E-01 -0.69747335611E-03  0.19580963465E-01  0.24432380455E-01  0.00000000000E+00 0. -1.
     999901    1    3    3    0    0  0.46471450620E-01 -0.10616753426E+00 -0.80354365737E-01  0.89122834624E+00  0.88000000000E+00 0. -1.
        -11    1    4    4    0    0 -0.58817611951E-02  0.25046808216E-01  0.22859795515E-01  0.34420474845E-01  0.51100000000E-03 0. -1.
         11    1    4    4    0    0 -0.25993778510E-01  0.81818199396E-01  0.37913606757E-01  0.93848798458E-01  0.51100000000E-03 0.  1.
</event>
<event>
 8    1  0.1078274E+005  0.1043930E+01  0.7957747E-01            NaN
         13   -1    0    0    0    0  0.00000000000E+00  0.00000000000E+00  0.74505805969E-08  0.10566000000E+00  0.10566000000E+00 0.  1.
     999900   -1    0    0    0    0 -0.00000000000E+00 -0.00000000000E+00 -0.74505805969E-08  0.93827000000E+00  0.93827000000E+00 0.  1.
     999902    2    1    2    0    0 -0.18039010613E-01 -0.96847395711E-03 -0.14869963486E-01  0.10205321441E+01  0.10202638862E+01 0.  0.
     999903    2    3    3    0    0  0.87893176805E-01  0.89488808274E-01  0.21625939026E-01  0.12882810177E+00  0.19888218427E-01 0.  0.
         14    1    1    2    0    0  0.18039010613E-01  0.96847395711E-03  0.14869963486E-01  0.23397855880E-01  0.00000000000E+00 0.  1.
     999901    1    3    3    0    0 -0.10593218742E+00 -0.90457282231E-01 -0.36495902512E-01  0.89170404235E+00  0.88000000000E+00 0. -1.
        -11    1    4    4    0    0  0.70417445513E-01  0.61088708612E-01  0.20542227562E-01  0.95460416858E-01  0.51100000000E-03 0. -1.
         11    1    4    4    0    0  0.17475731293E-01  0.28400099662E-01  0.10837114644E-02  0.33367684914E-01  0.51100000000E-03 0.  1.
</event>
<event>
 8    1  0.1078274E+005  0.1043930E+01  0.7957747E-01            NaN
         13   -1    0    0    0    0  0.00000000000E+00  0.00000000000E+00  0.74505805969E-08  0.10566000000E+00  0.10566000000E+00 0.  1.
     999900   -1    0    0    0    0 -0.00000000000E+00 -0.00000000000E+00 -0.74505805969E-08  0.93827000000E+00  0.93827000000E+00 0. -1.
     999902    2    1    2    0    0 -0.17392334819E-01 -0.11889006518E-01  0.10175760480E-01  0.10205336779E+01  0.10202654556E+01 0.  0.
     999903    2    3    3    0    0  0.11891879640E+00 -0.30790349733E-01 -0.32984207108E-01  0.12879337486E+00  0.20249684320E-01 0.  0.
         14    1    1    2    0    0  0.17392334819E-01  0.11889006518E-01 -0.10175760480E-01  0.23396322099E-01  0.00000000000E+00 0. -1.
     999901    1    3    3    0    0 -0.13631113122E+00  0.18901343215E-01  0.43159967587E-01  0.89174030304E+00  0.88000000000E+00 0.  1.
        -11    1    4    4    0    0  0.47637563049E-01 -0.19717807856E-01 -0.20974727747E-01  0.55662641736E-01  0.51100000000E-03 0.  1.
         11    1    4    4    0    0  0.71281233349E-01 -0.11072541877E-01 -0.12009479361E-01  0.73130733122E-01  0.51100000000E-03 0. -1.
</event>
<event>
 8    1  0.1078274E+005  0.1043930E+01  0.7957747E-01            NaN
         13   -1    0    0    0    0  0.00000000000E+00  0.00000000000E+00  0.74505805969E-08  0.10566000000E+00  0.10566000000E+00 0.  1.
     999900   -1    0    0    0    0 -0.00000000000E+00 -0.00000000000E+00 -0.74505805969E-08  0.93827000000E+00  0.93827000000E+00 0. -1.
     999902    2    1    2    0    0 -0.33032609737E-01 -0.84382024882E-02  0.24409184641E-02  0.10097493820E+01  0.10091706990E+01 0.  0.
     999903    2    3    3    0    0 -0.99864371281E-01  0.68970311528E-01  0.15570963389E-01  0.12372965278E+00  0.18351445544E-01 0.  0.
         14    1    1    2    0    0  0.33032609737E-01  0.84382024882E-02 -0.24409184641E-02  0.34180618050E-01  0.00000000000E+00 0. -1.
     999901    1    3    3    0    0  0.66831761543E-01 -0.77408514016E-01 -0.13130044925E-01  0.88601972917E+00  0.88000000000E+00 0.  1.
        -11    1    4    4    0    0 -0.60546415024E-01  0.52257132572E-01  0.11639608302E-01  0.80823374586E-01  0.51100000000E-03 0.  1.
         11    1    4    4    0    0 -0.39317956256E-01  0.16713178955E-01  0.39313550866E-02  0.42906278198E-01  0.51100000000E-03 0. -1.
</event>
<event>
 8    1  0.1078274E+005  0.1043930E+01  0.7957747E-01            NaN
         13   -1    0    0    0    0  0.00000000000E+00  0.00000000000E+00  0.74505805969E-08  0.10566000000E+00  0.10566000000E+00 0.  1.
     999900   -1    0    0    0    0 -0.00000000000E+00 -0.00000000000E+00 -0.74505805969E-08  0.93827000000E+00  0.93827000000E+00 0.  1.
     999902    2    1    2    0    0 -0.19085727534E-01  0.88148556718E-02 -0.10270612073E-01  0.10205323046E+01  0.10202640505E+01 0.  0.
     999903    2    3    3    0    0 -0.78545190517E-01 -0.10259277892E+00 -0.11949011972E-01  0.13151604730E+00  0.21425838813E-01 0.  0.
         14    1    1    2    0    0  0.19085727534E-01 -0.88148556718E-02  0.10270612073E-01  0.23397695365E-01  0.00000000000E+00 0. -1.
     999901    1    3    3    0    0  0.59459462983E-01  0.11140763460E+00  0.16783998990E-02  0.88901625734E+00  0.88000000000E+00 0. -1.
        -11    1    4    4    0    0 -0.66173154189E-01 -0.78911962472E-01 -0.16825236570E-01  0.10435197106E+00  0.51100000000E-03 0.  1.
         11    1    4    4    0    0 -0.12372036328E-01 -0.23680816452E-01  0.48762245978E-02  0.27164076242E-01  0.51100000000E-03 0. -1.
</event>
<event>
 8    1  0.1078274E+005  0.1043930E+01  0.7957747E-01            NaN
         13   -1    0    0    0    0  0.00000000000E+00  0.00000000000E+00  0.74505805969E-08  0.10566000000E+00  0.10566000000E+00 0.  1.
     999900   -1    0    0    0    0 -0.00000000000E+00 -0.00000000000E+00 -0.74505805969E-08  0.93827000000E+00  0.93827000000E+00 0. -1.
     999902    2    1    2    0    0  0.14723379470E-01 -0.18409309916E-01  0.18955387677E-03  0.10203563595E+01  0.10200840083E+01 0.  0.
     999903    2    3    3    0    0  0.34323746924E-03 -0.75459557696E-01  0.10655876364E+00  0.13200061544E+00  0.19368265511E-01 0.  0.
         14    1    1    2    0    0 -0.14723379470E-01  0.18409309916E-01 -0.18955387677E-03  0.23573640476E-01  0.00000000000E+00 0. -1.
     999901    1    3    3    0    0  0.14380142001E-01  0.57050247780E-01 -0.10636920977E+00  0.88835574408E+00  0.88000000000E+00 0. -1.
        -11    1    4    4    0    0  0.73677030716E-02 -0.60386103912E-01  0.89057726921E-01  0.10785316147E+00  0.51100000000E-03 0. -1.
         11    1    4    4    0    0 -0.70244656023E-02 -0.15073453785E-01  0.17501036721E-01  0.24147453971E-01  0.51100000000E-03 0.  1.
</event>
<event>
 8    1  0.1078274E+005  0.1043930E+01  0.7957747E-01            NaN
         13   -1    0    0    0    0  0.00000000000E+00  0.00000000000E+00  0.74505805969E-08  0.10566000000E+00  0.10566000000E+00 0. -1.
     999900   -1    0    0    0    0 -0.00000000000E+00 -0.00000000000E+00 -0.74505805969E-08  0.93827000000E+00  0.93827000000E+00 0.  1.
     999902    2    1    2    0    0  0.12293607355E-01 -0.17806024772E-02 -0.11985975007E-01  0.10266682816E+01  0.10265231578E+01 0.  0.
     999903    2    3    3    0    0  0.12807734536E+00  0.43750213833E-01 -0.17256197915E-01  0.13790132421E+00  0.20027761915E-01 0.  0.
         14    1    1    2    0    0 -0.12293607355E-01  0.17806024772E-02  0.11985975007E-01  0.17261718450E-01  0.00000000000E+00 0. -1.
     999901    1    3    3    0    0 -0.11578373800E+00 -0.45530816310E-01  0.52702229084E-02  0.88876695735E+00  0.88000000000E+00 0. -1.
        -11    1    4    4    0    0  0.72936658092E-01  0.19467779317E-01 -0.18145814286E-01  0.77642013255E-01  0.51100000000E-03 0.  1.
         11    1    4    4    0    0  0.55140687263E-01  0.24282434516E-01  0.88961637117E-03  0.60259310950E-01  0.51100000000E-03 0. -1.
</event>
<event>
 8    1  0.1078274E+005  0.1043930E+01  0.7957747E-01            NaN
         13   -1    0    0    0    0  0.00000000000E+00  0.00000000000E+00  0.74505805969E-08  0.10566000000E+00  0.10566000000E+00 0.  1.
     999900   -1    0    0    0    0 -0.00000000000E+00 -0.00000000000E+00 -0.74505805969E-08  0.93827000000E+00  0.93827000000E+00 0. -1.
     999902    2    1    2    0    0 -0.59547453611E-02 -0.61750777177E-02 -0.11987314800E-01  0.10291893659E+01  0.10290837986E+01 0.  0.
     999903    2    3    3    0    0 -0.50373592801E-01 -0.10383651412E+00 -0.76961116953E-01  0.14029545485E+00  0.20982864736E-01 0.  0.
         14    1    1    2    0    0  0.59547453611E-02  0.61750777177E-02  0.11987314800E-01  0.14740634086E-01  0.00000000000E+00 0.  1.
     999901    1    3    3    0    0  0.44418847440E-01  0.97661436398E-01  0.64973802152E-01  0.88889391107E+00  0.88000000000E+00 0. -1.
        -11    1    4    4    0    0 -0.45834672924E-01 -0.99985937481E-01 -0.77094492344E-01  0.13431986751E+00  0.51100000000E-03 0.  1.
         11    1    4    4    0    0 -0.45389198770E-02 -0.38505766344E-02  0.13337539088E-03  0.59755873404E-02  0.51100000000E-03 0. -1.
</event>
<event>
 8    1  0.1078274E+005  0.1043930E+01  0.7957747E-01            NaN
         13   -1    0    0    0    0  0.00000000000E+00  0.00000000000E+00  0.74505805969E-08  0.10566000000E+00  0.10566000000E+00 0. -1.
     999900   -1    0    0    0    0 -0.00000000000E+00 -0.00000000000E+00 -0.74505805969E-08  0.93827000000E+00  0.93827000000E+00 0.  1.
     999902    2    1    2    0    0 -0.17027744010E-01  0.16521367027E-01  0.48735950627E-02  0.10197091089E+01  0.10194214120E+01 0.  0.
     999903    2    3    3    0    0 -0.75744199305E-01  0.10329487576E-01  0.10577196300E+00  0.13197804486E+00  0.19662505583E-01 0.  0.
         14    1    1    2    0    0  0.17027744010E-01 -0.16521367027E-01 -0.48735950627E-02  0.24220891052E-01  0.00000000000E+00 0.  1.
     999901    1    3    3    0    0  0.58716455295E-01  0.61918794507E-02 -0.10089836794E+00  0.88773106409E+00  0.88000000000E+00 0.  1.
        -11    1    4    4    0    0 -0.62745598702E-01  0.51091897097E-02  0.73390730982E-01  0.96693197749E-01  0.51100000000E-03 0. -1.
         11    1    4    4    0    0 -0.12998600603E-01  0.52202978666E-02  0.32381232021E-01  0.35284847111E-01  0.51100000000E-03 0.  1.
</event>
<event>
 8    1  0.1078274E+005  0.1043930E+01  0.7957747E-01            NaN
         13   -1    0    0    0    0  0.00000000000E+00  0.00000000000E+00  0.74505805969E-08  0.10566000000E+00  0.10566000000E+00 0.  1.
     999900   -1    0    0    0    0 -0.00000000000E+00 -0.00000000000E+00 -0.74505805969E-08  0.93827000000E+00  0.93827000000E+00 0. -1.
     999902    2    1    2    0    0  0.65206331879E-02 -0.19707042331E-01 -0.13699773913E-01  0.10190589329E+01  0.10187553871E+01 0.  0.
     999903    2    3    3    0    0 -0.54003027900E-01  0.10661026406E+00  0.36816843914E-01  0.12655061128E+00  0.19429405357E-01 0.  0.
         14    1    1    2    0    0 -0.65206331879E-02  0.19707042331E-01  0.13699773913E-01  0.24871067124E-01  0.00000000000E+00 0.  1.
     999901    1    3    3    0    0  0.60523661088E-01 -0.12631730640E+00 -0.50516617827E-01  0.89250832160E+00  0.88000000000E+00 0. -1.
        -11    1    4    4    0    0 -0.32421247693E-01  0.74522405027E-01  0.16744524644E-01  0.82978107833E-01  0.51100000000E-03 0. -1.
         11    1    4    4    0    0 -0.21581780207E-01  0.32087859038E-01  0.20072319270E-01  0.43572503445E-01  0.51100000000E-03 0.  1.
</event>
<event>
 8    1  0.1078274E+005  0.1043930E+01  0.7957747E-01            NaN
         13   -1    0    0    0    0  0.00000000000E+00  0.00000000000E+00  0.74505805969E-08  0.10566000000E+00  0.10566000000E+00 0.  1.
     999900   -1    0    0    0    0 -0.00000000000E+00 -0.00000000000E+00 -0.74505805969E-08  0.93827000000E+00  0.93827000000E+00 0. -1.
     999902    2    1    2    0    0  0.18761619950E-01  0.14425499021E-01 -0.18532681761E-02  0.10201912551E+01  0.10199150303E+01 0.  0.
     999903    2    3    3    0    0 -0.13787555303E-01 -0.69199320577E-01 -0.10664463123E+00  0.12944225062E+00  0.20089206722E-01 0.  0.
         14    1    1    2    0    0 -0.18761619950E-01 -0.14425499021E-01  0.18532681761E-02  0.23738744872E-01  0.00000000000E+00 0.  1.
     999901    1    3    3    0    0  0.32549175254E-01  0.83624819598E-01  0.10479136305E+00  0.89074900451E+00  0.88000000000E+00 0.  1.
        -11    1    4    4    0    0  0.42552950273E-02 -0.11778403994E-01 -0.25463717813E-01  0.28381338627E-01  0.51100000000E-03 0. -1.
         11    1    4    4    0    0 -0.18042850331E-01 -0.57420916582E-01 -0.81180913413E-01  0.10106091199E+00  0.51100000000E-03 0.  1.
</event>
<event>
 7    1  0.1175827E+005  0.1043930E+01  0.7957747E-01            NaN
         13   -1    0    0    0    0  0.00000000000E+00  0.00000000000E+00  0.74505805969E-08  0.10566000000E+00  0.10566000000E+00 0. -1.
     999900   -1    0    0    0    0 -0.00000000000E+00 -0.00000000000E+00 -0.74505805969E-08  0.93827000000E+00  0.93827000000E+00 0.  1.
     999903    2    1    2    0    0  0.59199029224E-01  0.74867581871E-01  0.52915825986E-01  0.11095452101E+00  0.20028510088E-01 0.  0.
         14    1    1    2    0    0  0.41692526288E-01  0.36313990444E-02 -0.79810190411E-02  0.42604582761E-01  0.00000000000E+00 0. -1.
     999901    1    1    2    0    0 -0.10089155551E+00 -0.78498980915E-01 -0.44934806945E-01  0.89037089623E+00  0.88000000000E+00 0.  1.
        -11    1    3    3    0    0  0.26350366347E-01  0.28183353795E-01  0.32099407225E-01  0.50192392879E-01  0.51100000000E-03 0. -1.
         11    1    3    3    0    0  0.32848662877E-01  0.46684228076E-01  0.20816418761E-01  0.60762128130E-01  0.51100000000E-03 0.  1.
</event>
<event>
 8    1  0.1078274E+005  0.1043930E+01  0.7957747E-01            NaN
         13   -1    0    0    0    0  0.00000000000E+00  0.00000000000E+00  0.74505805969E-08  0.10566000000E+00  0.10566000000E+00 0.  1.
     999900   -1    0    0    0    0 -0.00000000000E+00 -0.00000000000E+00 -0.74505805969E-08  0.93827000000E+00  0.93827000000E+00 0. -1.
     999902    2    1    2    0    0  0.48234999381E-02  0.69688936858E-04 -0.22811464410E-01  0.10206140416E+01  0.10203476799E+01 0.  0.
     999903    2    3    3    0    0  0.52794113198E-01 -0.13101234729E-01  0.11478604856E+00  0.12853347990E+00  0.19650897474E-01 0.  0.
         14    1    1    2    0    0 -0.48234999381E-02 -0.69688936858E-04  0.22811464410E-01  0.23315958413E-01  0.00000000000E+00 0.  1.
     999901    1    3    3    0    0 -0.47970613260E-01  0.13170923666E-01 -0.13759751297E+00  0.89208056169E+00  0.88000000000E+00 0.  1.
        -11    1    4    4    0    0  0.45378440369E-01 -0.15867827905E-01  0.84426161287E-01  0.97154663519E-01  0.51100000000E-03 0. -1.
         11    1    4    4    0    0  0.74156728295E-02  0.27665931766E-02  0.30359887271E-01  0.31378816380E-01  0.51100000000E-03 0.  1.
</event>
<event>
 8    1  0.1078274E+005  0.1043930E+01  0.7957747E-01            NaN
         13   -1    0    0    0    0  0.00000000000E+00  0.00000000000E+00  0.74505805969E-08  0.10566000000E+00  0.10566000000E+00 0.  1.
     999900   -1    0    0    0    0 -0.00000000000E+00 -0.00000000000E+00 -0.74505805969E-08  0.93827000000E+00  0.93827000000E+00 0.  1.
     999902    2    1    2    0    0  0.91446564614E-03  0.26230003732E-02 -0.23717259576E-01  0.10200506202E+01  0.10197710738E+01 0.  0.
     999903    2    3    3    0    0  0.68581073686E-01  0.10917362856E+00  0.62429716751E-02  0.13053984360E+00  0.19478994594E-01 0.  0.
         14    1    1    2    0    0 -0.91446564614E-03 -0.26230003732E-02  0.23717259576E-01  0.23879379812E-01  0.00000000000E+00 0.  1.
     999901    1    3    3    0    0 -0.67666608040E-01 -0.10655062819E+00 -0.29960231251E-01  0.88951077659E+00  0.88000000000E+00 0.  1.
        -11    1    4    4    0    0  0.49685778919E-01  0.73050847277E-01 -0.42216847494E-02  0.88448779855E-01  0.51100000000E-03 0.  1.
         11    1    4    4    0    0  0.18895294767E-01  0.36122781285E-01  0.10464656424E-01  0.42091063745E-01  0.51100000000E-03 0. -1.
</event>
<event>
 8    1  0.1078274E+005  0.1043930E+01  0.7957747E-01            NaN
         13   -1    0    0    0    0  0.00000000000E+00  0.00000000000E+00  0.74505805969E-08  0.10566000000E+00  0.10566000000E+00 0. -1.
     999900   -1    0    0    0    0 -0.00000000000E+00 -0.00000000000E+00 -0.74505805969E-08  0.93827000000E+00  0.93827000000E+00 0. -1.
     999902    2    1    2    0    0  0.17833525305E-01  0.58715491860E-02  0.24339152455E-01  0.10131907083E+01  0.10127242997E+01 0.  0.
     999903    2    3    3    0    0  0.42529454825E-01  0.10869438969E+00 -0.38716870302E-01  0.12461967144E+00  0.20195088179E-01 0.  0.
         14    1    1    2    0    0 -0.17833525305E-01 -0.58715491860E-02 -0.24339152455E-01  0.30739291743E-01  0.00000000000E+00 0.  1.
     999901    1    3    3    0    0 -0.24695929520E-01 -0.10282284050E+00  0.63056022756E-01  0.88857103682E+00  0.88000000000E+00 0.  1.
        -11    1    4    4    0    0  0.11513513766E-01  0.26137418412E-01 -0.18828425187E-01  0.34212517541E-01  0.51100000000E-03 0.  1.
         11    1    4    4    0    0  0.31015941059E-01  0.82556971276E-01 -0.19888445115E-01  0.90407153899E-01  0.51100000000E-03 0. -1.
</event>
<event>
 8    1  0.1078274E+005  0.1043930E+01  0.7957747E-01            NaN
         13   -1    0    0    0    0  0.00000000000E+00  0.00000000000E+00  0.74505805969E-08  0.10566000000E+00  0.10566000000E+00 0. -1.
     999900   -1    0    0    0    0 -0.00000000000E+00 -0.00000000000E+00 -0.74505805969E-08  0.93827000000E+00  0.93827000000E+00 0. -1.
     999902    2    1    2    0    0  0.13133236427E-01  0.20773934160E-01  0.90903852300E-03  0.10193360050E+01  0.10190392664E+01 0.  0.
     999903    2    3    3    0    0  0.33873228932E-01 -0.11783535790E+00 -0.29562626929E-01  0.12772442727E+00  0.20174568147E-01 0.  0.
         14    1    1    2    0    0 -0.13133236427E-01 -0.20773934160E-01 -0.90903852300E-03  0.24593995011E-01  0.00000000000E+00 0. -1.
     999901    1    3    3    0    0 -0.20739992505E-01  0.13860929206E+00  0.30471665452E-01  0.89161157772E+00  0.88000000000E+00 0. -1.
        -11    1    4    4    0    0  0.25747249950E-01 -0.80140121886E-01 -0.29390413789E-01  0.89159506277E-01  0.51100000000E-03 0.  1.
         11    1    4    4    0    0  0.81259789820E-02 -0.37695236014E-01 -0.17221314049E-03  0.38564920989E-01  0.51100000000E-03 0. -1.
</event>
<event>
 8    1  0.1078274E+005  0.1043930E+01  0.7957747E-01            NaN
         13   -1    0    0    0    0  0.00000000000E+00  0.00000000000E+00  0.74505805969E-08  0.10566000000E+00  0.10566000000E+00 0. -1.
     999900   -1    0    0    0    0 -0.00000000000E+00 -0.00000000000E+00 -0.74505805969E-08  0.93827000000E+00  0.93827000000E+00 0.  1.
     999902    2    1    2    0    0  0.54814909155E-02  0.23920116293E-01 -0.48954820737E-02  0.10189063222E+01  0.10185989932E+01 0.  0.
     999903    2    3    3    0    0 -0.56899795438E-01  0.11022155380E+00  0.40031929700E-01  0.13134909287E+00  0.16237338405E-01 0.  0.
         14    1    1    2    0    0 -0.54814909155E-02 -0.23920116293E-01  0.48954820737E-02  0.25023677804E-01  0.00000000000E+00 0.  1.
     999901    1    3    3    0    0  0.62381286353E-01 -0.86301437509E-01 -0.44927411773E-01  0.88755722933E+00  0.88000000000E+00 0. -1.
        -11    1    4    4    0    0 -0.43788276404E-01  0.75763083009E-01  0.34502653823E-01  0.94064616830E-01  0.51100000000E-03 0.  1.
         11    1    4    4    0    0 -0.13111519033E-01  0.34458470793E-01  0.55292758766E-02  0.37284476039E-01  0.51100000000E-03 0. -1.
</event>
<event>
 8    1  0.1078274E+005  0.1043930E+01  0.7957747E-01            NaN
         13   -1    0    0    0    0  0.00000000000E+00  0.00000000000E+00  0.74505805969E-08  0.10566000000E+00  0.10566000000E+00 0.  1.
     999900   -1    0    0    0    0 -0.00000000000E+00 -0.00000000000E+00 -0.74505805969E-08  0.93827000000E+00  0.93827000000E+00 0. -1.
     999902    2    1    2    0    0 -0.59072897327E-02  0.68580706300E-02  0.21842113474E-01  0.10202866685E+01  0.10200126856E+01 0.  0.
     999903    2    3    3    0    0 -0.32186936772E-01  0.85587216997E-01  0.94964273858E-01  0.13336178514E+00  0.20148990392E-01 0.  0.
         14    1    1    2    0    0  0.59072897327E-02 -0.68580706300E-02 -0.21842113474E-01  0.23643331529E-01  0.00000000000E+00 0. -1.
     999901    1    3    3    0    0  0.26279647040E-01 -0.78729146367E-01 -0.73122160384E-01  0.88692488333E+00  0.88000000000E+00 0.  1.
        -11    1    4    4    0    0 -0.21737659161E-01  0.76667457236E-01  0.77809307533E-01  0.11137762021E+00  0.51100000000E-03 0. -1.
         11    1    4    4    0    0 -0.10449277611E-01  0.89197597605E-02  0.17154966325E-01  0.21984164923E-01  0.51100000000E-03 0.  1.
</event>
<event>
 8    1  0.1078274E+005  0.1043930E+01  0.7957747E-01            NaN
         13   -1    0    0    0    0  0.00000000000E+00  0.00000000000E+00  0.74505805969E-08  0.10566000000E+00  0.10566000000E+00 0.  1.
     999900   -1    0    0    0    0 -0.00000000000E+00 -0.00000000000E+00 -0.74505805969E-08  0.93827000000E+00  0.93827000000E+00 0.  1.
     999902    2    1    2    0    0  0.18538966856E-01 -0.11643533837E-01 -0.46839075796E-02  0.10215424105E+01  0.10212970637E+01 0.  0.
     999903    2    3    3    0    0 -0.10174201688E+00 -0.77109759589E-01  0.19206553815E-01  0.13063046431E+00  0.19951778688E-01 0.  0.
         14    1    1    2    0    0 -0.18538966856E-01  0.11643533837E-01  0.46839075796E-02  0.22387589475E-01  0.00000000000E+00 0.  1.
     999901    1    3    3    0    0  0.12028098374E+00  0.65466225752E-01 -0.23890461395E-01  0.89091194622E+00  0.88000000000E+00 0.  1.
        -11    1    4    4    0    0 -0.47847193020E-01 -0.24034000437E-01  0.91081934295E-02  0.54315811376E-01  0.51100000000E-03 0.  1.
         11    1    4    4    0    0 -0.53894823864E-01 -0.53075759152E-01  0.10098360385E-01  0.76314652934E-01  0.51100000000E-03 0. -1.
</event>
<event>
 8    1  0.1078274E+005  0.1043930E+01  0.7957747E-01            NaN
         13   -1    0    0    0    0  0.00000000000E+00  0.00000000000E+00  0.74505805969E-08  0.10566000000E+00  0.10566000000E+00 0. -1.
     999900   -1    0    0    0    0 -0.00000000000E+00 -0.00000000000E+00 -0.74505805969E-08  0.93827000000E+00  0.93827000000E+00 0.  1.
     999902    2    1    2    0    0  0.16321399493E-01 -0.59280157158E-02  0.13946436315E-01  0.10216582121E+01  0.10214154247E+01 0.  0.
     999903    2    3    3    0    0 -0.10975299754E+00 -0.19753280224E-01  0.65217346730E-01  0.13108839573E+00  0.22247530913E-01 0.  0.
         14    1    1    2    0    0 -0.16321399493E-01  0.59280157158E-02 -0.13946436315E-01  0.22271787931E-01  0.00000000000E+00 0.  1.
     999901    1    3    3    0    0  0.12607439703E+00  0.13825264508E-01 -0.51270910414E-01  0.89056981634E+00  0.88000000000E+00 0. -1.
        -11    1    4    4    0    0 -0.68413327233E-01 -0.74655188854E-02  0.51059253499E-01  0.85693790931E-01  0.51100000000E-03 0.  1.
         11    1    4    4    0    0 -0.41339670304E-01 -0.12287761339E-01  0.14158093230E-01  0.45394604795E-01  0.51100000000E-03 0. -1.
</event>
<event>
 8    1  0.1078274E+005  0.1043930E+01  0.7957747E-01            NaN
         13   -1    0    0    0    0  0.00000000000E+00  0.00000000000E+00  0.74505805969E-08  0.10566000000E+00  0.10566000000E+00 0.  1.
     999900   -1    0    0    0    0 -0.00000000000E+00 -0.00000000000E+00 -0.74505805969E-08  0.93827000000E+00  0.93827000000E+00 0. -1.
     999902    2    1    2    0    0  0.68657579281E-02  0.89666657030E-02  0.20742924325E-01  0.10203120273E+01  0.10200386387E+01 0.  0.
     999903    2    3    3    0    0  0.26271051905E-01  0.28243289190E-01  0.12634308563E+00  0.13357669602E+00  0.19806738250E-01 0.  0.
         14    1    1    2    0    0 -0.68657579281E-02 -0.89666657030E-02 -0.20742924325E-01  0.23617972718E-01  0.00000000000E+00 0. -1.
     999901    1    3    3    0    0 -0.19405293977E-01 -0.19276623487E-01 -0.10560016130E+00  0.88673533127E+00  0.88000000000E+00 0. -1.
        -11    1    4    4    0    0  0.19961936404E-01  0.26832724817E-01  0.11973132027E+00  0.12431542222E+00  0.51100000000E-03 0.  1.
         11    1    4    4    0    0  0.63091155011E-02  0.14105643733E-02  0.66117653584E-02  0.92612738008E-02  0.51100000000E-03 0. -1.
</event>
<event>
 8    1  0.1078274E+005  0.1043930E+01  0.7957747E-01            NaN
         13   -1    0    0    0    0  0.00000000000E+00  0.00000000000E+00  0.74505805969E-08  0.10566000000E+00  0.10566000000E+00 0.  1.
     999900   -1    0    0    0    0 -0.00000000000E+00 -0.00000000000E+00 -0.74505805969E-08  0.93827000000E+00  0.93827000000E+00 0.  1.
     999902    2    1    2    0    0  0.70829954992E-02  0.28634845892E-01  0.12486799174E-01  0.10118980881E+01  0.10113909716E+01 0.  0.
     999903    2    3    3    0    0 -0.78782903594E-01 -0.85171257770E-01  0.20708598040E-01  0.12038679833E+00  0.24561069420E-01 0.  0.
         14    1    1    2    0    0 -0.70829954992E-02 -0.28634845892E-01 -0.12486799174E-01  0.32031911871E-01  0.00000000000E+00 0.  1.
     999901    1    3    3    0    0  0.85865899093E-01  0.11380610366E+00 -0.82217988665E-02  0.89151128980E+00  0.88000000000E+00 0.  1.
        -11    1    4    4    0    0 -0.39977047030E-01 -0.57079304565E-01  0.45932149754E-02  0.69839602259E-01  0.51100000000E-03 0.  1.
         11    1    4    4    0    0 -0.38805856564E-01 -0.28091953205E-01  0.16115383065E-01  0.50547196073E-01  0.51100000000E-03 0. -1.
</event>
<event>
 8    1  0.1078274E+005  0.1043930E+01  0.7957747E-01            NaN
         13   -1    0    0    0    0  0.00000000000E+00  0.00000000000E+00  0.74505805969E-08  0.10566000000E+00  0.10566000000E+00 0.  1.
     999900   -1    0    0    0    0 -0.00000000000E+00 -0.00000000000E+00 -0.74505805969E-08  0.93827000000E+00  0.93827000000E+00 0.  1.
     999902    2    1    2    0    0  0.12112332422E-01 -0.20719053363E-01  0.13086921593E-02  0.10198946002E+01  0.10196113451E+01 0.  0.
     999903    2    3    3    0    0 -0.58142809141E-01  0.62442682484E-01  0.93776601690E-01  0.12837792983E+00  0.20178379359E-01 0.  0.
         14    1    1    2    0    0 -0.12112332422E-01  0.20719053363E-01 -0.13086921593E-02  0.24035399812E-01  0.00000000000E+00 0.  1.
     999901    1    3    3    0    0  0.70255141563E-01 -0.83161735846E-01 -0.92467909531E-01  0.89151667035E+00  0.88000000000E+00 0.  1.
        -11    1    4    4    0    0 -0.52263107467E-01  0.61729830167E-01  0.81963189969E-01  0.11515307189E+00  0.51100000000E-03 0.  1.
         11    1    4    4    0    0 -0.58797016737E-02  0.71285231712E-03  0.11813411721E-01  0.13224857946E-01  0.51100000000E-03 0. -1.
</event>
<event>
 7    1  0.1078274E+005  0.1043930E+01  0.7957747E-01            NaN
         13   -1    0    0    0    0  0.00000000000E+00  0.00000000000E+00  0.74505805969E-08  0.10566000000E+00  0.10566000000E+00 0.  1.
     999900   -1    0    0    0    0 -0.00000000000E+00 -0.00000000000E+00 -0.74505805969E-08  0.93827000000E+00  0.93827000000E+00 0.  1.
     999903    2    1    2    0    0  0.41899001690E-01 -0.93268846341E-02 -0.26210066509E-01  0.54194720729E-01  0.20188686163E-01 0.  0.
         14    1    1    2    0    0  0.86607205689E-01 -0.34454017288E-01 -0.28996890332E-01  0.97615096340E-01  0.00000000000E+00 0. -1.
     999901    1    1    2    0    0 -0.12850620738E+00  0.43780901922E-01  0.55206956841E-01  0.89212018293E+00  0.88000000000E+00 0. -1.
        -11    1    3    3    0    0  0.21701935378E-01 -0.11074568230E-01 -0.50522205750E-02  0.24887870828E-01  0.51100000000E-03 0. -1.
         11    1    3    3    0    0  0.20197066312E-01  0.17476835961E-02 -0.21157845934E-01  0.29306849901E-01  0.51100000000E-03 0.  1.
</event>
<event>
 8    1  0.1078274E+005  0.1043930E+01  0.7957747E-01            NaN
         13   -1    0    0    0    0  0.00000000000E+00  0.00000000000E+00  0.74505805969E-08  0.10566000000E+00  0.10566000000E+00 0.  1.
     999900   -1    0    0    0    0 -0.00000000000E+00 -0.00000000000E+00 -0.74505805969E-08  0.93827000000E+00  0.93827000000E+00 0.  1.
     999902    2    1    2    0    0  0.30181778020E-02  0.21190353781E-01  0.87995765698E-02  0.10207875490E+01  0.10205251820E+01 0.  0.
     999903    2    3    3    0    0 -0.64036697736E-01  0.10479120481E+00  0.48384147184E-01  0.13340240327E+00  0.19320461587E-01 0.  0.
         14    1    1    2    0    0 -0.30181778020E-02 -0.21190353781E-01 -0.87995765698E-02  0.23142451003E-01  0.00000000000E+00 0. -1.
     999901    1    3    3    0    0  0.67054875538E-01 -0.83600851034E-01 -0.39584570615E-01  0.88738514573E+00  0.88000000000E+00 0. -1.
        -11    1    4    4    0    0 -0.29680866592E-01  0.55109101074E-01  0.14931921904E-01  0.64352080585E-01  0.51100000000E-03 0.  1.
         11    1    4    4    0    0 -0.34355831145E-01  0.49682103740E-01  0.33452225280E-01  0.69050322685E-01  0.51100000000E-03 0. -1.
</event>
<event>
 8    1  0.1078274E+005  0.1043930E+01  0.7957747E-01            NaN
         13   -1    0    0    0    0  0.00000000000E+00  0.00000000000E+00  0.74505805969E-08  0.10566000000E+00  0.10566000000E+00 0. -1.
     999900   -1    0    0    0    0 -0.00000000000E+00 -0.00000000000E+00 -0.74505805969E-08  0.93827000000E+00  0.93827000000E+00 0.  1.
     999902    2    1    2    0    0 -0.10603102472E-01  0.89435095043E-02  0.20182722883E-01  0.10194401154E+01  0.10191459142E+01 0.  0.
     999903    2    3    3    0    0 -0.27335725842E-01  0.11119520783E+00  0.62902902339E-01  0.13233222782E+00  0.21057712261E-01 0.  0.
         14    1    1    2    0    0  0.10603102472E-01 -0.89435095043E-02 -0.20182722883E-01  0.24489884590E-01  0.00000000000E+00 0.  1.
     999901    1    3    3    0    0  0.16732623370E-01 -0.10225169832E+00 -0.42720179456E-01  0.88710788759E+00  0.88000000000E+00 0. -1.
        -11    1    4    4    0    0 -0.29174601031E-02  0.40639598532E-01  0.30710891552E-01  0.51024587438E-01  0.51100000000E-03 0.  1.
         11    1    4    4    0    0 -0.24418265739E-01  0.70555609295E-01  0.32192010787E-01  0.81307640380E-01  0.51100000000E-03 0. -1.
</event>
<event>
 8    1  0.1078274E+005  0.1043930E+01  0.7957747E-01            NaN
         13   -1    0    0    0    0  0.00000000000E+00  0.00000000000E+00  0.74505805969E-08  0.10566000000E+00  0.10566000000E+00 0. -1.
     999900   -1    0    0    0    0 -0.00000000000E+00 -0.00000000000E+00 -0.74505805969E-08  0.93827000000E+00  0.93827000000E+00 0.  1.
     999902    2    1    2    0    0 -0.80161919387E-02 -0.17012573443E-01  0.12103089651E-01  0.10215654797E+01  0.10213206439E+01 0.  0.
     999903    2    3    3    0    0 -0.37441910328E-01  0.62867709558E-01 -0.10528228775E+00  0.12969886450E+00  0.19575233940E-01 0.  0.
         14    1    1    2    0    0  0.80161919387E-02  0.17012573443E-01 -0.12103089651E-01  0.22364520282E-01  0.00000000000E+00 0.  1.
     999901    1    3    3    0    0  0.29425718389E-01 -0.79880283001E-01  0.11738537740E+00  0.89186661522E+00  0.88000000000E+00 0. -1.
        -11    1    4    4    0    0 -0.40013811969E-02  0.21382708437E-01 -0.38923023004E-01  0.44592534267E-01  0.51100000000E-03 0.  1.
         11    1    4    4    0    0 -0.33440529131E-01  0.41485001121E-01 -0.66359264749E-01  0.85106330232E-01  0.51100000000E-03 0. -1.
</event>
<event>
 8    1  0.1078274E+005  0.1043930E+01  0.7957747E-01            NaN
         13   -1    0    0    0    0  0.00000000000E+00  0.00000000000E+00  0.74505805969E-08  0.10566000000E+00  0.10566000000E+00 0.  1.
     999900   -1    0    0    0    0 -0.00000000000E+00 -0.00000000000E+00 -0.74505805969E-08  0.93827000000E+00  0.93827000000E+00 0.  1.
     999902    2    1    2    0    0 -0.16168876392E-01 -0.11043759676E-01  0.13145189898E-01  0.10203462512E+01  0.10200736635E+01 0.  0.
     999903    2    3    3    0    0 -0.70975571749E-01 -0.29648666600E-01  0.10734983838E+00  0.13342774746E+00  0.19036826846E-01 0.  0.
         14    1    1    2    0    0  0.16168876392E-01  0.11043759676E-01 -0.13145189898E-01  0.23583748833E-01  0.00000000000E+00 0. -1.
     999901    1    3    3    0    0  0.54806695357E-01  0.18604906924E-01 -0.94204648483E-01  0.88691850370E+00  0.88000000000E+00 0.  1.
        -11    1    4    4    0    0 -0.45646478542E-01 -0.14911708908E-01  0.80186892639E-01  0.93467421800E-01  0.51100000000E-03 0. -1.
         11    1    4    4    0    0 -0.25329093207E-01 -0.14736957691E-01  0.27162945742E-01  0.39960325663E-01  0.51100000000E-03 0.  1.
</event>
<event>
 8    1  0.1078274E+005  0.1043930E+01  0.7957747E-01            NaN
         13   -1    0    0    0    0  0.00000000000E+00  0.00000000000E+00  0.74505805969E-08  0.10566000000E+00  0.10566000000E+00 0. -1.
     999900   -1    0    0    0    0 -0.00000000000E+00 -0.00000000000E+00 -0.74505805969E-08  0.93827000000E+00  0.93827000000E+00 0.  1.
     999902    2    1    2    0    0 -0.14738886864E-01  0.88004503440E-02  0.15999931441E-01  0.10204634170E+01  0.10201935625E+01 0.  0.
     999903    2    3    3    0    0  0.12462500206E+00  0.26978789604E-01  0.70180540233E-02  0.12926567256E+00  0.20027850396E-01 0.  0.
         14    1    1    2    0    0  0.14738886864E-01 -0.88004503440E-02 -0.15999931441E-01  0.23466583014E-01  0.00000000000E+00 0.  1.
     999901    1    3    3    0    0 -0.13936388893E+00 -0.18178339260E-01  0.89818774175E-02  0.89119774443E+00  0.88000000000E+00 0. -1.
        -11    1    4    4    0    0  0.89777264013E-01  0.25245072622E-01 -0.17856829861E-02  0.93277653326E-01  0.51100000000E-03 0.  1.
         11    1    4    4    0    0  0.34847738049E-01  0.17337169822E-02  0.88037370094E-02  0.35988019229E-01  0.51100000000E-03 0. -1.
</event>
<event>
 8    1  0.1078274E+005  0.1043930E+01  0.7957747E-01            NaN
         13   -1    0    0    0    0  0.00000000000E+00  0.00000000000E+00  0.74505805969E-08  0.10566000000E+00  0.10566000000E+00 0.  1.
     999900   -1    0    0    0    0 -0.00000000000E+00 -0.00000000000E+00 -0.74505805969E-08  0.93827000000E+00  0.93827000000E+00 0. -1.
     999902    2    1    2    0    0  0.15595807107E-02  0.22542979419E-01 -0.66771126793E-02  0.10203672742E+01  0.10200951780E+01 0.  0.
     999903    2    3    3    0    0 -0.33761733908E-01  0.93199545895E-01  0.84867633750E-01  0.13209907921E+00  0.20533909440E-01 0.  0.
         14    1    1    2    0    0 -0.15595807107E-02 -0.22542979419E-01  0.66771126793E-02  0.23562725793E-01  0.00000000000E+00 0. -1.
     999901    1    3    3    0    0  0.35321314619E-01 -0.70656566476E-01 -0.91544746430E-01  0.88826819500E+00  0.88000000000E+00 0. -1.
        -11    1    4    4    0    0  0.23478381071E-02  0.92545751083E-02  0.11153416653E-01  0.14690790593E-01  0.51100000000E-03 0. -1.
         11    1    4    4    0    0 -0.36109572015E-01  0.83944970787E-01  0.73714217097E-01  0.11740828861E+00  0.51100000000E-03 0.  1.
</event>
<event>
 8    1  0.1078274E+005  0.1043930E+01  0.7957747E-01            NaN
         13   -1    0    0    0    0  0.00000000000E+00  0.00000000000E+00  0.74505805969E-08  0.10566000000E+00  0.10566000000E+00 0.  1.
     999900   -1    0    0    0    0 -0.00000000000E+00 -0.00000000000E+00 -0.74505805969E-08  0.93827000000E+00  0.93827000000E+00 0. -1.
     999902    2    1    2    0    0 -0.16154182650E-01 -0.12334186517E-01 -0.94723894505E-02  0.10215064424E+01  0.10212602978E+01 0.  0.
     999903    2    3    3    0    0 -0.11562524401E+00 -0.76743534869E-02 -0.64508402621E-01  0.13418171669E+00  0.20379065999E-01 0.  0.
         14    1    1    2    0    0  0.16154182650E-01  0.12334186517E-01  0.94723894505E-02  0.22423557613E-01  0.00000000000E+00 0.  1.
     999901    1    3    3    0    0  0.99471061359E-01 -0.46598330299E-02  0.55036013171E-01  0.88732472570E+00  0.88000000000E+00 0.  1.
        -11    1    4    4    0    0 -0.13997468745E-01 -0.38820872005E-02 -0.15636669127E-01  0.21348683207E-01  0.51100000000E-03 0.  1.
         11    1    4    4    0    0 -0.10162777526E+00 -0.37922662864E-02 -0.48871733494E-01  0.11283303348E+00  0.51100000000E-03 0. -1.
</event>
<event>
 8    1  0.1078274E+005  0.1043930E+01  0.7957747E-01            NaN
         13   -1    0    0    0    0  0.00000000000E+00  0.00000000000E+00  0.74505805969E-08  0.10566000000E+00  0.10566000000E+00 0. -1.
     999900   -1    0    0    0    0 -0.00000000000E+00 -0.00000000000E+00 -0.74505805969E-08  0.93827000000E+00  0.93827000000E+00 0.  1.
     999902    2    1    2    0    0 -0.17109821532E-02  0.23327136754E-01 -0.51751234194E-02  0.10199745273E+01  0.10196931753E+01 0.  0.
     999903    2    3    3    0    0  0.12457410371E+00  0.26373010866E-01 -0.20590708532E-01  0.13082052461E+00  0.21812596497E-01 0.  0.
         14    1    1    2    0    0  0.17109821532E-02 -0.23327136754E-01  0.51751234194E-02  0.23955472683E-01  0.00000000000E+00 0.  1.
     999901    1    3    3    0    0 -0.12628508586E+00 -0.30458741129E-02  0.15415585113E-01  0.88915400270E+00  0.88000000000E+00 0.  1.
        -11    1    4    4    0    0  0.84673986464E-01  0.25082415773E-01 -0.21477204251E-01  0.90886429065E-01  0.51100000000E-03 0.  1.
         11    1    4    4    0    0  0.39900117242E-01  0.12905950940E-02  0.88649571888E-03  0.39934095549E-01  0.51100000000E-03 0. -1.
</event>
<event>
 8    1  0.1078274E+005  0.1043930E+01  0.7957747E-01            NaN
         13   -1    0    0    0    0  0.00000000000E+00  0.00000000000E+00  0.74505805969E-08  0.10566000000E+00  0.10566000000E+00 0.  1.
     999900   -1    0    0    0    0 -0.00000000000E+00 -0.00000000000E+00 -0.74505805969E-08  0.93827000000E+00  0.93827000000E+00 0. -1.
     999902    2    1    2    0    0  0.37142017445E-02  0.47498069390E-02 -0.22416490747E-01  0.10207167491E+01  0.10204527558E+01 0.  0.
     999903    2    3    3    0    0  0.65795924995E-01 -0.10434355566E+00  0.34974001900E-01  0.12995911046E+00  0.21201609098E-01 0.  0.
         14    1    1    2    0    0 -0.37142017445E-02 -0.47498069390E-02  0.22416490747E-01  0.23213250913E-01  0.00000000000E+00 0.  1.
     999901    1    3    3    0    0 -0.62081723250E-01  0.10909336260E+00 -0.57390492647E-01  0.89075763863E+00  0.88000000000E+00 0. -1.
        -11    1    4    4    0    0  0.23963608812E-01 -0.21895279520E-01  0.12692585510E-01  0.34857146476E-01  0.51100000000E-03 0.  1.
         11    1    4    4    0    0  0.41832316183E-01 -0.82448276143E-01  0.22281416390E-01  0.95101963984E-01  0.51100000000E-03 0. -1.
</event>
<event>
 8    1  0.1078274E+005  0.1043930E+01  0.7957747E-01            NaN
         13   -1    0    0    0    0  0.00000000000E+00  0.00000000000E+00  0.74505805969E-08  0.10566000000E+00  0.10566000000E+00 0.  1.
     999900   -1    0    0    0    0 -0.00000000000E+00 -0.00000000000E+00 -0.74505805969E-08  0.93827000000E+00  0.93827000000E+00 0.  1.
     999902    2    1    2    0    0  0.13972642775E-01  0.42911806798E-02  0.17075601350E-01  0.10214527862E+01  0.10212054491E+01 0.  0.
     999903    2    3    3    0    0  0.96995531940E-01 -0.79737842180E-01 -0.35186303840E-01  0.13202320298E+00  0.20634763286E-01 0.  0.
         14    1    1    2    0    0 -0.13972642775E-01 -0.42911806798E-02 -0.17075601350E-01  0.22477213778E-01  0.00000000000E+00 0. -1.
     999901    1    3    3    0    0 -0.83022889166E-01  0.84029022860E-01  0.52261905190E-01  0.88942958324E+00  0.88000000000E+00 0.  1.
        -11    1    4    4    0    0  0.54874308648E-01 -0.34463217226E-01 -0.24436145127E-01  0.69255248183E-01  0.51100000000E-03 0.  1.
         11    1    4    4    0    0  0.42121223292E-01 -0.45274624954E-01 -0.10750158712E-01  0.62767954800E-01  0.51100000000E-03 0. -1.
</event>
<event>
 8    1  0.1078274E+005  0.1043930E+01  0.7957747E-01            NaN
         13   -1    0    0    0    0  0.00000000000E+00  0.00000000000E+00  0.74505805969E-08  0.10566000000E+00  0.10566000000E+00 0. -1.
     999900   -1    0    0    0    0 -0.00000000000E+00 -0.00000000000E+00 -0.74505805969E-08  0.93827000000E+00  0.93827000000E+00 0. -1.
     999902    2    1    2    0    0 -0.72412433336E-02  0.22279348952E-01 -0.56366883283E-02  0.10198348293E+01  0.10195501468E+01 0.  0.
     999903    2    3    3    0    0  0.11269705988E+00  0.55265429123E-01  0.19584414351E-01  0.13072888396E+00  0.30847963527E-01 0.  0.
         14    1    1    2    0    0  0.72412433336E-02 -0.22279348952E-01  0.56366883283E-02  0.24095170679E-01  0.00000000000E+00 0. -1.
     999901    1    3    3    0    0 -0.11993830321E+00 -0.32986080170E-01 -0.25221102679E-01  0.88910594536E+00  0.88000000000E+00 0.  1.
        -11    1    4    4    0    0  0.93334140201E-01  0.33002447691E-01  0.20937077525E-01  0.10118816935E+00  0.51100000000E-03 0. -1.
         11    1    4    4    0    0  0.19362919677E-01  0.22262981432E-01 -0.13526631741E-02  0.29540714604E-01  0.51100000000E-03 0.  1.
</event>
<event>
 8    1  0.1078274E+005  0.1043930E+01  0.7957747E-01            NaN
         13   -1    0    0    0    0  0.00000000000E+00  0.00000000000E+00  0.74505805969E-08  0.10566000000E+00  0.10566000000E+00 0. -1.
     999900   -1    0    0    0    0 -0.00000000000E+00 -0.00000000000E+00 -0.74505805969E-08  0.93827000000E+00  0.93827000000E+00 0.  1.
     999902    2    1    2    0    0  0.44323414399E-02 -0.27169053325E-02  0.22659188430E-01  0.10206820744E+01  0.10204172827E+01 0.  0.
     999903    2    3    3    0    0  0.10335610193E+00  0.76716603896E-01  0.15713784789E-01  0.13155675621E+00  0.22188644717E-01 0.  0.
         14    1    1    2    0    0 -0.44323414399E-02  0.27169053325E-02 -0.22659188430E-01  0.23247925617E-01  0.00000000000E+00 0.  1.
     999901    1    3    3    0    0 -0.98923760486E-01 -0.79433509229E-01  0.69454036409E-02  0.88912531817E+00  0.88000000000E+00 0. -1.
        -11    1    4    4    0    0  0.72859151822E-01  0.59292261144E-01  0.23314936745E-02  0.93966617580E-01  0.51100000000E-03 0. -1.
         11    1    4    4    0    0  0.30496950104E-01  0.17424342752E-01  0.13382291114E-01  0.37590138633E-01  0.51100000000E-03 0.  1.
</event>
<event>
 8    1  0.1078274E+005  0.1043930E+01  0.7957747E-01            NaN
         13   -1    0    0    0    0  0.00000000000E+00  0.00000000000E+00  0.74505805969E-08  0.10566000000E+00  0.10566000000E+00 0. -1.
     999900   -1    0    0    0    0 -0.00000000000E+00 -0.00000000000E+00 -0.74505805969E-08  0.93827000000E+00  0.93827000000E+00 0. -1.
     999902    2    1    2    0    0  0.10904350048E-01  0.19213401738E-01  0.11106345007E-01  0.10192032826E+01  0.10189032931E+01 0.  0.
     999903    2    3    3    0    0  0.14639226534E-01 -0.55154564468E-01  0.11494480594E+00  0.12997498247E+00  0.20612004281E-01 0.  0.
         14    1    1    2    0    0 -0.10904350048E-01 -0.19213401738E-01 -0.11106345007E-01  0.24726717448E-01  0.00000000000E+00 0.  1.
     999901    1    3    3    0    0 -0.37348764856E-02  0.74367966207E-01 -0.10383846093E+00  0.88922830008E+00  0.88000000000E+00 0. -1.
        -11    1    4    4    0    0  0.16285989377E-01 -0.21621268830E-01  0.53041821611E-01  0.59551731097E-01  0.51100000000E-03 0. -1.
         11    1    4    4    0    0 -0.16467628432E-02 -0.33533295639E-01  0.61902984327E-01  0.70423251373E-01  0.51100000000E-03 0.  1.
</event>
<event>
 8    1  0.1078274E+005  0.1043930E+01  0.7957747E-01            NaN
         13   -1    0    0    0    0  0.00000000000E+00  0.00000000000E+00  0.74505805969E-08  0.10566000000E+00  0.10566000000E+00 0.  1.
     999900   -1    0    0    0    0 -0.00000000000E+00 -0.00000000000E+00 -0.74505805969E-08  0.93827000000E+00  0.93827000000E+00 0. -1.
     999902    2    1    2    0    0 -0.16115738342E-01 -0.14501022943E-01  0.97918464247E-03  0.10222284910E+01  0.10219981078E+01 0.  0.
     999903    2    3    3    0    0  0.79761899097E-01  0.10014840881E+00  0.20406959933E-04  0.12962671375E+00  0.20283494928E-01 0.  0.
         14    1    1    2    0    0  0.16115738342E-01  0.14501022943E-01 -0.97918464247E-03  0.21701508963E-01  0.00000000000E+00 0. -1.
     999901    1    3    3    0    0 -0.95877637439E-01 -0.11464943175E+00  0.95877768254E-03  0.89260177729E+00  0.88000000000E+00 0. -1.
        -11    1    4    4    0    0  0.29170037106E-01  0.48561946338E-01  0.67754691742E-02  0.57055427440E-01  0.51100000000E-03 0.  1.
         11    1    4    4    0    0  0.50591861991E-01  0.51586462472E-01 -0.67550622143E-02  0.72571286310E-01  0.51100000000E-03 0. -1.
</event>
<event>
 8    1  0.1078274E+005  0.1043930E+01  0.7957747E-01            NaN
         13   -1    0    0    0    0  0.00000000000E+00  0.00000000000E+00  0.74505805969E-08  0.10566000000E+00  0.10566000000E+00 0.  1.
     999900   -1    0    0    0    0 -0.00000000000E+00 -0.00000000000E+00 -0.74505805969E-08  0.93827000000E+00  0.93827000000E+00 0. -1.
     999902    2    1    2    0    0 -0.20647249831E-01  0.22710071315E-02 -0.12172851452E-01  0.10198541882E+01  0.10195699685E+01 0.  0.
     999903    2    3    3    0    0  0.47987299897E-01 -0.99750990700E-01 -0.64517482029E-01  0.12976478274E+00  0.20575525608E-01 0.  0.
         14    1    1    2    0    0  0.20647249831E-01 -0.22710071315E-02  0.12172851452E-01  0.24075811750E-01  0.00000000000E+00 0.  1.
     999901    1    3    3    0    0 -0.68634549728E-01  0.10202199783E+00  0.52344630577E-01  0.89008940551E+00  0.88000000000E+00 0.  1.
        -11    1    4    4    0    0  0.33689403673E-01 -0.56832992300E-01 -0.28572586289E-01  0.71983461585E-01  0.51100000000E-03 0.  1.
         11    1    4    4    0    0  0.14297896225E-01 -0.42917998400E-01 -0.35944895740E-01  0.57781321150E-01  0.51100000000E-03 0. -1.
</event>
<event>
 8    1  0.1078274E+005  0.1043930E+01  0.7957747E-01            NaN
         13   -1    0    0    0    0  0.00000000000E+00  0.00000000000E+00  0.74505805969E-08  0.10566000000E+00  0.10566000000E+00 0. -1.
     999900   -1    0    0    0    0 -0.00000000000E+00 -0.00000000000E+00 -0.74505805969E-08  0.93827000000E+00  0.93827000000E+00 0. -1.
     999902    2    1    2    0    0 -0.32051951078E-02  0.67447278836E-02 -0.22265091444E-01  0.10204459857E+01  0.10201757255E+01 0.  0.
     999903    2    3    3    0    0 -0.89688110984E-01  0.79820537551E-01  0.48064391189E-01  0.13040912984E+00  0.16765439967E-01 0.  0.
         14    1    1    2    0    0  0.32051951078E-02 -0.67447278836E-02  0.22265091444E-01  0.23484014285E-01  0.00000000000E+00 0. -1.
     999901    1    3    3    0    0  0.86482915876E-01 -0.73075809667E-01 -0.70329482634E-01  0.89003685588E+00  0.88000000000E+00 0. -1.
        -11    1    4    4    0    0 -0.67654158801E-01  0.56384129330E-01  0.27660279564E-01  0.92312552938E-01  0.51100000000E-03 0.  1.
         11    1    4    4    0    0 -0.22033952183E-01  0.23436408220E-01  0.20404111625E-01  0.38096576897E-01  0.51100000000E-03 0. -1.
</event>
<event>
 8    1  0.1164975E+005  0.1043930E+01  0.7957747E-01            NaN
         13   -1    0    0    0    0  0.00000000000E+00  0.00000000000E+00  0.74505805969E-08  0.10566000000E+00  0.10566000000E+00 0. -1.
     999900   -1    0    0    0    0 -0.00000000000E+00 -0.00000000000E+00 -0.74505805969E-08  0.93827000000E+00  0.93827000000E+00 0.  1.
     999902    2    1    2    0    0 -0.99137395357E-02  0.74378978929E-02 -0.20228545093E-01  0.10202066235E+01  0.10199307604E+01 0.  0.
     999903    2    3    3    0    0  0.12298639824E+00  0.78567666288E-02 -0.36407054880E-01  0.13008058396E+00  0.20201528245E-01 0.  0.
         14    1    1    2    0    0  0.99137395357E-02 -0.74378978929E-02  0.20228545093E-01  0.23723376514E-01  0.00000000000E+00 0. -1.
     999901    1    3    3    0    0 -0.13290013777E+00 -0.41886873593E-03  0.16178509787E-01  0.89012603953E+00  0.88000000000E+00 0. -1.
        -11    1    4    4    0    0  0.27589196416E-01 -0.57965482763E-02 -0.12159483907E-01  0.30706316951E-01  0.51100000000E-03 0. -1.
         11    1    4    4    0    0  0.95397201823E-01  0.13653314905E-01 -0.24247570972E-01  0.99374267005E-01  0.51100000000E-03 0.  1.
</event>
<event>
 8    1  0.1078274E+005  0.1043930E+01  0.7957747E-01            NaN
         13   -1    0    0    0    0  0.00000000000E+00  0.00000000000E+00  0.74505805969E-08  0.10566000000E+00  0.10566000000E+00 0. -1.
     999900   -1    0    0    0    0 -0.00000000000E+00 -0.00000000000E+00 -0.74505805969E-08  0.93827000000E+00  0.93827000000E+00 0.  1.
     999902    2    1    2    0    0 -0.19559002359E-01  0.13793762019E-01  0.36911805318E-02  0.10197133269E+01  0.10194257313E+01 0.  0.
     999903    2    3    3    0    0  0.89437913463E-01  0.80949463272E-01 -0.42095780660E-01  0.12927149177E+00  0.19675056983E-01 0.  0.
         14    1    1    2    0    0  0.19559002359E-01 -0.13793762019E-01 -0.36911805318E-02  0.24216673133E-01  0.00000000000E+00 0. -1.
     999901    1    3    3    0    0 -0.10899691582E+00 -0.67155701252E-01  0.45786961192E-01  0.89044183509E+00  0.88000000000E+00 0.  1.
        -11    1    4    4    0    0  0.51968358343E-01  0.46902779504E-01 -0.34599445192E-01  0.78089459741E-01  0.51100000000E-03 0.  1.
         11    1    4    4    0    0  0.37469555120E-01  0.34046683768E-01 -0.74963354680E-02  0.51182032032E-01  0.51100000000E-03 0. -1.
</event>
<event>
 8    1  0.1078274E+005  0.1043930E+01  0.7957747E-01            NaN
         13   -1    0    0    0    0  0.00000000000E+00  0.00000000000E+00  0.74505805969E-08  0.10566000000E+00  0.10566000000E+00 0. -1.
     999900   -1    0    0    0    0 -0.00000000000E+00 -0.00000000000E+00 -0.74505805969E-08  0.93827000000E+00  0.93827000000E+00 0.  1.
     999902    2    1    2    0    0 -0.22800337744E-01 -0.51177671722E-02  0.25071241532E-02  0.10204282423E+01  0.10201575688E+01 0.  0.
     999903    2    3    3    0    0  0.14300371599E-01 -0.12731116111E+00  0.18705028560E-01  0.13106326648E+00  0.20373251037E-01 0.  0.
         14    1    1    2    0    0  0.22800337744E-01  0.51177671722E-02 -0.25071241532E-02  0.23501757671E-01  0.00000000000E+00 0.  1.
     999901    1    3    3    0    0 -0.37100709344E-01  0.12219339393E+00 -0.16197904407E-01  0.88936497585E+00  0.88000000000E+00 0. -1.
        -11    1    4    4    0    0 -0.12962529637E-02 -0.66064226726E-01  0.41733946090E-02  0.66210578220E-01  0.51100000000E-03 0. -1.
         11    1    4    4    0    0  0.15596624563E-01 -0.61246934380E-01  0.14531633951E-01  0.64852688264E-01  0.51100000000E-03 0.  1.
</event>
<event>
 8    1  0.1078274E+005  0.1043930E+01  0.7957747E-01            NaN
         13   -1    0    0    0    0  0.00000000000E+00  0.00000000000E+00  0.74505805969E-08  0.10566000000E+00  0.10566000000E+00 0.  1.
     999900   -1    0    0    0    0 -0.00000000000E+00 -0.00000000000E+00 -0.74505805969E-08  0.93827000000E+00  0.93827000000E+00 0.  1.
     999902    2    1    2    0    0 -0.11722913885E-01 -0.21136266013E-01  0.10060280553E-01  0.10177502808E+01  0.10174135130E+01 0.  0.
     999903    2    3    3    0    0  0.29397037686E-01  0.80283347391E-02  0.12371952504E+00  0.12900968414E+00  0.20207368478E-01 0.  0.
         14    1    1    2    0    0  0.11722913885E-01  0.21136266013E-01 -0.10060280553E-01  0.26179719169E-01  0.00000000000E+00 0. -1.
     999901    1    3    3    0    0 -0.41119951571E-01 -0.29164600753E-01 -0.11365924449E+00  0.88874059669E+00  0.88000000000E+00 0.  1.
        -11    1    4    4    0    0  0.82509923836E-02  0.12244180029E-01  0.57421325290E-01  0.59291386718E-01  0.51100000000E-03 0. -1.
         11    1    4    4    0    0  0.21146045303E-01 -0.42158452904E-02  0.66298199753E-01  0.69718297419E-01  0.51100000000E-03 0.  1.
</event>
<event>
 8    1  0.1078274E+005  0.1043930E+01  0.7957747E-01            NaN
         13   -1    0    0    0    0  0.00000000000E+00  0.00000000000E+00  0.74505805969E-08  0.10566000000E+00  0.10566000000E+00 0. -1.
     999900   -1    0    0    0    0 -0.00000000000E+00 -0.00000000000E+00 -0.74505805969E-08  0.93827000000E+00  0.93827000000E+00 0.  1.
     999902    2    1    2    0    0 -0.13600677119E-02  0.24786173868E-01  0.41464968403E-02  0.10187626077E+01  0.10184516941E+01 0.  0.
     999903    2    3    3    0    0 -0.27316768661E-01 -0.74589220768E-01  0.98083935743E-01  0.12782295665E+00  0.20211187276E-01 0.  0.
         14    1    1    2    0    0  0.13600677119E-02 -0.24786173868E-01 -0.41464968403E-02  0.25167392301E-01  0.00000000000E+00 0. -1.
     999901    1    3    3    0    0  0.25956700949E-01  0.99375394636E-01 -0.93937438903E-01  0.89093965105E+00  0.88000000000E+00 0.  1.
        -11    1    4    4    0    0 -0.22433361626E-01 -0.38345684598E-01  0.43969831020E-01  0.62508034700E-01  0.51100000000E-03 0. -1.
         11    1    4    4    0    0 -0.48834070350E-02 -0.36243536170E-01  0.54114104723E-01  0.65314921950E-01  0.51100000000E-03 0.  1.
</event>
<event>
 8    1  0.1078274E+005  0.1043930E+01  0.7957747E-01            NaN
         13   -1    0    0    0    0  0.00000000000E+00  0.00000000000E+00  0.74505805969E-08  0.10566000000E+00  0.10566000000E+00 0. -1.
     999900   -1    0    0    0    0 -0.00000000000E+00 -0.00000000000E+00 -0.74505805969E-08  0.93827000000E+00  0.93827000000E+00 0. -1.
     999902    2    1    2    0    0  0.23865004860E-01 -0.10426790722E-02 -0.22749774490E-02  0.10199341429E+01  0.10196518301E+01 0.  0.
     999903    2    3    3    0    0 -0.12235512760E+00 -0.20220258666E-02 -0.29248615774E-01  0.12746069038E+00  0.20393141694E-01 0.  0.
         14    1    1    2    0    0 -0.23865004860E-01  0.10426790722E-02  0.22749774490E-02  0.23995857122E-01  0.00000000000E+00 0. -1.
     999901    1    3    3    0    0  0.14622013246E+00  0.97934679436E-03  0.26973638325E-01  0.89247345250E+00  0.88000000000E+00 0.  1.
        -11    1    4    4    0    0 -0.12008562061E-01 -0.63613291578E-02 -0.40490718605E-02  0.14189016011E-01  0.51100000000E-03 0. -1.
         11    1    4    4    0    0 -0.11034656554E+00  0.43393032912E-02 -0.25199543913E-01  0.11327167437E+00  0.51100000000E-03 0.  1.
</event>
<event>
 8    1  0.1078274E+005  0.1043930E+01  0.7957747E-01            NaN
         13   -1    0    0    0    0  0.00000000000E+00  0.00000000000E+00  0.74505805969E-08  0.10566000000E+00  0.10566000000E+00 0.  1.
     999900   -1    0    0    0    0 -0.00000000000E+00 -0.00000000000E+00 -0.74505805969E-08  0.93827000000E+00  0.93827000000E+00 0.  1.
     999902    2    1    2    0    0 -0.86013475827E-02 -0.23580269453E-01  0.16668676945E-02  0.10187746678E+01  0.10184640559E+01 0.  0.
     999903    2    3    3    0    0 -0.56264444877E-01 -0.10288742226E+00  0.57688368868E-01  0.13215197249E+00  0.19613426892E-01 0.  0.
         14    1    1    2    0    0  0.86013475827E-02  0.23580269453E-01 -0.16668676945E-02  0.25155332151E-01  0.00000000000E+00 0.  1.
     999901    1    3    3    0    0  0.47663097294E-01  0.79307152805E-01 -0.56021501173E-01  0.88662269536E+00  0.88000000000E+00 0.  1.
        -11    1    4    4    0    0 -0.10128029980E-01 -0.33111896162E-01  0.23127984377E-01  0.41642999904E-01  0.51100000000E-03 0. -1.
         11    1    4    4    0    0 -0.46136414896E-01 -0.69775526097E-01  0.34560384491E-01  0.90508972587E-01  0.51100000000E-03 0.  1.
</event>
<event>
 8    1  0.1078274E+005  0.1043930E+01  0.7957747E-01            NaN
         13   -1    0    0    0    0  0.00000000000E+00  0.00000000000E+00  0.74505805969E-08  0.10566000000E+00  0.10566000000E+00 0. -1.
     999900   -1    0    0    0    0 -0.00000000000E+00 -0.00000000000E+00 -0.74505805969E-08  0.93827000000E+00  0.93827000000E+00 0. -1.
     999902    2    1    2    0    0 -0.17899417884E-01 -0.97552217096E-02 -0.12441858896E-01  0.10200479280E+01  0.10197683178E+01 0.  0.
     999903    2    3    3    0    0  0.12369555227E+00  0.11588588889E-02  0.25594374612E-01  0.12785119643E+00  0.19721151390E-01 0.  0.
         14    1    1    2    0    0  0.17899417884E-01  0.97552217096E-02  0.12441858896E-01  0.23882072020E-01  0.00000000000E+00 0. -1.
     999901    1    3    3    0    0 -0.14159497015E+00 -0.10914080598E-01 -0.38036233508E-01  0.89219673155E+00  0.88000000000E+00 0.  1.
        -11    1    4    4    0    0  0.39916692331E-01  0.95827343840E-02  0.89902055393E-02  0.42026849055E-01  0.51100000000E-03 0.  1.
         11    1    4    4    0    0  0.83778859938E-01 -0.84238754951E-02  0.16604169072E-01  0.85824347375E-01  0.51100000000E-03 0. -1.
</event>
<event>
 8    1  0.1078274E+005  0.1043930E+01  0.7957747E-01            NaN
         13   -1    0    0    0    0  0.00000000000E+00  0.00000000000E+00  0.74505805969E-08  0.10566000000E+00  0.10566000000E+00 0. -1.
     999900   -1    0    0    0    0 -0.00000000000E+00 -0.00000000000E+00 -0.74505805969E-08  0.93827000000E+00  0.93827000000E+00 0. -1.
     999902    2    1    2    0    0  0.68400171155E-02 -0.16250208144E-01  0.88890147309E-02  0.10241848821E+01  0.10239945327E+01 0.  0.
     999903    2    3    3    0    0  0.87499234790E-01  0.80360474231E-01  0.58275731546E-01  0.13385989583E+00  0.20211108726E-01 0.  0.
         14    1    1    2    0    0 -0.68400171155E-02  0.16250208144E-01 -0.88890147309E-02  0.19745117922E-01  0.00000000000E+00 0.  1.
     999901    1    3    3    0    0 -0.80659217675E-01 -0.96610682376E-01 -0.49386716815E-01  0.89032498625E+00  0.88000000000E+00 0.  1.
        -11    1    4    4    0    0  0.38039736452E-01  0.46353463058E-01  0.35323313240E-01  0.69596427107E-01  0.51100000000E-03 0. -1.
         11    1    4    4    0    0  0.49459498338E-01  0.34007011174E-01  0.22952418306E-01  0.64263468720E-01  0.51100000000E-03 0.  1.
</event>
<event>
 8    1  0.1078274E+005  0.1043930E+01  0.7957747E-01            NaN
         13   -1    0    0    0    0  0.00000000000E+00  0.00000000000E+00  0.74505805969E-08  0.10566000000E+00  0.10566000000E+00 0.  1.
     999900   -1    0    0    0    0 -0.00000000000E+00 -0.00000000000E+00 -0.74505805969E-08  0.93827000000E+00  0.93827000000E+00 0.  1.
     999902    2    1    2    0    0 -0.90430888266E-02  0.18813078912E-01 -0.11628517985E-01  0.10200358203E+01  0.10197559232E+01 0.  0.
     999903    2    3    3    0    0 -0.13954141709E-01  0.13050298812E+00 -0.10353829098E-01  0.13296176527E+00  0.18597883378E-01 0.  0.
         14    1    1    2    0    0  0.90430888266E-02 -0.18813078912E-01  0.11628517985E-01  0.23894179714E-01  0.00000000000E+00 0.  1.
     999901    1    3    3    0    0  0.49110528828E-02 -0.11168990921E+00 -0.12746888870E-02  0.88707405502E+00  0.88000000000E+00 0.  1.
        -11    1    4    4    0    0 -0.81856099403E-02  0.72737014491E-01  0.34805907767E-02  0.73280646287E-01  0.51100000000E-03 0.  1.
         11    1    4    4    0    0 -0.57685317692E-02  0.57765973630E-01 -0.13834419874E-01  0.59681118978E-01  0.51100000000E-03 0. -1.
</event>
<event>
 8    1  0.1078274E+005  0.1043930E+01  0.7957747E-01            NaN
         13   -1    0    0    0    0  0.00000000000E+00  0.00000000000E+00  0.74505805969E-08  0.10566000000E+00  0.10566000000E+00 0.  1.
     999900   -1    0    0    0    0 -0.00000000000E+00 -0.00000000000E+00 -0.74505805969E-08  0.93827000000E+00  0.93827000000E+00 0.  1.
     999902    2    1    2    0    0 -0.19843967401E-01 -0.44628273040E-02  0.15394343645E-01  0.10184214586E+01  0.10181019505E+01 0.  0.
     999903    2    3    3    0    0 -0.51926647538E-01 -0.10398363159E+00 -0.53940215824E-01  0.12952271856E+00  0.18910721199E-01 0.  0.
         14    1    1    2    0    0  0.19843967401E-01  0.44628273040E-02 -0.15394343645E-01  0.25508541432E-01  0.00000000000E+00 0. -1.
     999901    1    3    3    0    0  0.32082680137E-01  0.99520804289E-01  0.69334559468E-01  0.88889874001E+00  0.88000000000E+00 0. -1.
        -11    1    4    4    0    0 -0.32510131228E-01 -0.69586796675E-01 -0.25811672776E-01  0.81029219892E-01  0.51100000000E-03 0. -1.
         11    1    4    4    0    0 -0.19416516311E-01 -0.34396834918E-01 -0.28128543048E-01  0.48493498667E-01  0.51100000000E-03 0.  1.
</event>
<event>
 8    1  0.1078274E+005  0.1043930E+01  0.7957747E-01            NaN
         13   -1    0    0    0    0  0.00000000000E+00  0.00000000000E+00  0.74505805969E-08  0.10566000000E+00  0.10566000000E+00 0.  1.
     999900   -1    0    0    0    0 -0.00000000000E+00 -0.00000000000E+00 -0.74505805969E-08  0.93827000000E+00  0.93827000000E+00 0. -1.
     999902    2    1    2    0    0  0.10775014515E-01 -0.21532417033E-01  0.65526271595E-03  0.10198431719E+01  0.10195586888E+01 0.  0.
     999903    2    3    3    0    0 -0.39271587418E-01 -0.12767099569E-01 -0.12157632136E+00  0.12994314752E+00  0.19979070601E-01 0.  0.
         14    1    1    2    0    0 -0.10775014515E-01  0.21532417033E-01 -0.65526271595E-03  0.24086828150E-01  0.00000000000E+00 0. -1.
     999901    1    3    3    0    0  0.50046601933E-01 -0.87653174641E-02  0.12223158408E+00  0.88990002433E+00  0.88000000000E+00 0. -1.
        -11    1    4    4    0    0 -0.25002615465E-01  0.17237265088E-02 -0.57820932964E-01  0.63020817378E-01  0.51100000000E-03 0. -1.
         11    1    4    4    0    0 -0.14268971953E-01 -0.14490826078E-01 -0.63755388398E-01  0.66922330143E-01  0.51100000000E-03 0.  1.
</event>
<event>
 8    1  0.1078274E+005  0.1043930E+01  0.7957747E-01            NaN
         13   -1    0    0    0    0  0.00000000000E+00  0.00000000000E+00  0.74505805969E-08  0.10566000000E+00  0.10566000000E+00 0. -1.
     999900   -1    0    0    0    0 -0.00000000000E+00 -0.00000000000E+00 -0.74505805969E-08  0.93827000000E+00  0.93827000000E+00 0.  1.
     999902    2    1    2    0    0 -0.12494049412E-01  0.19668042688E-01  0.22546399220E-03  0.10206279828E+01  0.10203619432E+01 0.  0.
     999903    2    3    3    0    0  0.13125574603E-01  0.61324042608E-01  0.11480827446E+00  0.13185309116E+00  0.16473580457E-01 0.  0.
         14    1    1    2    0    0  0.12494049412E-01 -0.19668042688E-01 -0.22546399220E-03  0.23302017249E-01  0.00000000000E+00 0.  1.
     999901    1    3    3    0    0 -0.25619624015E-01 -0.41655999921E-01 -0.11458281047E+00  0.88877489159E+00  0.88000000000E+00 0.  1.
        -11    1    4    4    0    0  0.54725445345E-02  0.53342962323E-01  0.91659276061E-01  0.10619371159E+00  0.51100000000E-03 0.  1.
         11    1    4    4    0    0  0.76530300687E-02  0.79810802851E-02  0.23148998402E-01  0.25659379567E-01  0.51100000000E-03 0. -1.
</event>
<event>
 8    1  0.1078274E+005  0.1043930E+01  0.7957747E-01            NaN
         13   -1    0    0    0    0  0.00000000000E+00  0.00000000000E+00  0.74505805969E-08  0.10566000000E+00  0.10566000000E+00 0. -1.
     999900   -1    0    0    0    0 -0.00000000000E+00 -0.00000000000E+00 -0.74505805969E-08  0.93827000000E+00  0.93827000000E+00 0.  1.
     999902    2    1    2    0    0  0.80154509847E-02 -0.18363936287E-01 -0.16096564591E-01  0.10182282296E+01  0.10179038002E+01 0.  0.
     999903    2    3    3    0    0 -0.10826830385E+00 -0.43502702148E-01  0.48161794199E-01  0.12790075846E+00  0.20604244248E-01 0.  0.
         14    1    1    2    0    0 -0.80154509847E-02  0.18363936287E-01  0.16096564591E-01  0.25701770407E-01  0.00000000000E+00 0.  1.
     999901    1    3    3    0    0  0.11628375483E+00  0.25138765861E-01 -0.64258358790E-01  0.89032747114E+00  0.88000000000E+00 0.  1.
        -11    1    4    4    0    0 -0.39361150781E-01 -0.15714990979E-01  0.28387961473E-01  0.51013710018E-01  0.51100000000E-03 0. -1.
         11    1    4    4    0    0 -0.68907153066E-01 -0.27787711170E-01  0.19773832726E-01  0.76887048437E-01  0.51100000000E-03 0.  1.
</event>
<event>
 8    1  0.1078274E+005  0.1043930E+01  0.7957747E-01            NaN
         13   -1    0    0    0    0  0.00000000000E+00  0.00000000000E+00  0.74505805969E-08  0.10566000000E+00  0.10566000000E+00 0. -1.
     999900   -1    0    0    0    0 -0.00000000000E+00 -0.00000000000E+00 -0.74505805969E-08  0.93827000000E+00  0.93827000000E+00 0. -1.
     999902    2    1    2    0    0  0.11848652816E-01  0.26878022621E-02  0.20214147072E-01  0.10203455433E+01  0.10200729392E+01 0.  0.
     999903    2    3    3    0    0 -0.44939789252E-01 -0.10472529729E+00  0.61439460432E-01  0.13104130542E+00  0.20249540170E-01 0.  0.
         14    1    1    2    0    0 -0.11848652816E-01 -0.26878022621E-02 -0.20214147072E-01  0.23584456670E-01  0.00000000000E+00 0.  1.
     999901    1    3    3    0    0  0.56788442067E-01  0.10741309955E+00 -0.41225313360E-01  0.88930423791E+00  0.88000000000E+00 0. -1.
        -11    1    4    4    0    0 -0.52051617063E-02 -0.29558233792E-01  0.22555219147E-01  0.37547062802E-01  0.51100000000E-03 0. -1.
         11    1    4    4    0    0 -0.39734627545E-01 -0.75167063497E-01  0.38884241285E-01  0.93494242616E-01  0.51100000000E-03 0.  1.
</event>
<event>
 8    1  0.1078274E+005  0.1043930E+01  0.7957747E-01            NaN
         13   -1    0    0    0    0  0.00000000000E+00  0.00000000000E+00  0.74505805969E-08  0.10566000000E+00  0.10566000000E+00 0.  1.
     999900   -1    0    0    0    0 -0.00000000000E+00 -0.00000000000E+00 -0.74505805969E-08  0.93827000000E+00  0.93827000000E+00 0. -1.
     999902    2    1    2    0    0 -0.73364020408E-02 -0.15273218535E-01 -0.15978324215E-01  0.10206404993E+01  0.10203747488E+01 0.  0.
     999903    2    3    3    0    0  0.32967034770E-02  0.11655543305E+00 -0.53780940032E-01  0.12995486782E+00  0.19996022906E-01 0.  0.
         14    1    1    2    0    0  0.73364020408E-02  0.15273218535E-01  0.15978324215E-01  0.23289500725E-01  0.00000000000E+00 0.  1.
     999901    1    3    3    0    0 -0.10633105518E-01 -0.13182865159E+00  0.37802615817E-01  0.89068563145E+00  0.88000000000E+00 0. -1.
        -11    1    4    4    0    0  0.10607676493E-01  0.79052893433E-01 -0.40844098666E-01  0.89612411404E-01  0.51100000000E-03 0.  1.
         11    1    4    4    0    0 -0.73109730163E-02  0.37502539620E-01 -0.12936841366E-01  0.40342456419E-01  0.51100000000E-03 0. -1.
</event>
<event>
 8    1  0.1078274E+005  0.1043930E+01  0.7957747E-01            NaN
         13   -1    0    0    0    0  0.00000000000E+00  0.00000000000E+00  0.74505805969E-08  0.10566000000E+00  0.10566000000E+00 0. -1.
     999900   -1    0    0    0    0 -0.00000000000E+00 -0.00000000000E+00 -0.74505805969E-08  0.93827000000E+00  0.93827000000E+00 0.  1.
     999902    2    1    2    0    0 -0.18359827805E-02  0.92880206709E-02 -0.21476354784E-01  0.10204593380E+01  0.10201893885E+01 0.  0.
     999903    2    3    3    0    0  0.36362841806E-01  0.40571707572E-01 -0.11921223923E+00  0.13367293621E+00  0.26240734989E-01 0.  0.
         14    1    1    2    0    0  0.18359827805E-02 -0.92880206709E-02  0.21476354784E-01  0.23470662018E-01  0.00000000000E+00 0. -1.
     999901    1    3    3    0    0 -0.38198824586E-01 -0.31283686901E-01  0.97735884444E-01  0.88678640178E+00  0.88000000000E+00 0. -1.
        -11    1    4    4    0    0  0.15010877751E-01  0.11207426103E-02 -0.22677173161E-01  0.27223111843E-01  0.51100000000E-03 0.  1.
         11    1    4    4    0    0  0.21351964055E-01  0.39450964962E-01 -0.96535066067E-01  0.10644982436E+00  0.51100000000E-03 0. -1.
</event>
<event>
 8    1  0.1078274E+005  0.1043930E+01  0.7957747E-01            NaN
         13   -1    0    0    0    0  0.00000000000E+00  0.00000000000E+00  0.74505805969E-08  0.10566000000E+00  0.10566000000E+00 0. -1.
     999900   -1    0    0    0    0 -0.00000000000E+00 -0.00000000000E+00 -0.74505805969E-08  0.93827000000E+00  0.93827000000E+00 0. -1.
     999902    2    1    2    0    0 -0.20618288362E-01  0.15272703225E-02 -0.11670942786E-01  0.10201885326E+01  0.10199122436E+01 0.  0.
     999903    2    3    3    0    0 -0.72845002379E-01  0.74098802702E-01 -0.80633053092E-01  0.13297377300E+00  0.19578256326E-01 0.  0.
         14    1    1    2    0    0  0.20618288362E-01 -0.15272703225E-02  0.11670942786E-01  0.23741467417E-01  0.00000000000E+00 0.  1.
     999901    1    3    3    0    0  0.52226714017E-01 -0.72571532379E-01  0.68962110306E-01  0.88721475959E+00  0.88000000000E+00 0. -1.
        -11    1    4    4    0    0 -0.55028758336E-01  0.51404587577E-01 -0.68034804548E-01  0.10148690368E+00  0.51100000000E-03 0.  1.
         11    1    4    4    0    0 -0.17816244043E-01  0.22694215125E-01 -0.12598248543E-01  0.31486869316E-01  0.51100000000E-03 0. -1.
</event>
<event>
 8    1  0.1078274E+005  0.1043930E+01  0.7957747E-01            NaN
         13   -1    0    0    0    0  0.00000000000E+00  0.00000000000E+00  0.74505805969E-08  0.10566000000E+00  0.10566000000E+00 0.  1.
     999900   -1    0    0    0    0 -0.00000000000E+00 -0.00000000000E+00 -0.74505805969E-08  0.93827000000E+00  0.93827000000E+00 0. -1.
     999902    2    1    2    0    0  0.14658582858E-01 -0.18057842502E-01  0.34021608249E-02  0.10204239492E+01  0.10201531756E+01 0.  0.
     999903    2    3    3    0    0  0.12644957500E+00  0.22578323120E-01  0.23705072771E-01  0.13218933371E+00  0.20317819246E-01 0.  0.
         14    1    1    2    0    0 -0.14658582858E-01  0.18057842502E-01 -0.34021608249E-02  0.23506050827E-01  0.00000000000E+00 0.  1.
     999901    1    3    3    0    0 -0.11179099214E+00 -0.40636165621E-01 -0.20302911946E-01  0.88823461547E+00  0.88000000000E+00 0. -1.
        -11    1    4    4    0    0  0.73083702609E-01  0.16178220865E-01  0.40723867227E-02  0.74965377823E-01  0.51100000000E-03 0. -1.
         11    1    4    4    0    0  0.53365872387E-01  0.64001022546E-02  0.19632686048E-01  0.57223955883E-01  0.51100000000E-03 0.  1.
</event>
<event>
 8    1  0.1078274E+005  0.1043930E+01  0.7957747E-01            NaN
         13   -1    0    0    0    0  0.00000000000E+00  0.00000000000E+00  0.74505805969E-08  0.10566000000E+00  0.10566000000E+00 0.  1.
     999900   -1    0    0    0    0 -0.00000000000E+00 -0.00000000000E+00 -0.74505805969E-08  0.93827000000E+00  0.93827000000E+00 0. -1.
     999902    2    1    2    0    0  0.75066866453E-02  0.22543519030E-01  0.74983633292E-03  0.10201576873E+01  0.10198806715E+01 0.  0.
     999903    2    3    3    0    0  0.42716078603E-01 -0.11818086233E+00  0.13796636025E-01  0.12818612290E+00  0.21212150924E-01 0.  0.
         14    1    1    2    0    0 -0.75066866453E-02 -0.22543519030E-01 -0.74983633292E-03  0.23772312659E-01  0.00000000000E+00 0.  1.
     999901    1    3    3    0    0 -0.35209391958E-01  0.14072438136E+00 -0.13046799692E-01  0.89197156444E+00  0.88000000000E+00 0.  1.
        -11    1    4    4    0    0  0.35670577615E-02 -0.17893567579E-01 -0.49386781772E-02  0.18909133373E-01  0.51100000000E-03 0. -1.
         11    1    4    4    0    0  0.39149020842E-01 -0.10028729475E+00  0.18735314202E-01  0.10927698953E+00  0.51100000000E-03 0.  1.
</event>
<event>
 8    1  0.1078274E+005  0.1043930E+01  0.7957747E-01            NaN
         13   -1    0    0    0    0  0.00000000000E+00  0.00000000000E+00  0.74505805969E-08  0.10566000000E+00  0.10566000000E+00 0.  1.
     999900   -1    0    0    0    0 -0.00000000000E+00 -0.00000000000E+00 -0.74505805969E-08  0.93827000000E+00  0.93827000000E+00 0.  1.
     999902    2    1    2    0    0  0.39224511152E-02 -0.16679423998E-01 -0.16179807100E-01  0.10203636052E+01  0.10200914232E+01 0.  0.
     999903    2    3    3    0    0  0.42877056914E-01 -0.92638764361E-01 -0.84305646811E-01  0.13361199804E+00  0.18009477078E-01 0.  0.
         14    1    1    2    0    0 -0.39224511152E-02  0.16679423998E-01  0.16179807100E-01  0.23566394834E-01  0.00000000000E+00 0.  1.
     999901    1    3    3    0    0 -0.38954605799E-01  0.75959340363E-01  0.68125839711E-01  0.88675160712E+00  0.88000000000E+00 0. -1.
        -11    1    4    4    0    0  0.26983895480E-01 -0.63434568578E-01 -0.66973652550E-01  0.96113507702E-01  0.51100000000E-03 0. -1.
         11    1    4    4    0    0  0.15893161434E-01 -0.29204195783E-01 -0.17331994261E-01  0.37498490339E-01  0.51100000000E-03 0.  1.
</event>
<event>
 8    1  0.1078274E+005  0.1043930E+01  0.7957747E-01            NaN
         13   -1    0    0    0    0  0.00000000000E+00  0.00000000000E+00  0.74505805969E-08  0.10566000000E+00  0.10566000000E+00 0. -1.
     999900   -1    0    0    0    0 -0.00000000000E+00 -0.00000000000E+00 -0.74505805969E-08  0.93827000000E+00  0.93827000000E+00 0.  1.
     999902    2    1    2    0    0  0.15087181673E-01 -0.16782033676E-01 -0.93950132821E-02  0.10194856555E+01  0.10191925607E+01 0.  0.
     999903    2    3    3    0    0  0.30517463619E-01 -0.12082056530E+00  0.38960204652E-01  0.13190448354E+00  0.18760880720E-01 0.  0.
         14    1    1    2    0    0 -0.15087181673E-01  0.16782033676E-01  0.93950132821E-02  0.24444344534E-01  0.00000000000E+00 0. -1.
     999901    1    3    3    0    0 -0.15430281946E-01  0.10403853162E+00 -0.48355217934E-01  0.88758117193E+00  0.88000000000E+00 0. -1.
        -11    1    4    4    0    0  0.11205302510E-01 -0.77993924756E-01  0.20446413553E-01  0.81405946044E-01  0.51100000000E-03 0.  1.
         11    1    4    4    0    0  0.19312161110E-01 -0.42826640543E-01  0.18513791099E-01  0.50498537492E-01  0.51100000000E-03 0. -1.
</event>
<event>
 8    1  0.1078274E+005  0.1043930E+01  0.7957747E-01            NaN
         13   -1    0    0    0    0  0.00000000000E+00  0.00000000000E+00  0.74505805969E-08  0.10566000000E+00  0.10566000000E+00 0. -1.
     999900   -1    0    0    0    0 -0.00000000000E+00 -0.00000000000E+00 -0.74505805969E-08  0.93827000000E+00  0.93827000000E+00 0. -1.
     999902    2    1    2    0    0  0.68818222695E-03  0.20484408550E-01  0.11018433881E-01  0.10206600521E+01  0.10203947528E+01 0.  0.
     999903    2    3    3    0    0 -0.47838171278E-02  0.13196153031E+00  0.76505784737E-02  0.13360400323E+00  0.18835284451E-01 0.  0.
         14    1    1    2    0    0 -0.68818222695E-03 -0.20484408550E-01 -0.11018433881E-01  0.23269947864E-01  0.00000000000E+00 0.  1.
     999901    1    3    3    0    0  0.54719993547E-02 -0.11147712176E+00  0.33678554073E-02  0.88705604891E+00  0.88000000000E+00 0. -1.
        -11    1    4    4    0    0 -0.58975095698E-02  0.78873729504E-01 -0.41586070638E-02  0.79204803887E-01  0.51100000000E-03 0. -1.
         11    1    4    4    0    0  0.11136924420E-02  0.53087800803E-01  0.11809185538E-01  0.54399199342E-01  0.51100000000E-03 0.  1.
</event>
<event>
 8    1  0.1078274E+005  0.1043930E+01  0.7957747E-01            NaN
         13   -1    0    0    0    0  0.00000000000E+00  0.00000000000E+00  0.74505805969E-08  0.10566000000E+00  0.10566000000E+00 0. -1.
     999900   -1    0    0    0    0 -0.00000000000E+00 -0.00000000000E+00 -0.74505805969E-08  0.93827000000E+00  0.93827000000E+00 0. -1.
     999902    2    1    2    0    0  0.16164762483E-01 -0.80655732333E-02  0.15907112020E-01  0.10198594946E+01  0.10195754016E+01 0.  0.
     999903    2    3    3    0    0  0.40011786078E-01 -0.12129141486E+00  0.80882642253E-02  0.13225039926E+00  0.33349628814E-01 0.  0.
         14    1    1    2    0    0 -0.16164762483E-01  0.80655732333E-02 -0.15907112020E-01  0.24070505406E-01  0.00000000000E+00 0.  1.
     999901    1    3    3    0    0 -0.23847023596E-01  0.11322584162E+00  0.78188477945E-02  0.88760909534E+00  0.88000000000E+00 0.  1.
        -11    1    4    4    0    0  0.10217382401E-01 -0.78735847648E-01 -0.15486984274E-02  0.79412770987E-01  0.51100000000E-03 0. -1.
         11    1    4    4    0    0  0.29794403677E-01 -0.42555567209E-01  0.96369626527E-02  0.52837628269E-01  0.51100000000E-03 0.  1.
</event>
<event>
 8    1  0.1078274E+005  0.1043930E+01  0.7957747E-01            NaN
         13   -1    0    0    0    0  0.00000000000E+00  0.00000000000E+00  0.74505805969E-08  0.10566000000E+00  0.10566000000E+00 0.  1.
     999900   -1    0    0    0    0 -0.00000000000E+00 -0.00000000000E+00 -0.74505805969E-08  0.93827000000E+00  0.93827000000E+00 0. -1.
     999902    2    1    2    0    0  0.62129788701E-02  0.17746053717E-01  0.14032309940E-01  0.10204687713E+01  0.10201990414E+01 0.  0.
     999903    2    3    3    0    0  0.92356450048E-02 -0.12661060035E+00  0.55223768666E-02  0.12866139355E+00  0.20191985638E-01 0.  0.
         14    1    1    2    0    0 -0.62129788701E-02 -0.17746053717E-01 -0.14032309940E-01  0.23461228681E-01  0.00000000000E+00 0. -1.
     999901    1    3    3    0    0 -0.30226661347E-02  0.14435665407E+00  0.85099330734E-02  0.89180737777E+00  0.88000000000E+00 0.  1.
        -11    1    4    4    0    0  0.12932206973E-02 -0.42227050871E-01  0.11212870143E-01  0.43712536221E-01  0.51100000000E-03 0. -1.
         11    1    4    4    0    0  0.79424243075E-02 -0.84383549480E-01 -0.56904932762E-02  0.84948857328E-01  0.51100000000E-03 0.  1.
</event>
<event>
 8    1  0.1078274E+005  0.1043930E+01  0.7957747E-01            NaN
         13   -1    0    0    0    0  0.00000000000E+00  0.00000000000E+00  0.74505805969E-08  0.10566000000E+00  0.10566000000E+00 0. -1.
     999900   -1    0    0    0    0 -0.00000000000E+00 -0.00000000000E+00 -0.74505805969E-08  0.93827000000E+00  0.93827000000E+00 0.  1.
     999902    2    1    2    0    0  0.14816232807E-01 -0.69022650813E-02  0.16889657754E-01  0.10204263289E+01  0.10201556107E+01 0.  0.
     999903    2    3    3    0    0 -0.38649123229E-01 -0.12322977681E+00 -0.13034367448E-01  0.13065889770E+00  0.14917110783E-01 0.  0.
         14    1    1    2    0    0 -0.14816232807E-01  0.69022650813E-02 -0.16889657754E-01  0.23503671137E-01  0.00000000000E+00 0.  1.
     999901    1    3    3    0    0  0.53465356036E-01  0.11632751173E+00  0.29924025202E-01  0.88976743117E+00  0.88000000000E+00 0. -1.
        -11    1    4    4    0    0 -0.31127325757E-01 -0.10442804473E+00 -0.57124176372E-02  0.10911929147E+00  0.51100000000E-03 0.  1.
         11    1    4    4    0    0 -0.75217974720E-02 -0.18801732081E-01 -0.73219498108E-02  0.21539606229E-01  0.51100000000E-03 0. -1.
</event>
<event>
 8    1  0.1078274E+005  0.1043930E+01  0.7957747E-01            NaN
         13   -1    0    0    0    0  0.00000000000E+00  0.00000000000E+00  0.74505805969E-08  0.10566000000E+00  0.10566000000E+00 0. -1.
     999900   -1    0    0    0    0 -0.00000000000E+00 -0.00000000000E+00 -0.74505805969E-08  0.93827000000E+00  0.93827000000E+00 0.  1.
     999902    2    1    2    0    0  0.62562217087E-02 -0.42639855791E-02 -0.23001535453E-01  0.10197144571E+01  0.10194268888E+01 0.  0.
     999903    2    3    3    0    0 -0.84547449357E-01 -0.85499174380E-01 -0.47564017614E-01  0.13098065103E+00  0.20861811065E-01 0.  0.
         14    1    1    2    0    0 -0.62562217087E-02  0.42639855791E-02  0.23001535453E-01  0.24215542865E-01  0.00000000000E+00 0. -1.
     999901    1    3    3    0    0  0.90803671066E-01  0.81235188801E-01  0.24562482161E-01  0.88873380610E+00  0.88000000000E+00 0. -1.
        -11    1    4    4    0    0 -0.67806439360E-01 -0.62471898067E-01 -0.44394097277E-01  0.10233058321E+00  0.51100000000E-03 0. -1.
         11    1    4    4    0    0 -0.16741009997E-01 -0.23027276312E-01 -0.31699203375E-02  0.28650067819E-01  0.51100000000E-03 0.  1.
</event>
<event>
 8    1  0.1078274E+005  0.1043930E+01  0.7957747E-01            NaN
         13   -1    0    0    0    0  0.00000000000E+00  0.00000000000E+00  0.74505805969E-08  0.10566000000E+00  0.10566000000E+00 0.  1.
     999900   -1    0    0    0    0 -0.00000000000E+00 -0.00000000000E+00 -0.74505805969E-08  0.93827000000E+00  0.93827000000E+00 0.  1.
     999902    2    1    2    0    0 -0.21822470676E-01 -0.39682452469E-02  0.55327680441E-02  0.10210700193E+01  0.10208140896E+01 0.  0.
     999903    2    3    3    0    0 -0.11800963791E+00 -0.57552106053E-01 -0.17317897181E-01  0.13391425269E+00  0.19864489889E-01 0.  0.
         14    1    1    2    0    0  0.21822470676E-01  0.39682452469E-02 -0.55327680441E-02  0.22859980730E-01  0.00000000000E+00 0. -1.
     999901    1    3    3    0    0  0.96187167236E-01  0.53583860806E-01  0.22850665225E-01  0.88715576658E+00  0.88000000000E+00 0. -1.
        -11    1    4    4    0    0 -0.35492573848E-01 -0.18734490991E-01  0.37744892350E-02  0.40313916220E-01  0.51100000000E-03 0. -1.
         11    1    4    4    0    0 -0.82517064065E-01 -0.38817615063E-01 -0.21092386416E-01  0.93600336467E-01  0.51100000000E-03 0.  1.
</event>
<event>
 8    1  0.1078274E+005  0.1043930E+01  0.7957747E-01            NaN
         13   -1    0    0    0    0  0.00000000000E+00  0.00000000000E+00  0.74505805969E-08  0.10566000000E+00  0.10566000000E+00 0. -1.
     999900   -1    0    0    0    0 -0.00000000000E+00 -0.00000000000E+00 -0.74505805969E-08  0.93827000000E+00  0.93827000000E+00 0. -1.
     999902    2    1    2    0    0 -0.64774990014E-02 -0.14328095100E-01  0.17551730193E-01  0.10203648661E+01  0.10200927137E+01 0.  0.
     999903    2    3    3    0    0  0.10257974529E+00  0.42039414585E-01 -0.61653808559E-01  0.12831985825E+00  0.19361750670E-01 0.  0.
         14    1    1    2    0    0  0.64774990014E-02  0.14328095100E-01 -0.17551730193E-01  0.23565133891E-01  0.00000000000E+00 0.  1.
     999901    1    3    3    0    0 -0.10905724429E+00 -0.56367509684E-01  0.79205538752E-01  0.89204500786E+00  0.88000000000E+00 0.  1.
        -11    1    4    4    0    0  0.35115827635E-01  0.21350715369E-01 -0.30506545418E-01  0.51184810556E-01  0.51100000000E-03 0. -1.
         11    1    4    4    0    0  0.67463917654E-01  0.20688699215E-01 -0.31147263140E-01  0.77135047693E-01  0.51100000000E-03 0.  1.
</event>
<event>
 8    1  0.1078274E+005  0.1043930E+01  0.7957747E-01            NaN
         13   -1    0    0    0    0  0.00000000000E+00  0.00000000000E+00  0.74505805969E-08  0.10566000000E+00  0.10566000000E+00 0.  1.
     999900   -1    0    0    0    0 -0.00000000000E+00 -0.00000000000E+00 -0.74505805969E-08  0.93827000000E+00  0.93827000000E+00 0.  1.
     999902    2    1    2    0    0 -0.13900619479E-01 -0.17049494360E-01 -0.92122038099E-02  0.10200809501E+01  0.10198021218E+01 0.  0.
     999903    2    3    3    0    0 -0.12883831927E-01  0.11814517387E+00 -0.45861924043E-01  0.12900192213E+00  0.20344645537E-01 0.  0.
         14    1    1    2    0    0  0.13900619479E-01  0.17049494360E-01  0.92122038099E-02  0.23849049852E-01  0.00000000000E+00 0.  1.
     999901    1    3    3    0    0 -0.10167875523E-02 -0.13519466823E+00  0.36649720233E-01  0.89107902802E+00  0.88000000000E+00 0. -1.
        -11    1    4    4    0    0 -0.91893817264E-02  0.36982732494E-01 -0.62787301986E-02  0.38624484633E-01  0.51100000000E-03 0.  1.
         11    1    4    4    0    0 -0.36944502005E-02  0.81162441380E-01 -0.39583193844E-01  0.90377437499E-01  0.51100000000E-03 0. -1.
</event>
<event>
 8    1  0.1078274E+005  0.1043930E+01  0.7957747E-01            NaN
         13   -1    0    0    0    0  0.00000000000E+00  0.00000000000E+00  0.74505805969E-08  0.10566000000E+00  0.10566000000E+00 0. -1.
     999900   -1    0    0    0    0 -0.00000000000E+00 -0.00000000000E+00 -0.74505805969E-08  0.93827000000E+00  0.93827000000E+00 0. -1.
     999902    2    1    2    0    0  0.19964555247E-01 -0.58594542316E-02  0.86298974920E-02  0.10214046409E+01  0.10211562313E+01 0.  0.
     999903    2    3    3    0    0  0.69627109213E-01 -0.85050903029E-01 -0.71802874360E-01  0.13280625831E+00  0.20006474839E-01 0.  0.
         14    1    1    2    0    0 -0.19964555247E-01  0.58594542316E-02 -0.86298974920E-02  0.22525359061E-01  0.00000000000E+00 0.  1.
     999901    1    3    3    0    0 -0.49662553966E-01  0.79191448797E-01  0.80432771852E-01  0.88859838263E+00  0.88000000000E+00 0. -1.
        -11    1    4    4    0    0  0.27761208630E-01 -0.19573825295E-01 -0.23293858632E-01  0.41190828011E-01  0.51100000000E-03 0. -1.
         11    1    4    4    0    0  0.41865900584E-01 -0.65477077734E-01 -0.48509015728E-01  0.91615430295E-01  0.51100000000E-03 0.  1.
</event>
<event>
 8    1  0.1078274E+005  0.1043930E+01  0.7957747E-01            NaN
         13   -1    0    0    0    0  0.00000000000E+00  0.00000000000E+00  0.74505805969E-08  0.10566000000E+00  0.10566000000E+00 0. -1.
     999900   -1    0    0    0    0 -0.00000000000E+00 -0.00000000000E+00 -0.74505805969E-08  0.93827000000E+00  0.93827000000E+00 0.  1.
     999902    2    1    2    0    0 -0.63963162980E-02 -0.14653760553E-01  0.17903180974E-01  0.10199264701E+01  0.10196439746E+01 0.  0.
     999903    2    3    3    0    0 -0.37332514398E-01 -0.37263898003E-01  0.12048091775E+00  0.13313987863E+00  0.20694468164E-01 0.  0.
         14    1    1    2    0    0  0.63963162980E-02  0.14653760553E-01 -0.17903180974E-01  0.24003529939E-01  0.00000000000E+00 0. -1.
     999901    1    3    3    0    0  0.30936198100E-01  0.22610137449E-01 -0.10257773678E+00  0.88678659144E+00  0.88000000000E+00 0.  1.
        -11    1    4    4    0    0 -0.11451631892E-01 -0.17421294426E-01  0.69986799285E-01  0.73027765731E-01  0.51100000000E-03 0.  1.
         11    1    4    4    0    0 -0.25880882506E-01 -0.19842603577E-01  0.50494118466E-01  0.60112112894E-01  0.51100000000E-03 0. -1.
</event>
<event>
 8    1  0.1078274E+005  0.1043930E+01  0.7957747E-01            NaN
         13   -1    0    0    0    0  0.00000000000E+00  0.00000000000E+00  0.74505805969E-08  0.10566000000E+00  0.10566000000E+00 0. -1.
     999900   -1    0    0    0    0 -0.00000000000E+00 -0.00000000000E+00 -0.74505805969E-08  0.93827000000E+00  0.93827000000E+00 0. -1.
     999902    2    1    2    0    0  0.24762709389E-01 -0.15990371228E-02 -0.82267475001E-02  0.10177875428E+01  0.10174517454E+01 0.  0.
     999903    2    3    3    0    0 -0.12281239287E+00 -0.23804885897E-02 -0.15859423838E-01  0.12546625577E+00  0.20042690570E-01 0.  0.
         14    1    1    2    0    0 -0.24762709389E-01  0.15990371228E-02  0.82267475001E-02  0.26142457238E-01  0.00000000000E+00 0. -1.
     999901    1    3    3    0    0  0.14757510225E+00  0.78145146693E-03  0.76326763376E-02  0.89232128699E+00  0.88000000000E+00 0. -1.
        -11    1    4    4    0    0 -0.42515213196E-01 -0.94039761819E-02 -0.97895039444E-02  0.44632652057E-01  0.51100000000E-03 0.  1.
         11    1    4    4    0    0 -0.80297179669E-01  0.70234875922E-02 -0.60699198933E-02  0.80833603713E-01  0.51100000000E-03 0. -1.
</event>
<event>
 8    1  0.1078274E+005  0.1043930E+01  0.7957747E-01            NaN
         13   -1    0    0    0    0  0.00000000000E+00  0.00000000000E+00  0.74505805969E-08  0.10566000000E+00  0.10566000000E+00 0. -1.
     999900   -1    0    0    0    0 -0.00000000000E+00 -0.00000000000E+00 -0.74505805969E-08  0.93827000000E+00  0.93827000000E+00 0.  1.
     999902    2    1    2    0    0 -0.99671065639E-02  0.12640937495E-01 -0.13556980185E-01  0.10228841399E+01  0.10226676075E+01 0.  0.
     999903    2    3    3    0    0 -0.65326795553E-01 -0.39524029206E-01  0.10524006305E+00  0.13164981811E+00  0.20651020263E-01 0.  0.
         14    1    1    2    0    0  0.99671065639E-02 -0.12640937495E-01  0.13556980185E-01  0.21045860062E-01  0.00000000000E+00 0. -1.
     999901    1    3    3    0    0  0.55359688989E-01  0.52164966701E-01 -0.11879704323E+00  0.89123432182E+00  0.88000000000E+00 0.  1.
        -11    1    4    4    0    0 -0.47295665271E-01 -0.28271493013E-01  0.58855307763E-01  0.80624845075E-01  0.51100000000E-03 0. -1.
         11    1    4    4    0    0 -0.18031130283E-01 -0.11252536193E-01  0.46384755282E-01  0.51024973039E-01  0.51100000000E-03 0.  1.
</event>
<event>
 8    1  0.1078274E+005  0.1043930E+01  0.7957747E-01            NaN
         13   -1    0    0    0    0  0.00000000000E+00  0.00000000000E+00  0.74505805969E-08  0.10566000000E+00  0.10566000000E+00 0. -1.
     999900   -1    0    0    0    0 -0.00000000000E+00 -0.00000000000E+00 -0.74505805969E-08  0.93827000000E+00  0.93827000000E+00 0.  1.
     999902    2    1    2    0    0 -0.17862423148E-01  0.11951850877E-01 -0.80116369960E-02  0.10209931470E+01  0.10207354735E+01 0.  0.
     999903    2    3    3    0    0  0.70196407159E-01  0.90941852919E-01  0.56867749437E-01  0.13071054418E+00  0.25560697262E-01 0.  0.
         14    1    1    2    0    0  0.17862423148E-01 -0.11951850877E-01  0.80116369960E-02  0.22936853042E-01  0.00000000000E+00 0. -1.
     999901    1    3    3    0    0 -0.88058830308E-01 -0.78990002042E-01 -0.64879386433E-01  0.89028260277E+00  0.88000000000E+00 0.  1.
        -11    1    4    4    0    0  0.34417898340E-01  0.35289199222E-01  0.11900835886E-01  0.50713019272E-01  0.51100000000E-03 0. -1.
         11    1    4    4    0    0  0.35778508819E-01  0.55652653697E-01  0.44966913551E-01  0.79997524912E-01  0.51100000000E-03 0.  1.
</event>
<event>
 8    1  0.1078274E+005  0.1043930E+01  0.7957747E-01            NaN
         13   -1    0    0    0    0  0.00000000000E+00  0.00000000000E+00  0.74505805969E-08  0.10566000000E+00  0.10566000000E+00 0.  1.
     999900   -1    0    0    0    0 -0.00000000000E+00 -0.00000000000E+00 -0.74505805969E-08  0.93827000000E+00  0.93827000000E+00 0. -1.
     999902    2    1    2    0    0 -0.87613036818E-02  0.11105161748E-01  0.18771961510E-01  0.10204252856E+01  0.10201545432E+01 0.  0.
     999903    2    3    3    0    0  0.74105924324E-01  0.10156843788E+00 -0.28585692066E-01  0.13065378171E+00  0.21105290569E-01 0.  0.
         14    1    1    2    0    0  0.87613036818E-02 -0.11105161748E-01 -0.18771961510E-01  0.23504714391E-01  0.00000000000E+00 0. -1.
     999901    1    3    3    0    0 -0.82867228005E-01 -0.90463276132E-01  0.47357653576E-01  0.88977150390E+00  0.88000000000E+00 0.  1.
        -11    1    4    4    0    0  0.20589347061E-01  0.27828087122E-01  0.16314158937E-02  0.34659000045E-01  0.51100000000E-03 0. -1.
         11    1    4    4    0    0  0.53516577262E-01  0.73740350758E-01 -0.30217107960E-01  0.95994781661E-01  0.51100000000E-03 0.  1.
</event>
<event>
 8    1  0.1078274E+005  0.1043930E+01  0.7957747E-01            NaN
         13   -1    0    0    0    0  0.00000000000E+00  0.00000000000E+00  0.74505805969E-08  0.10566000000E+00  0.10566000000E+00 0. -1.
     999900   -1    0    0    0    0 -0.00000000000E+00 -0.00000000000E+00 -0.74505805969E-08  0.93827000000E+00  0.93827000000E+00 0.  1.
     999902    2    1    2    0    0 -0.29508974316E-01  0.19318275571E-02 -0.35266148030E-02  0.10141483188E+01  0.10137109371E+01 0.  0.
     999903    2    3    3    0    0 -0.36995917099E-01  0.10102554786E+00  0.62813584518E-01  0.12607363627E+00  0.19343116591E-01 0.  0.
         14    1    1    2    0    0  0.29508974316E-01 -0.19318275571E-02  0.35266148030E-02  0.29781681196E-01  0.00000000000E+00 0.  1.
     999901    1    3    3    0    0  0.74869427836E-02 -0.99093720302E-01 -0.66340199321E-01  0.88807468254E+00  0.88000000000E+00 0.  1.
        -11    1    4    4    0    0 -0.25902984642E-01  0.82442683294E-01  0.42159374566E-01  0.96153183135E-01  0.51100000000E-03 0.  1.
         11    1    4    4    0    0 -0.11092932457E-01  0.18582864565E-01  0.20654209952E-01  0.29920453133E-01  0.51100000000E-03 0. -1.
</event>
<event>
 8    1  0.1078274E+005  0.1043930E+01  0.7957747E-01            NaN
         13   -1    0    0    0    0  0.00000000000E+00  0.00000000000E+00  0.74505805969E-08  0.10566000000E+00  0.10566000000E+00 0.  1.
     999900   -1    0    0    0    0 -0.00000000000E+00 -0.00000000000E+00 -0.74505805969E-08  0.93827000000E+00  0.93827000000E+00 0. -1.
     999902    2    1    2    0    0  0.10429797309E-01  0.15114829238E-01 -0.15160849439E-01  0.10201163466E+01  0.10198383550E+01 0.  0.
     999903    2    3    3    0    0 -0.91707835400E-01 -0.30517991532E-01  0.79708759740E-01  0.12797583459E+00  0.26127628630E-01 0.  0.
         14    1    1    2    0    0 -0.10429797309E-01 -0.15114829238E-01  0.15160849439E-01  0.23813653447E-01  0.00000000000E+00 0.  1.
     999901    1    3    3    0    0  0.10213763271E+00  0.45632820770E-01 -0.94869609179E-01  0.89214051197E+00  0.88000000000E+00 0. -1.
        -11    1    4    4    0    0 -0.53539895884E-01 -0.93639968374E-02  0.30989160143E-01  0.62568315108E-01  0.51100000000E-03 0.  1.
         11    1    4    4    0    0 -0.38167939516E-01 -0.21153994694E-01  0.48719599597E-01  0.65407519478E-01  0.51100000000E-03 0. -1.
</event>
<event>
 8    1  0.1078274E+005  0.1043930E+01  0.7957747E-01            NaN
         13   -1    0    0    0    0  0.00000000000E+00  0.00000000000E+00  0.74505805969E-08  0.10566000000E+00  0.10566000000E+00 0.  1.
     999900   -1    0    0    0    0 -0.00000000000E+00 -0.00000000000E+00 -0.74505805969E-08  0.93827000000E+00  0.93827000000E+00 0.  1.
     999902    2    1    2    0    0  0.35524344959E-02 -0.12850985880E-01 -0.21120883557E-01  0.10189528234E+01  0.10186466497E+01 0.  0.
     999903    2    3    3    0    0 -0.11014634902E+00 -0.40877081418E-02  0.61458860172E-01  0.12776057563E+00  0.19915964188E-01 0.  0.
         14    1    1    2    0    0 -0.35524344959E-02  0.12850985880E-01  0.21120883557E-01  0.24977176605E-01  0.00000000000E+00 0.  1.
     999901    1    3    3    0    0  0.11369878352E+00 -0.87632777382E-02 -0.82579743729E-01  0.89119224777E+00  0.88000000000E+00 0.  1.
        -11    1    4    4    0    0 -0.51754145030E-02  0.34709743157E-02  0.65451074595E-02  0.90516369036E-02  0.51100000000E-03 0. -1.
         11    1    4    4    0    0 -0.10497093452E+00 -0.75586824575E-02  0.54913752712E-01  0.11870893872E+00  0.51100000000E-03 0.  1.
</event>
<event>
 8    1  0.1078274E+005  0.1043930E+01  0.7957747E-01            NaN
         13   -1    0    0    0    0  0.00000000000E+00  0.00000000000E+00  0.74505805969E-08  0.10566000000E+00  0.10566000000E+00 0.  1.
     999900   -1    0    0    0    0 -0.00000000000E+00 -0.00000000000E+00 -0.74505805969E-08  0.93827000000E+00  0.93827000000E+00 0. -1.
     999902    2    1    2    0    0  0.11094555027E-01  0.13755078993E-01 -0.13321837147E-01  0.10217994172E+01  0.10215597321E+01 0.  0.
     999903    2    3    3    0    0 -0.71523542077E-01 -0.10533696336E+00  0.13212967751E-01  0.12954790537E+00  0.19914425609E-01 0.  0.
         14    1    1    2    0    0 -0.11094555027E-01 -0.13755078993E-01  0.13321837147E-01  0.22130582783E-01  0.00000000000E+00 0.  1.
     999901    1    3    3    0    0  0.82618097104E-01  0.11909204236E+00 -0.26534804898E-01  0.89225151185E+00  0.88000000000E+00 0.  1.
        -11    1    4    4    0    0 -0.59171546505E-02 -0.20141648840E-01  0.56836433770E-02  0.21754623881E-01  0.51100000000E-03 0.  1.
         11    1    4    4    0    0 -0.65606387426E-01 -0.85195314522E-01  0.75293243740E-02  0.10779328149E+00  0.51100000000E-03 0. -1.
</event>
<event>
 8    1  0.1078274E+005  0.1043930E+01  0.7957747E-01            NaN
         13   -1    0    0    0    0  0.00000000000E+00  0.00000000000E+00  0.74505805969E-08  0.10566000000E+00  0.10566000000E+00 0.  1.
     999900   -1    0    0    0    0 -0.00000000000E+00 -0.00000000000E+00 -0.74505805969E-08  0.93827000000E+00  0.93827000000E+00 0. -1.
     999902    2    1    2    0    0 -0.18655344790E-02  0.23494567941E-01  0.47970722000E-02  0.10198782466E+01  0.10195946013E+01 0.  0.
     999903    2    3    3    0    0 -0.31301240084E-02  0.26801753140E-01 -0.12579159265E+00  0.13023453358E+00  0.20233074589E-01 0.  0.
         14    1    1    2    0    0  0.18655344790E-02 -0.23494567941E-01 -0.47970722000E-02  0.24051753436E-01  0.00000000000E+00 0. -1.
     999901    1    3    3    0    0  0.12645895294E-02 -0.33071851992E-02  0.13058866485E+00  0.88964371298E+00  0.88000000000E+00 0.  1.
        -11    1    4    4    0    0 -0.58598830720E-02  0.72447649621E-03 -0.42520614677E-01  0.42931653699E-01  0.51100000000E-03 0. -1.
         11    1    4    4    0    0  0.27297590635E-02  0.26077276644E-01 -0.83270977977E-01  0.87302879883E-01  0.51100000000E-03 0.  1.
</event>
<event>
 8    1  0.1078274E+005  0.1043930E+01  0.7957747E-01            NaN
         13   -1    0    0    0    0  0.00000000000E+00  0.00000000000E+00  0.74505805969E-08  0.10566000000E+00  0.10566000000E+00 0.  1.
     999900   -1    0    0    0    0 -0.00000000000E+00 -0.00000000000E+00 -0.74505805969E-08  0.93827000000E+00  0.93827000000E+00 0. -1.
     999902    2    1    2    0    0  0.59212836347E-02 -0.21165801879E-01 -0.61738671665E-02  0.10211008650E+01  0.10208456333E+01 0.  0.
     999903    2    3    3    0    0 -0.11963586701E+00  0.45361090574E-01 -0.69857888189E-02  0.12970247779E+00  0.20088859768E-01 0.  0.
         14    1    1    2    0    0 -0.59212836347E-02  0.21165801879E-01  0.61738671665E-02  0.22829135000E-01  0.00000000000E+00 0.  1.
     999901    1    3    3    0    0  0.12555715065E+00 -0.66526892453E-01  0.81192165239E-03  0.89139838721E+00  0.88000000000E+00 0. -1.
        -11    1    4    4    0    0 -0.46761706528E-01  0.13399815033E-01 -0.11537441831E-01  0.49995859082E-01  0.51100000000E-03 0. -1.
         11    1    4    4    0    0 -0.72874160483E-01  0.31961275541E-01  0.45516530117E-02  0.79706618711E-01  0.51100000000E-03 0.  1.
</event>
<event>
 8    1  0.1078274E+005  0.1043930E+01  0.7957747E-01            NaN
         13   -1    0    0    0    0  0.00000000000E+00  0.00000000000E+00  0.74505805969E-08  0.10566000000E+00  0.10566000000E+00 0. -1.
     999900   -1    0    0    0    0 -0.00000000000E+00 -0.00000000000E+00 -0.74505805969E-08  0.93827000000E+00  0.93827000000E+00 0.  1.
     999902    2    1    2    0    0  0.18310933775E-01  0.14759231995E-02  0.14499186395E-01  0.10205271145E+01  0.10202587399E+01 0.  0.
     999903    2    3    3    0    0  0.96455507659E-02  0.12486551880E+00 -0.31134941561E-01  0.13070547234E+00  0.20738888088E-01 0.  0.
         14    1    1    2    0    0 -0.18310933775E-01 -0.14759231995E-02 -0.14499186395E-01  0.23402885530E-01  0.00000000000E+00 0. -1.
     999901    1    3    3    0    0  0.86653830089E-02 -0.12338959560E+00  0.45634127956E-01  0.88982164213E+00  0.88000000000E+00 0.  1.
        -11    1    4    4    0    0  0.23528141511E-02  0.97145794627E-01 -0.31122909164E-01  0.10203792307E+00  0.51100000000E-03 0.  1.
         11    1    4    4    0    0  0.72927366148E-02  0.27719724174E-01 -0.12032397111E-04  0.28667549275E-01  0.51100000000E-03 0. -1.
</event>
<event>
 8    1  0.1078274E+005  0.1043930E+01  0.7957747E-01            NaN
         13   -1    0    0    0    0  0.00000000000E+00  0.00000000000E+00  0.74505805969E-08  0.10566000000E+00  0.10566000000E+00 0. -1.
     999900   -1    0    0    0    0 -0.00000000000E+00 -0.00000000000E+00 -0.74505805969E-08  0.93827000000E+00  0.93827000000E+00 0. -1.
     999902    2    1    2    0    0  0.17939048092E-01  0.23281738531E-02 -0.15574239548E-01  0.10200597931E+01  0.10197804640E+01 0.  0.
     999903    2    3    3    0    0  0.72916506563E-01  0.10115773739E+00  0.35920513983E-01  0.13132951163E+00  0.20185453554E-01 0.  0.
         14    1    1    2    0    0 -0.17939048092E-01 -0.23281738531E-02  0.15574239548E-01  0.23870206900E-01  0.00000000000E+00 0. -1.
     999901    1    3    3    0    0 -0.54977458472E-01 -0.98829563539E-01 -0.51494753531E-01  0.88873028147E+00  0.88000000000E+00 0. -1.
        -11    1    4    4    0    0  0.36081951656E-01  0.41784698951E-01  0.67835529812E-02  0.55625048438E-01  0.51100000000E-03 0. -1.
         11    1    4    4    0    0  0.36834554908E-01  0.59373038442E-01  0.29136961002E-01  0.75704463187E-01  0.51100000000E-03 0.  1.
</event>
<event>
 8    1  0.1078274E+005  0.1043930E+01  0.7957747E-01            NaN
         13   -1    0    0    0    0  0.00000000000E+00  0.00000000000E+00  0.74505805969E-08  0.10566000000E+00  0.10566000000E+00 0.  1.
     999900   -1    0    0    0    0 -0.00000000000E+00 -0.00000000000E+00 -0.74505805969E-08  0.93827000000E+00  0.93827000000E+00 0.  1.
     999902    2    1    2    0    0  0.11883324080E-01 -0.19709764917E-01 -0.40013912193E-02  0.10205697912E+01  0.10203024058E+01 0.  0.
     999903    2    3    3    0    0 -0.24906575793E-01 -0.12650115342E+00 -0.30828142820E-01  0.13294511149E+00  0.10057283267E-01 0.  0.
         14    1    1    2    0    0 -0.11883324080E-01  0.19709764917E-01  0.40013912193E-02  0.23360208817E-01  0.00000000000E+00 0.  1.
     999901    1    3    3    0    0  0.36789899874E-01  0.10679138850E+00  0.26826751601E-01  0.88762467969E+00  0.88000000000E+00 0. -1.
        -11    1    4    4    0    0 -0.10717734724E-01 -0.79458764091E-01 -0.19565853944E-01  0.82532713453E-01  0.51100000000E-03 0.  1.
         11    1    4    4    0    0 -0.14188841070E-01 -0.47042389328E-01 -0.11262288876E-01  0.50412398041E-01  0.51100000000E-03 0. -1.
</event>
<event>
 8    1  0.1078274E+005  0.1043930E+01  0.7957747E-01            NaN
         13   -1    0    0    0    0  0.00000000000E+00  0.00000000000E+00  0.74505805969E-08  0.10566000000E+00  0.10566000000E+00 0. -1.
     999900   -1    0    0    0    0 -0.00000000000E+00 -0.00000000000E+00 -0.74505805969E-08  0.93827000000E+00  0.93827000000E+00 0. -1.
     999902    2    1    2    0    0 -0.13582582787E-01  0.82620974902E-03 -0.16367959641E-01  0.10226443410E+01  0.10224227936E+01 0.  0.
     999903    2    3    3    0    0  0.44633521424E-01 -0.14765170390E-01 -0.12414632262E+00  0.13402272214E+00  0.18428758433E-01 0.  0.
         14    1    1    2    0    0  0.13582582787E-01 -0.82620974902E-03  0.16367959641E-01  0.21285659034E-01  0.00000000000E+00 0.  1.
     999901    1    3    3    0    0 -0.58216104210E-01  0.15591380139E-01  0.10777836298E+00  0.88862161883E+00  0.88000000000E+00 0.  1.
        -11    1    4    4    0    0  0.22736521692E-01 -0.15931782074E-01 -0.80888043887E-01  0.85521388339E-01  0.51100000000E-03 0. -1.
         11    1    4    4    0    0  0.21896999732E-01  0.11666116844E-02 -0.43258278734E-01  0.48501333797E-01  0.51100000000E-03 0.  1.
</event>
<event>
 8    1  0.1078274E+005  0.1043930E+01  0.7957747E-01            NaN
         13   -1    0    0    0    0  0.00000000000E+00  0.00000000000E+00  0.74505805969E-08  0.10566000000E+00  0.10566000000E+00 0. -1.
     999900   -1    0    0    0    0 -0.00000000000E+00 -0.00000000000E+00 -0.74505805969E-08  0.93827000000E+00  0.93827000000E+00 0.  1.
     999902    2    1    2    0    0  0.22299937556E-01  0.18422411090E-02 -0.50848114343E-02  0.10209836196E+01  0.10207257296E+01 0.  0.
     999903    2    3    3    0    0  0.98996961014E-01 -0.86608515186E-01  0.46227901189E-02  0.13317721769E+00  0.20331451767E-01 0.  0.
         14    1    1    2    0    0 -0.22299937556E-01 -0.18422411090E-02  0.50848114343E-02  0.22946380425E-01  0.00000000000E+00 0.  1.
     999901    1    3    3    0    0 -0.76697023458E-01  0.88450756295E-01 -0.97076015532E-02  0.88780640188E+00  0.88000000000E+00 0. -1.
        -11    1    4    4    0    0  0.39847608283E-01 -0.45099938133E-01  0.86514305627E-02  0.60802505518E-01  0.51100000000E-03 0. -1.
         11    1    4    4    0    0  0.59149352730E-01 -0.41508577053E-01 -0.40286404438E-02  0.72374712174E-01  0.51100000000E-03 0.  1.
</event>
<event>
 8    1  0.1078274E+005  0.1043930E+01  0.7957747E-01            NaN
         13   -1    0    0    0    0  0.00000000000E+00  0.00000000000E+00  0.74505805969E-08  0.10566000000E+00  0.10566000000E+00 0.  1.
     999900   -1    0    0    0    0 -0.00000000000E+00 -0.00000000000E+00 -0.74505805969E-08  0.93827000000E+00  0.93827000000E+00 0. -1.
     999902    2    1    2    0    0 -0.52597974685E-02  0.19770733015E-02 -0.22458992553E-01  0.10207787444E+01  0.10205161755E+01 0.  0.
     999903    2    3    3    0    0  0.75503734582E-01 -0.85154264106E-01 -0.63413988162E-01  0.13185134034E+00  0.20282490559E-01 0.  0.
         14    1    1    2    0    0  0.52597974685E-02 -0.19770733015E-02  0.22458992553E-01  0.23151255576E-01  0.00000000000E+00 0.  1.
     999901    1    3    3    0    0 -0.80763532050E-01  0.87131337408E-01  0.40954995609E-01  0.88892740408E+00  0.88000000000E+00 0.  1.
        -11    1    4    4    0    0  0.51205615413E-01 -0.52992699208E-01 -0.51190666578E-01  0.89727290636E-01  0.51100000000E-03 0.  1.
         11    1    4    4    0    0  0.24298119169E-01 -0.32161564898E-01 -0.12223321584E-01  0.42124049703E-01  0.51100000000E-03 0. -1.
</event>
<event>
 8    1  0.1078274E+005  0.1043930E+01  0.7957747E-01            NaN
         13   -1    0    0    0    0  0.00000000000E+00  0.00000000000E+00  0.74505805969E-08  0.10566000000E+00  0.10566000000E+00 0. -1.
     999900   -1    0    0    0    0 -0.00000000000E+00 -0.00000000000E+00 -0.74505805969E-08  0.93827000000E+00  0.93827000000E+00 0. -1.
     999902    2    1    2    0    0  0.95567588357E-03 -0.77220478012E-02  0.22150959390E-01  0.10204521734E+01  0.10201820572E+01 0.  0.
     999903    2    3    3    0    0  0.13256590294E-01  0.12671903019E+00 -0.10810007639E-01  0.12954693644E+00  0.20787079580E-01 0.  0.
         14    1    1    2    0    0 -0.95567588357E-03  0.77220478012E-02 -0.22150959390E-01  0.23477826571E-01  0.00000000000E+00 0.  1.
     999901    1    3    3    0    0 -0.12300914410E-01 -0.13444107799E+00  0.32960967029E-01  0.89090523699E+00  0.88000000000E+00 0.  1.
        -11    1    4    4    0    0 -0.19421260153E-02  0.56336808901E-01 -0.11517231972E-01  0.57537080599E-01  0.51100000000E-03 0.  1.
         11    1    4    4    0    0  0.15198716309E-01  0.70382221289E-01  0.70722433264E-03  0.72009855841E-01  0.51100000000E-03 0. -1.
</event>
<event>
 8    1  0.1078274E+005  0.1043930E+01  0.7957747E-01            NaN
         13   -1    0    0    0    0  0.00000000000E+00  0.00000000000E+00  0.74505805969E-08  0.10566000000E+00  0.10566000000E+00 0. -1.
     999900   -1    0    0    0    0 -0.00000000000E+00 -0.00000000000E+00 -0.74505805969E-08  0.93827000000E+00  0.93827000000E+00 0. -1.
     999902    2    1    2    0    0  0.38300001031E-02 -0.21167002250E-01  0.14087098574E-01  0.10182170221E+01  0.10178923061E+01 0.  0.
     999903    2    3    3    0    0 -0.37415112439E-01  0.10038665585E+00  0.65918552946E-01  0.12739551881E+00  0.20174024863E-01 0.  0.
         14    1    1    2    0    0 -0.38300001031E-02  0.21167002250E-01 -0.14087098574E-01  0.25712977876E-01  0.00000000000E+00 0.  1.
     999901    1    3    3    0    0  0.41245112543E-01 -0.12155365810E+00 -0.51831454371E-01  0.89082150331E+00  0.88000000000E+00 0.  1.
        -11    1    4    4    0    0 -0.16460528679E-01  0.26450506146E-01  0.11429364820E-01  0.33188398288E-01  0.51100000000E-03 0.  1.
         11    1    4    4    0    0 -0.20954583761E-01  0.73936149701E-01  0.54489188126E-01  0.94207120521E-01  0.51100000000E-03 0. -1.
</event>
<event>
 8    1  0.1078274E+005  0.1043930E+01  0.7957747E-01            NaN
         13   -1    0    0    0    0  0.00000000000E+00  0.00000000000E+00  0.74505805969E-08  0.10566000000E+00  0.10566000000E+00 0.  1.
     999900   -1    0    0    0    0 -0.00000000000E+00 -0.00000000000E+00 -0.74505805969E-08  0.93827000000E+00  0.93827000000E+00 0. -1.
     999902    2    1    2    0    0 -0.13897293352E-01  0.18111497862E-01  0.46352820273E-02  0.10206352161E+01  0.10203693436E+01 0.  0.
     999903    2    3    3    0    0 -0.66737394086E-01 -0.20210684102E-01 -0.10899695865E+00  0.13093135976E+00  0.20008309559E-01 0.  0.
         14    1    1    2    0    0  0.13897293352E-01 -0.18111497862E-01 -0.46352820273E-02  0.23294783896E-01  0.00000000000E+00 0.  1.
     999901    1    3    3    0    0  0.52840100734E-01  0.38322181963E-01  0.11363224068E+00  0.88970385635E+00  0.88000000000E+00 0.  1.
        -11    1    4    4    0    0 -0.40517398209E-01 -0.18126318053E-01 -0.53523674279E-01  0.69536089861E-01  0.51100000000E-03 0. -1.
         11    1    4    4    0    0 -0.26219995877E-01 -0.20843660484E-02 -0.55473284373E-01  0.61395269897E-01  0.51100000000E-03 0.  1.
</event>
<event>
 8    1  0.1078274E+005  0.1043930E+01  0.7957747E-01            NaN
         13   -1    0    0    0    0  0.00000000000E+00  0.00000000000E+00  0.74505805969E-08  0.10566000000E+00  0.10566000000E+00 0.  1.
     999900   -1    0    0    0    0 -0.00000000000E+00 -0.00000000000E+00 -0.74505805969E-08  0.93827000000E+00  0.93827000000E+00 0. -1.
     999902    2    1    2    0    0 -0.17714170227E-01 -0.14164329126E-01 -0.86558792377E-03  0.10212326590E+01  0.10209803987E+01 0.  0.
     999903    2    3    3    0    0  0.51882865842E-01 -0.15529327394E-01  0.11704259484E+00  0.13064411751E+00  0.20878808817E-01 0.  0.
         14    1    1    2    0    0  0.17714170227E-01  0.14164329126E-01  0.86558792377E-03  0.22697341009E-01  0.00000000000E+00 0.  1.
     999901    1    3    3    0    0 -0.69597036070E-01  0.13649982680E-02 -0.11790818276E+00  0.89058854148E+00  0.88000000000E+00 0. -1.
        -11    1    4    4    0    0  0.45037503779E-01 -0.20498234625E-01  0.10227990703E+00  0.11362215837E+00  0.51100000000E-03 0. -1.
         11    1    4    4    0    0  0.68453620630E-02  0.49689072309E-02  0.14762687800E-01  0.17021959139E-01  0.51100000000E-03 0.  1.
</event>
<event>
 8    1  0.1078274E+005  0.1043930E+01  0.7957747E-01            NaN
         13   -1    0    0    0    0  0.00000000000E+00  0.00000000000E+00  0.74505805969E-08  0.10566000000E+00  0.10566000000E+00 0. -1.
     999900   -1    0    0    0    0 -0.00000000000E+00 -0.00000000000E+00 -0.74505805969E-08  0.93827000000E+00  0.93827000000E+00 0.  1.
     999902    2    1    2    0    0 -0.19290772628E-01  0.10953647268E-01  0.69971454357E-02  0.10206689523E+01  0.10204038582E+01 0.  0.
     999903    2    3    3    0    0 -0.11471518567E+00  0.52461699495E-01 -0.38282252589E-01  0.13338153498E+00  0.20329763250E-01 0.  0.
         14    1    1    2    0    0  0.19290772628E-01 -0.10953647268E-01 -0.69971454357E-02  0.23261047726E-01  0.00000000000E+00 0.  1.
     999901    1    3    3    0    0  0.95424413039E-01 -0.41508052227E-01  0.45279398025E-01  0.88728741729E+00  0.88000000000E+00 0.  1.
        -11    1    4    4    0    0 -0.30197479443E-01  0.21504358635E-01 -0.17525528934E-01  0.41008907452E-01  0.51100000000E-03 0. -1.
         11    1    4    4    0    0 -0.84517706224E-01  0.30957340860E-01 -0.20756723655E-01  0.92372627527E-01  0.51100000000E-03 0.  1.
</event>
<event>
 8    1  0.1078274E+005  0.1043930E+01  0.7957747E-01            NaN
         13   -1    0    0    0    0  0.00000000000E+00  0.00000000000E+00  0.74505805969E-08  0.10566000000E+00  0.10566000000E+00 0. -1.
     999900   -1    0    0    0    0 -0.00000000000E+00 -0.00000000000E+00 -0.74505805969E-08  0.93827000000E+00  0.93827000000E+00 0.  1.
     999902    2    1    2    0    0 -0.25664599784E-02  0.16353254486E-01  0.25600868337E-01  0.10134436078E+01  0.10129849585E+01 0.  0.
     999903    2    3    3    0    0 -0.10968399260E+00  0.51234870753E-01 -0.23396589464E-01  0.12491018479E+00  0.19989088350E-01 0.  0.
         14    1    1    2    0    0  0.25664599784E-02 -0.16353254486E-01 -0.25600868337E-01  0.30486392189E-01  0.00000000000E+00 0. -1.
     999901    1    3    3    0    0  0.10711753262E+00 -0.34881616267E-01  0.48997457801E-01  0.88853342302E+00  0.88000000000E+00 0. -1.
        -11    1    4    4    0    0 -0.38454040411E-01  0.95641627477E-02 -0.21160553953E-02  0.39685327823E-01  0.51100000000E-03 0.  1.
         11    1    4    4    0    0 -0.71229952188E-01  0.41670708005E-01 -0.21280534068E-01  0.85224856970E-01  0.51100000000E-03 0. -1.
</event>
<event>
 7    1  0.1078274E+005  0.1043930E+01  0.7957747E-01            NaN
         13   -1    0    0    0    0  0.00000000000E+00  0.00000000000E+00  0.74505805969E-08  0.10566000000E+00  0.10566000000E+00 0.  1.
     999900   -1    0    0    0    0 -0.00000000000E+00 -0.00000000000E+00 -0.74505805969E-08  0.93827000000E+00  0.93827000000E+00 0.  1.
     999902    2    1    2    0    0 -0.22608196236E-01 -0.54556227662E-02  0.39361020611E-02  0.10203421375E+01  0.10200694537E+01 0.  0.
         14    1    1    2    0    0  0.22608196236E-01  0.54556227662E-02 -0.39361020611E-02  0.23587862478E-01  0.00000000000E+00 0.  1.
     999901    1    3    3    0    0 -0.94003652959E-01 -0.10422055659E+00  0.23847110265E-01  0.89144113426E+00  0.88000000000E+00 0.  1.
        -11    1    3    3    0    0  0.31927349002E-01  0.69180434781E-01 -0.22672714863E-01  0.79495919965E-01  0.51100000000E-03 0. -1.
         11    1    3    3    0    0  0.39468107720E-01  0.29584499046E-01  0.27617066586E-02  0.49405083296E-01  0.51100000000E-03 0.  1.
</event>
<event>
 8    1  0.1078274E+005  0.1043930E+01  0.7957747E-01            NaN
         13   -1    0    0    0    0  0.00000000000E+00  0.00000000000E+00  0.74505805969E-08  0.10566000000E+00  0.10566000000E+00 0.  1.
     999900   -1    0    0    0    0 -0.00000000000E+00 -0.00000000000E+00 -0.74505805969E-08  0.93827000000E+00  0.93827000000E+00 0.  1.
     999902    2    1    2    0    0  0.20302887581E-02  0.25989246870E-02 -0.21776514109E-01  0.10219051720E+01  0.10216677970E+01 0.  0.
     999903    2    3    3    0    0  0.51418233347E-01  0.93605487421E-01  0.72852956437E-01  0.13079569487E+00  0.19852922650E-01 0.  0.
         14    1    1    2    0    0 -0.20302887581E-02 -0.25989246870E-02  0.21776514109E-01  0.22024828007E-01  0.00000000000E+00 0.  1.
     999901    1    3    3    0    0 -0.49387944589E-01 -0.91006562734E-01 -0.94629470546E-01  0.89110947713E+00  0.88000000000E+00 0. -1.
        -11    1    4    4    0    0  0.23945624910E-01  0.43405290190E-01  0.45809298859E-01  0.67499371492E-01  0.51100000000E-03 0.  1.
         11    1    4    4    0    0  0.27472608437E-01  0.50200197231E-01  0.27043657577E-01  0.63296323373E-01  0.51100000000E-03 0. -1.
</event>
<event>
 8    1  0.1078274E+005  0.1043930E+01  0.7957747E-01            NaN
         13   -1    0    0    0    0  0.00000000000E+00  0.00000000000E+00  0.74505805969E-08  0.10566000000E+00  0.10566000000E+00 0. -1.
     999900   -1    0    0    0    0 -0.00000000000E+00 -0.00000000000E+00 -0.74505805969E-08  0.93827000000E+00  0.93827000000E+00 0. -1.
     999902    2    1    2    0    0  0.12616758585E-01 -0.12119858552E-01 -0.16648029873E-01  0.10197798350E+01  0.10194938359E+01 0.  0.
     999903    2    3    3    0    0  0.72449904191E-03 -0.12605952645E+00 -0.33743209904E-01  0.13218988528E+00  0.21072077417E-01 0.  0.
         14    1    1    2    0    0 -0.12616758585E-01  0.12119858552E-01  0.16648029873E-01  0.24150164951E-01  0.00000000000E+00 0. -1.
     999901    1    3    3    0    0  0.11892259543E-01  0.11393966790E+00  0.17095180031E-01  0.88758994977E+00  0.88000000000E+00 0. -1.
        -11    1    4    4    0    0 -0.50493617117E-03 -0.80026778961E-01 -0.10852283113E-01  0.80762450936E-01  0.51100000000E-03 0.  1.
         11    1    4    4    0    0  0.12294352131E-02 -0.46032747490E-01 -0.22890926791E-01  0.51427434340E-01  0.51100000000E-03 0. -1.
</event>
<event>
 8    1  0.1078274E+005  0.1043930E+01  0.7957747E-01            NaN
         13   -1    0    0    0    0  0.00000000000E+00  0.00000000000E+00  0.74505805969E-08  0.10566000000E+00  0.10566000000E+00 0. -1.
     999900   -1    0    0    0    0 -0.00000000000E+00 -0.00000000000E+00 -0.74505805969E-08  0.93827000000E+00  0.93827000000E+00 0.  1.
     999902    2    1    2    0    0 -0.22691820904E-01  0.97308010271E-03 -0.67999347455E-02  0.10202212520E+01  0.10199457330E+01 0.  0.
     999903    2    3    3    0    0 -0.11987839606E+00  0.38932501437E-01  0.37355487670E-01  0.13295812899E+00  0.19896283498E-01 0.  0.
         14    1    1    2    0    0  0.22691820904E-01 -0.97308010271E-03  0.67999347455E-02  0.23708748035E-01  0.00000000000E+00 0. -1.
     999901    1    3    3    0    0  0.97186575153E-01 -0.37959421334E-01 -0.44155422415E-01  0.88726312297E+00  0.88000000000E+00 0. -1.
        -11    1    4    4    0    0 -0.46146800620E-01  0.23284702663E-01  0.92438795380E-02  0.52511094213E-01  0.51100000000E-03 0.  1.
         11    1    4    4    0    0 -0.73731595436E-01  0.15647798774E-01  0.28111608132E-01  0.80447034780E-01  0.51100000000E-03 0. -1.
</event>
<event>
 8    1  0.1078274E+005  0.1043930E+01  0.7957747E-01            NaN
         13   -1    0    0    0    0  0.00000000000E+00  0.00000000000E+00  0.74505805969E-08  0.10566000000E+00  0.10566000000E+00 0. -1.
     999900   -1    0    0    0    0 -0.00000000000E+00 -0.00000000000E+00 -0.74505805969E-08  0.93827000000E+00  0.93827000000E+00 0. -1.
     999902    2    1    2    0    0 -0.23327991282E-02  0.20215132066E-01 -0.12984191498E-01  0.10197911776E+01  0.10195054503E+01 0.  0.
     999903    2    3    3    0    0  0.25966105358E-02  0.12750283964E+00  0.28585501661E-01  0.13228738009E+00  0.20472018016E-01 0.  0.
         14    1    1    2    0    0  0.23327991282E-02 -0.20215132066E-01  0.12984191498E-01  0.24138822363E-01  0.00000000000E+00 0. -1.
     999901    1    3    3    0    0 -0.49294096640E-02 -0.10728770758E+00 -0.41569693159E-01  0.88750379755E+00  0.88000000000E+00 0.  1.
        -11    1    4    4    0    0 -0.30812535353E-02  0.10092432751E+00  0.29157925844E-01  0.10509833379E+00  0.51100000000E-03 0.  1.
         11    1    4    4    0    0  0.56778640711E-02  0.26578512138E-01 -0.57242418260E-03  0.27189046293E-01  0.51100000000E-03 0. -1.
</event>
<event>
 8    1  0.1078274E+005  0.1043930E+01  0.7957747E-01            NaN
         13   -1    0    0    0    0  0.00000000000E+00  0.00000000000E+00  0.74505805969E-08  0.10566000000E+00  0.10566000000E+00 0.  1.
     999900   -1    0    0    0    0 -0.00000000000E+00 -0.00000000000E+00 -0.74505805969E-08  0.93827000000E+00  0.93827000000E+00 0. -1.
     999902    2    1    2    0    0  0.18614177523E-02 -0.23723437104E-01  0.72241595944E-04  0.10201335389E+01  0.10198559533E+01 0.  0.
     999903    2    3    3    0    0  0.24999950404E-01 -0.10074587900E+00  0.80469887912E-01  0.13281644233E+00  0.19750312348E-01 0.  0.
         14    1    1    2    0    0 -0.18614177523E-02  0.23723437104E-01 -0.72241595943E-04  0.23796461143E-01  0.00000000000E+00 0. -1.
     999901    1    3    3    0    0 -0.23138532652E-01  0.77022441896E-01 -0.80397646317E-01  0.88731709652E+00  0.88000000000E+00 0. -1.
        -11    1    4    4    0    0  0.11296505878E-01 -0.79238352906E-01  0.63633612613E-01  0.10225373045E+00  0.51100000000E-03 0.  1.
         11    1    4    4    0    0  0.13703444526E-01 -0.21507526095E-01  0.16836275300E-01  0.30562711882E-01  0.51100000000E-03 0. -1.
</event>
<event>
 8    1  0.1078274E+005  0.1043930E+01  0.7957747E-01            NaN
         13   -1    0    0    0    0  0.00000000000E+00  0.00000000000E+00  0.74505805969E-08  0.10566000000E+00  0.10566000000E+00 0. -1.
     999900   -1    0    0    0    0 -0.00000000000E+00 -0.00000000000E+00 -0.74505805969E-08  0.93827000000E+00  0.93827000000E+00 0.  1.
     999902    2    1    2    0    0  0.21440477621E-01 -0.63645390998E-02  0.10776690281E-01  0.10191038345E+01  0.10188013973E+01 0.  0.
     999903    2    3    3    0    0  0.12451829653E+00  0.37506793699E-01 -0.10031557730E-01  0.13175795282E+00  0.18653692304E-01 0.  0.
         14    1    1    2    0    0 -0.21440477621E-01  0.63645390998E-02 -0.10776690281E-01  0.24826165471E-01  0.00000000000E+00 0.  1.
     999901    1    3    3    0    0 -0.10307781891E+00 -0.43871332799E-01  0.20808248011E-01  0.88734588170E+00  0.88000000000E+00 0. -1.
        -11    1    4    4    0    0  0.89906548187E-01  0.24334157441E-01  0.87940702808E-03  0.93147050962E-01  0.51100000000E-03 0. -1.
         11    1    4    4    0    0  0.34611748347E-01  0.13172636258E-01 -0.10910964758E-01  0.38610901862E-01  0.51100000000E-03 0.  1.
</event>
<event>
 8    1  0.1078274E+005  0.1043930E+01  0.7957747E-01            NaN
         13   -1    0    0    0    0  0.00000000000E+00  0.00000000000E+00  0.74505805969E-08  0.10566000000E+00  0.10566000000E+00 0. -1.
     999900   -1    0    0    0    0 -0.00000000000E+00 -0.00000000000E+00 -0.74505805969E-08  0.93827000000E+00  0.93827000000E+00 0.  1.
     999902    2    1    2    0    0 -0.22407278697E-01  0.76139037373E-02 -0.33998356442E-02  0.10200214963E+01  0.10197412595E+01 0.  0.
     999903    2    3    3    0    0  0.27407257342E-01 -0.80528469057E-01 -0.96078714822E-01  0.12938131048E+00  0.16504907613E-01 0.  0.
         14    1    1    2    0    0  0.22407278697E-01 -0.76139037373E-02  0.33998356442E-02  0.23908503741E-01  0.00000000000E+00 0. -1.
     999901    1    3    3    0    0 -0.49814536039E-01  0.88142372794E-01  0.92678879178E-01  0.89064018578E+00  0.88000000000E+00 0. -1.
        -11    1    4    4    0    0  0.92517444684E-02 -0.13768574104E-01 -0.26436574161E-01  0.31214131142E-01  0.51100000000E-03 0.  1.
         11    1    4    4    0    0  0.18155512874E-01 -0.66759894954E-01 -0.69642140661E-01  0.98167179336E-01  0.51100000000E-03 0. -1.
</event>
<event>
 8    1  0.1078274E+005  0.1043930E+01  0.7957747E-01            NaN
         13   -1    0    0    0    0  0.00000000000E+00  0.00000000000E+00  0.74505805969E-08  0.10566000000E+00  0.10566000000E+00 0.  1.
     999900   -1    0    0    0    0 -0.00000000000E+00 -0.00000000000E+00 -0.74505805969E-08  0.93827000000E+00  0.93827000000E+00 0.  1.
     999902    2    1    2    0    0 -0.15046749116E-01 -0.50739980598E-02  0.17767108112E-01  0.10201010209E+01  0.10198226672E+01 0.  0.
     999903    2    3    3    0    0 -0.11761584007E+00 -0.51952282364E-01 -0.22671794974E-01  0.13198318138E+00  0.19313839641E-01 0.  0.
         14    1    1    2    0    0  0.15046749116E-01  0.50739980598E-02 -0.17767108112E-01  0.23828979121E-01  0.00000000000E+00 0. -1.
     999901    1    3    3    0    0  0.10256909095E+00  0.46878284304E-01  0.40438903086E-01  0.88811783950E+00  0.88000000000E+00 0. -1.
        -11    1    4    4    0    0 -0.89239770190E-01 -0.46451966423E-01 -0.22412389327E-01  0.10307326561E+00  0.51100000000E-03 0. -1.
         11    1    4    4    0    0 -0.28376069878E-01 -0.55003159407E-02 -0.25940564722E-03  0.28909915763E-01  0.51100000000E-03 0.  1.
</event>
<event>
 8    1  0.1078274E+005  0.1043930E+01  0.7957747E-01            NaN
         13   -1    0    0    0    0  0.00000000000E+00  0.00000000000E+00  0.74505805969E-08  0.10566000000E+00  0.10566000000E+00 0.  1.
     999900   -1    0    0    0    0 -0.00000000000E+00 -0.00000000000E+00 -0.74505805969E-08  0.93827000000E+00  0.93827000000E+00 0. -1.
     999902    2    1    2    0    0 -0.98709607353E-02 -0.11669762902E-01  0.18472004483E-01  0.10199543002E+01  0.10196724672E+01 0.  0.
     999903    2    3    3    0    0 -0.87778133741E-01 -0.89533092186E-01  0.39054067661E-01  0.13284898120E+00  0.20061312130E-01 0.  0.
         14    1    1    2    0    0  0.98709607353E-02  0.11669762902E-01 -0.18472004483E-01  0.23975699816E-01  0.00000000000E+00 0. -1.
     999901    1    3    3    0    0  0.77907173005E-01  0.77863329285E-01 -0.20582063178E-01  0.88710531899E+00  0.88000000000E+00 0. -1.
        -11    1    4    4    0    0 -0.58442755261E-01 -0.48863316839E-01  0.30080638605E-01  0.81904122698E-01  0.51100000000E-03 0.  1.
         11    1    4    4    0    0 -0.29335378479E-01 -0.40669775347E-01  0.89734290564E-02  0.50944858498E-01  0.51100000000E-03 0. -1.
</event>
<event>
 8    1  0.1078274E+005  0.1043930E+01  0.7957747E-01            NaN
         13   -1    0    0    0    0  0.00000000000E+00  0.00000000000E+00  0.74505805969E-08  0.10566000000E+00  0.10566000000E+00 0. -1.
     999900   -1    0    0    0    0 -0.00000000000E+00 -0.00000000000E+00 -0.74505805969E-08  0.93827000000E+00  0.93827000000E+00 0.  1.
     999902    2    1    2    0    0 -0.19806289309E-01 -0.10829880125E-01 -0.11592782262E-02  0.10213264754E+01  0.10210763194E+01 0.  0.
     999903    2    3    3    0    0  0.62624042387E-02 -0.12512069089E+00  0.38913488511E-01  0.13264892257E+00  0.19674147418E-01 0.  0.
         14    1    1    2    0    0  0.19806289309E-01  0.10829880125E-01  0.11592782262E-02  0.22603524631E-01  0.00000000000E+00 0.  1.
     999901    1    3    3    0    0 -0.26068693548E-01  0.11429081076E+00 -0.40072766738E-01  0.88867755280E+00  0.88000000000E+00 0.  1.
        -11    1    4    4    0    0  0.58609665202E-02 -0.12425269676E-01  0.74759039227E-02  0.15648914197E-01  0.51100000000E-03 0. -1.
         11    1    4    4    0    0  0.40143771855E-03 -0.11269542121E+00  0.31437584589E-01  0.11700000838E+00  0.51100000000E-03 0.  1.
</event>
<event>
 8    1  0.1078274E+005  0.1043930E+01  0.7957747E-01            NaN
         13   -1    0    0    0    0  0.00000000000E+00  0.00000000000E+00  0.74505805969E-08  0.10566000000E+00  0.10566000000E+00 0. -1.
     999900   -1    0    0    0    0 -0.00000000000E+00 -0.00000000000E+00 -0.74505805969E-08  0.93827000000E+00  0.93827000000E+00 0.  1.
     999902    2    1    2    0    0  0.13175374236E-01 -0.58248141931E-02 -0.18217011495E-01  0.10207054773E+01  0.10204412246E+01 0.  0.
     999903    2    3    3    0    0  0.10059187316E+00 -0.35747814194E-01  0.73375529772E-01  0.13114028923E+00  0.20424884921E-01 0.  0.
         14    1    1    2    0    0 -0.13175374236E-01  0.58248141931E-02  0.18217011495E-01  0.23224522696E-01  0.00000000000E+00 0. -1.
     999901    1    3    3    0    0 -0.87416498928E-01  0.29923000001E-01 -0.91592541268E-01  0.88956518807E+00  0.88000000000E+00 0.  1.
        -11    1    4    4    0    0  0.31011597421E-01 -0.13696748553E-02  0.19495646124E-01  0.36659739806E-01  0.51100000000E-03 0. -1.
         11    1    4    4    0    0  0.69580275743E-01 -0.34378139339E-01  0.53879883649E-01  0.94480549426E-01  0.51100000000E-03 0.  1.
</event>
<event>
 8    1  0.1078274E+005  0.1043930E+01  0.7957747E-01            NaN
         13   -1    0    0    0    0  0.00000000000E+00  0.00000000000E+00  0.74505805969E-08  0.10566000000E+00  0.10566000000E+00 0.  1.
     999900   -1    0    0    0    0 -0.00000000000E+00 -0.00000000000E+00 -0.74505805969E-08  0.93827000000E+00  0.93827000000E+00 0.  1.
     999902    2    1    2    0    0 -0.22281115874E-01  0.36594478408E-03 -0.73241858404E-02  0.10204731089E+01  0.10202034799E+01 0.  0.
     999903    2    3    3    0    0  0.59661094361E-01 -0.84224002400E-01  0.74615109676E-01  0.12885433775E+00  0.19567754194E-01 0.  0.
         14    1    1    2    0    0  0.22281115874E-01 -0.36594478408E-03  0.73241858404E-02  0.23456891064E-01  0.00000000000E+00 0.  1.
     999901    1    3    3    0    0 -0.81942210235E-01  0.84589947184E-01 -0.81939295516E-01  0.89161877119E+00  0.88000000000E+00 0.  1.
        -11    1    4    4    0    0  0.18597613033E-01 -0.24490462770E-01  0.33665307540E-01  0.45598991545E-01  0.51100000000E-03 0. -1.
         11    1    4    4    0    0  0.41063481329E-01 -0.59733539630E-01  0.40949802136E-01  0.83255346204E-01  0.51100000000E-03 0.  1.
</event>
<event>
 8    1  0.1078274E+005  0.1043930E+01  0.7957747E-01            NaN
         13   -1    0    0    0    0  0.00000000000E+00  0.00000000000E+00  0.74505805969E-08  0.10566000000E+00  0.10566000000E+00 0.  1.
     999900   -1    0    0    0    0 -0.00000000000E+00 -0.00000000000E+00 -0.74505805969E-08  0.93827000000E+00  0.93827000000E+00 0. -1.
     999902    2    1    2    0    0  0.18916548067E-01 -0.24245348116E-02  0.14952242437E-01  0.10196960628E+01  0.10194080521E+01 0.  0.
     999903    2    3    3    0    0 -0.81501454340E-01 -0.72824205966E-01 -0.62481863239E-01  0.12782391407E+00  0.22116006415E-01 0.  0.
         14    1    1    2    0    0 -0.18916548067E-01  0.24245348116E-02 -0.14952242437E-01  0.24233937231E-01  0.00000000000E+00 0.  1.
     999901    1    3    3    0    0  0.10041800241E+00  0.70399671155E-01  0.77434105676E-01  0.89187214870E+00  0.88000000000E+00 0.  1.
        -11    1    4    4    0    0 -0.46373372046E-01 -0.35720826233E-01 -0.21639775946E-01  0.62409999885E-01  0.51100000000E-03 0. -1.
         11    1    4    4    0    0 -0.35128082294E-01 -0.37103379734E-01 -0.40842087293E-01  0.65413914183E-01  0.51100000000E-03 0.  1.
</event>
<event>
 8    1  0.1078274E+005  0.1043930E+01  0.7957747E-01            NaN
         13   -1    0    0    0    0  0.00000000000E+00  0.00000000000E+00  0.74505805969E-08  0.10566000000E+00  0.10566000000E+00 0.  1.
     999900   -1    0    0    0    0 -0.00000000000E+00 -0.00000000000E+00 -0.74505805969E-08  0.93827000000E+00  0.93827000000E+00 0.  1.
     999902    2    1    2    0    0  0.71488328756E-03  0.38411107101E-02  0.24279584698E-01  0.10193380618E+01  0.10190413735E+01 0.  0.
     999903    2    3    3    0    0  0.33471341137E-01 -0.12019182617E+00  0.30519266863E-01  0.13001467375E+00  0.20149044249E-01 0.  0.
         14    1    1    2    0    0 -0.71488328756E-03 -0.38411107101E-02 -0.24279584698E-01  0.24591938165E-01  0.00000000000E+00 0. -1.
     999901    1    3    3    0    0 -0.32756457850E-01  0.12403293688E+00 -0.62396821647E-02  0.88932338809E+00  0.88000000000E+00 0. -1.
        -11    1    4    4    0    0  0.27302664718E-01 -0.60691260302E-01  0.15315635838E-01  0.68291246876E-01  0.51100000000E-03 0.  1.
         11    1    4    4    0    0  0.61686764190E-02 -0.59500565870E-01  0.15203631024E-01  0.61723426873E-01  0.51100000000E-03 0. -1.
</event>
<event>
 8    1  0.1078274E+005  0.1043930E+01  0.7957747E-01            NaN
         13   -1    0    0    0    0  0.00000000000E+00  0.00000000000E+00  0.74505805969E-08  0.10566000000E+00  0.10566000000E+00 0. -1.
     999900   -1    0    0    0    0 -0.00000000000E+00 -0.00000000000E+00 -0.74505805969E-08  0.93827000000E+00  0.93827000000E+00 0. -1.
     999902    2    1    2    0    0 -0.73761813265E-02  0.20533535963E-01  0.94526538197E-02  0.10201521360E+01  0.10198749893E+01 0.  0.
     999903    2    3    3    0    0 -0.97426221184E-01  0.87917598499E-01 -0.29520132347E-02  0.13290724464E+00  0.20838632267E-01 0.  0.
         14    1    1    2    0    0  0.73761813265E-02 -0.20533535963E-01 -0.94526538197E-02  0.23777863956E-01  0.00000000000E+00 0.  1.
     999901    1    3    3    0    0  0.90050039858E-01 -0.67384062536E-01  0.12404667054E-01  0.88724489141E+00  0.88000000000E+00 0. -1.
        -11    1    4    4    0    0 -0.58422952398E-01  0.65812008576E-01 -0.50488230253E-03  0.88005555886E-01  0.51100000000E-03 0.  1.
         11    1    4    4    0    0 -0.39003268786E-01  0.22105589923E-01 -0.24471309322E-02  0.44901688751E-01  0.51100000000E-03 0. -1.
</event>
<event>
 7    1  0.1078274E+005  0.1043930E+01  0.7957747E-01            NaN
         13   -1    0    0    0    0  0.00000000000E+00  0.00000000000E+00  0.74505805969E-08  0.10566000000E+00  0.10566000000E+00 0.  1.
     999900   -1    0    0    0    0 -0.00000000000E+00 -0.00000000000E+00 -0.74505805969E-08  0.93827000000E+00  0.93827000000E+00 0. -1.
     999902    2    1    2    0    0  0.26721193132E-02 -0.13360319430E-02 -0.23450809423E-01  0.10202896602E+01  0.10200157475E+01 0.  0.
         14    1    1    2    0    0 -0.26721193132E-02  0.13360319430E-02  0.23450809423E-01  0.23640339794E-01  0.00000000000E+00 0.  1.
     999901    1    3    3    0    0  0.12111657989E+00 -0.35341942481E-01 -0.43993788481E-01  0.89008636224E+00  0.88000000000E+00 0. -1.
        -11    1    3    3    0    0 -0.37370270508E-01 -0.40021756653E-02 -0.27272553210E-02  0.37686251744E-01  0.51100000000E-03 0. -1.
         11    1    3    3    0    0 -0.81074190070E-01  0.38008086204E-01  0.23270234378E-01  0.92517046221E-01  0.51100000000E-03 0.  1.
</event>
<event>
 8    1  0.1078274E+005  0.1043930E+01  0.7957747E-01            NaN
         13   -1    0    0    0    0  0.00000000000E+00  0.00000000000E+00  0.74505805969E-08  0.10566000000E+00  0.10566000000E+00 0.  1.
     999900   -1    0    0    0    0 -0.00000000000E+00 -0.00000000000E+00 -0.74505805969E-08  0.93827000000E+00  0.93827000000E+00 0. -1.
     999902    2    1    2    0    0  0.16186757535E-01 -0.34481565673E-02 -0.18555059765E-01  0.10190665500E+01  0.10187631924E+01 0.  0.
     999903    2    3    3    0    0  0.33724412525E-01  0.10719043861E+00 -0.63842117515E-01  0.13081017615E+00  0.20207921339E-01 0.  0.
         14    1    1    2    0    0 -0.16186757535E-01  0.34481565673E-02  0.18555059765E-01  0.24863450003E-01  0.00000000000E+00 0.  1.
     999901    1    3    3    0    0 -0.17537654990E-01 -0.11063859518E+00  0.45287057750E-01  0.88825637385E+00  0.88000000000E+00 0. -1.
        -11    1    4    4    0    0  0.24681746301E-01  0.67158193394E-01 -0.50772521801E-01  0.87735520922E-01  0.51100000000E-03 0.  1.
         11    1    4    4    0    0  0.90426662243E-02  0.40032245217E-01 -0.13069595713E-01  0.43074655224E-01  0.51100000000E-03 0. -1.
</event>
<event>
 8    1  0.1078274E+005  0.1043930E+01  0.7957747E-01            NaN
         13   -1    0    0    0    0  0.00000000000E+00  0.00000000000E+00  0.74505805969E-08  0.10566000000E+00  0.10566000000E+00 0.  1.
     999900   -1    0    0    0    0 -0.00000000000E+00 -0.00000000000E+00 -0.74505805969E-08  0.93827000000E+00  0.93827000000E+00 0. -1.
     999902    2    1    2    0    0  0.20667718746E-01 -0.70673555062E-02  0.88801580918E-02  0.10203512104E+01  0.10200787387E+01 0.  0.
     999903    2    3    3    0    0 -0.10944355914E+00  0.46471131439E-01 -0.44418876890E-01  0.12758242657E+00  0.12914342892E-01 0.  0.
         14    1    1    2    0    0 -0.20667718746E-01  0.70673555062E-02 -0.88801580918E-02  0.23578789616E-01  0.00000000000E+00 0. -1.
     999901    1    3    3    0    0  0.13011127788E+00 -0.53538486945E-01  0.53299034982E-01  0.89276878381E+00  0.88000000000E+00 0.  1.
        -11    1    4    4    0    0 -0.38891112753E-01  0.13852227740E-01 -0.94830362889E-02  0.42362624597E-01  0.51100000000E-03 0.  1.
         11    1    4    4    0    0 -0.70552446385E-01  0.32618903699E-01 -0.34935840601E-01  0.85219801976E-01  0.51100000000E-03 0. -1.
</event>
<event>
 8    1  0.1078274E+005  0.1043930E+01  0.7957747E-01            NaN
         13   -1    0    0    0    0  0.00000000000E+00  0.00000000000E+00  0.74505805969E-08  0.10566000000E+00  0.10566000000E+00 0.  1.
     999900   -1    0    0    0    0 -0.00000000000E+00 -0.00000000000E+00 -0.74505805969E-08  0.93827000000E+00  0.93827000000E+00 0.  1.
     999902    2    1    2    0    0  0.11877628495E-01 -0.19666465012E-01  0.58932005512E-02  0.10202112792E+01  0.10199355256E+01 0.  0.
     999903    2    3    3    0    0 -0.27482173700E-01 -0.11402270879E+00  0.58907931829E-01  0.13270755721E+00  0.19613855276E-01 0.  0.
         14    1    1    2    0    0 -0.11877628495E-01  0.19666465012E-01 -0.58932005512E-02  0.23718720822E-01  0.00000000000E+00 0. -1.
     999901    1    3    3    0    0  0.39359802195E-01  0.94356243775E-01 -0.53014731277E-01  0.88750372196E+00  0.88000000000E+00 0. -1.
        -11    1    4    4    0    0 -0.26593744015E-01 -0.98219191292E-01  0.43675271289E-01  0.11073403814E+00  0.51100000000E-03 0. -1.
         11    1    4    4    0    0 -0.88842968517E-03 -0.15803517495E-01  0.15232660539E-01  0.21973519077E-01  0.51100000000E-03 0.  1.
</event>
<event>
 8    1  0.1078274E+005  0.1043930E+01  0.7957747E-01            NaN
         13   -1    0    0    0    0  0.00000000000E+00  0.00000000000E+00  0.74505805969E-08  0.10566000000E+00  0.10566000000E+00 0.  1.
     999900   -1    0    0    0    0 -0.00000000000E+00 -0.00000000000E+00 -0.74505805969E-08  0.93827000000E+00  0.93827000000E+00 0.  1.
     999902    2    1    2    0    0  0.45237185808E-02  0.20791330013E-01  0.11133454348E-01  0.10199154786E+01  0.10196327212E+01 0.  0.
     999903    2    3    3    0    0 -0.73648810471E-01 -0.76839593461E-01 -0.67360177495E-01  0.12761284395E+00  0.20473739824E-01 0.  0.
         14    1    1    2    0    0 -0.45237185808E-02 -0.20791330013E-01 -0.11133454348E-01  0.24014521424E-01  0.00000000000E+00 0. -1.
     999901    1    3    3    0    0  0.78172529052E-01  0.97630923474E-01  0.78493631843E-01  0.89230263462E+00  0.88000000000E+00 0. -1.
        -11    1    4    4    0    0 -0.56860081793E-01 -0.45668787304E-01 -0.47099115249E-01  0.86817595070E-01  0.51100000000E-03 0.  1.
         11    1    4    4    0    0 -0.16788728677E-01 -0.31170806157E-01 -0.20261062246E-01  0.40795248883E-01  0.51100000000E-03 0. -1.
</event>
<event>
 8    1  0.1078274E+005  0.1043930E+01  0.7957747E-01            NaN
         13   -1    0    0    0    0  0.00000000000E+00  0.00000000000E+00  0.74505805969E-08  0.10566000000E+00  0.10566000000E+00 0.  1.
     999900   -1    0    0    0    0 -0.00000000000E+00 -0.00000000000E+00 -0.74505805969E-08  0.93827000000E+00  0.93827000000E+00 0. -1.
     999902    2    1    2    0    0  0.52361977821E-03 -0.13983345198E-01  0.17406230694E-01  0.10215965053E+01  0.10213523557E+01 0.  0.
     999903    2    3    3    0    0  0.47033124741E-01 -0.33248714637E-01 -0.11506615093E+00  0.13025862296E+00  0.20236054935E-01 0.  0.
         14    1    1    2    0    0 -0.52361977821E-03  0.13983345198E-01 -0.17406230694E-01  0.22333494746E-01  0.00000000000E+00 0. -1.
     999901    1    3    3    0    0 -0.46509504963E-01  0.19265369440E-01  0.13247238162E+00  0.89133788229E+00  0.88000000000E+00 0.  1.
        -11    1    4    4    0    0  0.21480633984E-01 -0.14340660475E-01 -0.73639519951E-01  0.78039170926E-01  0.51100000000E-03 0.  1.
         11    1    4    4    0    0  0.25552490757E-01 -0.18908054163E-01 -0.41426630976E-01  0.52219452038E-01  0.51100000000E-03 0. -1.
</event>
<event>
 8    1  0.1078274E+005  0.1043930E+01  0.7957747E-01            NaN
         13   -1    0    0    0    0  0.00000000000E+00  0.00000000000E+00  0.74505805969E-08  0.10566000000E+00  0.10566000000E+00 0. -1.
     999900   -1    0    0    0    0 -0.00000000000E+00 -0.00000000000E+00 -0.74505805969E-08  0.93827000000E+00  0.93827000000E+00 0. -1.
     999902    2    1    2    0    0 -0.22991917571E-01  0.25466733641E-01  0.95501084202E-02  0.10083155736E+01  0.10076864138E+01 0.  0.
     999903    2    3    3    0    0 -0.68228580559E-01  0.98137178529E-01  0.25807217697E-01  0.12401266011E+00  0.20665971224E-01 0.  0.
         14    1    1    2    0    0  0.22991917571E-01 -0.25466733641E-01 -0.95501084202E-02  0.35614426385E-01  0.00000000000E+00 0.  1.
     999901    1    3    3    0    0  0.45236662988E-01 -0.72670444888E-01 -0.16257109277E-01  0.88430291351E+00  0.88000000000E+00 0. -1.
        -11    1    4    4    0    0 -0.56728737125E-01  0.65311302061E-01  0.18727064581E-01  0.88513726966E-01  0.51100000000E-03 0.  1.
         11    1    4    4    0    0 -0.11499843434E-01  0.32825876468E-01  0.70801531164E-02  0.35498933139E-01  0.51100000000E-03 0. -1.
</event>
<event>
 8    1  0.1078274E+005  0.1043930E+01  0.7957747E-01            NaN
         13   -1    0    0    0    0  0.00000000000E+00  0.00000000000E+00  0.74505805969E-08  0.10566000000E+00  0.10566000000E+00 0. -1.
     999900   -1    0    0    0    0 -0.00000000000E+00 -0.00000000000E+00 -0.74505805969E-08  0.93827000000E+00  0.93827000000E+00 0.  1.
     999902    2    1    2    0    0 -0.13512770229E-02 -0.15929955338E-01  0.17726320956E-01  0.10200592673E+01  0.10197799257E+01 0.  0.
     999903    2    3    3    0    0 -0.81935644994E-02 -0.12849428826E+00  0.25924768097E-01  0.13282493493E+00  0.19810429623E-01 0.  0.
         14    1    1    2    0    0  0.13512770229E-02  0.15929955338E-01 -0.17726320956E-01  0.23870732735E-01  0.00000000000E+00 0.  1.
     999901    1    3    3    0    0  0.68422874764E-02  0.11256433293E+00 -0.81984471413E-02  0.88723433234E+00  0.88000000000E+00 0.  1.
        -11    1    4    4    0    0  0.64504525077E-02 -0.31296623097E-01  0.54699081204E-02  0.32423262801E-01  0.51100000000E-03 0.  1.
         11    1    4    4    0    0 -0.14644017007E-01 -0.97197665167E-01  0.20454859977E-01  0.10040167213E+00  0.51100000000E-03 0. -1.
</event>
<event>
 8    1  0.1078274E+005  0.1043930E+01  0.7957747E-01            NaN
         13   -1    0    0    0    0  0.00000000000E+00  0.00000000000E+00  0.74505805969E-08  0.10566000000E+00  0.10566000000E+00 0.  1.
     999900   -1    0    0    0    0 -0.00000000000E+00 -0.00000000000E+00 -0.74505805969E-08  0.93827000000E+00  0.93827000000E+00 0. -1.
     999902    2    1    2    0    0 -0.12463499085E-02  0.17129842095E-01  0.16377646090E-01  0.10201979084E+01  0.10199218402E+01 0.  0.
     999903    2    3    3    0    0  0.12836490095E+00 -0.36873355857E-03 -0.66353094103E-02  0.13023449761E+00  0.20959801433E-01 0.  0.
         14    1    1    2    0    0  0.12463499085E-02 -0.17129842095E-01 -0.16377646090E-01  0.23732091559E-01  0.00000000000E+00 0. -1.
     999901    1    3    3    0    0 -0.12961125086E+00  0.17498575654E-01  0.23012955501E-01  0.88996341083E+00  0.88000000000E+00 0. -1.
        -11    1    4    4    0    0  0.47368569050E-01  0.94337688067E-02 -0.57328710021E-02  0.48640561866E-01  0.51100000000E-03 0. -1.
         11    1    4    4    0    0  0.80996331900E-01 -0.98025023653E-02 -0.90243840820E-03  0.81593935742E-01  0.51100000000E-03 0.  1.
</event>
<event>
 8    1  0.1078274E+005  0.1043930E+01  0.7957747E-01            NaN
         13   -1    0    0    0    0  0.00000000000E+00  0.00000000000E+00  0.74505805969E-08  0.10566000000E+00  0.10566000000E+00 0. -1.
     999900   -1    0    0    0    0 -0.00000000000E+00 -0.00000000000E+00 -0.74505805969E-08  0.93827000000E+00  0.93827000000E+00 0.  1.
     999902    2    1    2    0    0  0.17499346826E-01 -0.11255301743E-01 -0.11444373734E-01  0.10201837867E+01  0.10199073860E+01 0.  0.
     999903    2    3    3    0    0  0.12669040141E+00  0.20107662680E-01  0.24542785143E-01  0.13215146884E+00  0.20171427971E-01 0.  0.
         14    1    1    2    0    0 -0.17499346826E-01  0.11255301743E-01  0.11444373734E-01  0.23746213315E-01  0.00000000000E+00 0. -1.
     999901    1    3    3    0    0 -0.10919105458E+00 -0.31362964423E-01 -0.35987158877E-01  0.88803231785E+00  0.88000000000E+00 0.  1.
        -11    1    4    4    0    0  0.76542402700E-01  0.68931107332E-02  0.60536531990E-02  0.77091907647E-01  0.51100000000E-03 0.  1.
         11    1    4    4    0    0  0.50147998706E-01  0.13214551947E-01  0.18489131944E-01  0.55059561190E-01  0.51100000000E-03 0. -1.
</event>
<event>
 8    1  0.1078274E+005  0.1043930E+01  0.7957747E-01            NaN
         13   -1    0    0    0    0  0.00000000000E+00  0.00000000000E+00  0.74505805969E-08  0.10566000000E+00  0.10566000000E+00 0.  1.
     999900   -1    0    0    0    0 -0.00000000000E+00 -0.00000000000E+00 -0.74505805969E-08  0.93827000000E+00  0.93827000000E+00 0.  1.
     999902    2    1    2    0    0  0.20069065800E-01  0.13131994628E-01  0.24897698931E-02  0.10198174381E+01  0.10195323396E+01 0.  0.
     999903    2    3    3    0    0 -0.11381879773E+00 -0.35809852049E-01  0.39110390288E-01  0.12759418459E+00  0.22662504101E-01 0.  0.
         14    1    1    2    0    0 -0.20069065800E-01 -0.13131994628E-01 -0.24897698931E-02  0.24112561853E-01  0.00000000000E+00 0.  1.
     999901    1    3    3    0    0  0.13388786353E+00  0.48941846678E-01 -0.36620620395E-01  0.89222325356E+00  0.88000000000E+00 0.  1.
        -11    1    4    4    0    0 -0.50338753958E-01 -0.23241012635E-01  0.27327841786E-01  0.61815911188E-01  0.51100000000E-03 0. -1.
         11    1    4    4    0    0 -0.63480043768E-01 -0.12568839415E-01  0.11782548502E-01  0.65778273398E-01  0.51100000000E-03 0.  1.
</event>
<event>
 8    1  0.1078274E+005  0.1043930E+01  0.7957747E-01            NaN
         13   -1    0    0    0    0  0.00000000000E+00  0.00000000000E+00  0.74505805969E-08  0.10566000000E+00  0.10566000000E+00 0.  1.
     999900   -1    0    0    0    0 -0.00000000000E+00 -0.00000000000E+00 -0.74505805969E-08  0.93827000000E+00  0.93827000000E+00 0.  1.
     999902    2    1    2    0    0 -0.12974331004E-01 -0.15424689963E-01 -0.11910729395E-01  0.10205180415E+01  0.10202494564E+01 0.  0.
     999903    2    3    3    0    0  0.29495018008E-01  0.79159240975E-02  0.12336250867E+00  0.12886380426E+00  0.21329640446E-01 0.  0.
         14    1    1    2    0    0  0.12974331004E-01  0.15424689963E-01  0.11910729395E-01  0.23411958486E-01  0.00000000000E+00 0.  1.
     999901    1    3    3    0    0 -0.42469349011E-01 -0.23340614060E-01 -0.13527323807E+00  0.89165423725E+00  0.88000000000E+00 0.  1.
        -11    1    4    4    0    0  0.67553671463E-03 -0.36479750750E-02  0.38070406437E-02  0.53402950727E-02  0.51100000000E-03 0. -1.
         11    1    4    4    0    0  0.28819481293E-01  0.11563899173E-01  0.11955546803E+00  0.12352350919E+00  0.51100000000E-03 0.  1.
</event>
<event>
 8    1  0.1078274E+005  0.1043930E+01  0.7957747E-01            NaN
         13   -1    0    0    0    0  0.00000000000E+00  0.00000000000E+00  0.74505805969E-08  0.10566000000E+00  0.10566000000E+00 0. -1.
     999900   -1    0    0    0    0 -0.00000000000E+00 -0.00000000000E+00 -0.74505805969E-08  0.93827000000E+00  0.93827000000E+00 0.  1.
     999902    2    1    2    0    0 -0.80865356429E-02 -0.75972550882E-02  0.21332368995E-01  0.10198846198E+01  0.10196011266E+01 0.  0.
     999903    2    3    3    0    0 -0.85865206898E-02  0.84516040468E-01 -0.93473534086E-01  0.12765958953E+00  0.18519713556E-01 0.  0.
         14    1    1    2    0    0  0.80865356429E-02  0.75972550882E-02 -0.21332368995E-01  0.24045380232E-01  0.00000000000E+00 0.  1.
     999901    1    3    3    0    0  0.49998504688E-03 -0.92113295556E-01  0.11480590308E+00  0.89222503024E+00  0.88000000000E+00 0. -1.
        -11    1    4    4    0    0 -0.12821839225E-01  0.54340505144E-01 -0.67638343341E-01  0.87706879270E-01  0.51100000000E-03 0.  1.
         11    1    4    4    0    0  0.42353185348E-02  0.30175535324E-01 -0.25835190745E-01  0.39952710259E-01  0.51100000000E-03 0. -1.
</event>
<event>
 8    1  0.1078274E+005  0.1043930E+01  0.7957747E-01            NaN
         13   -1    0    0    0    0  0.00000000000E+00  0.00000000000E+00  0.74505805969E-08  0.10566000000E+00  0.10566000000E+00 0.  1.
     999900   -1    0    0    0    0 -0.00000000000E+00 -0.00000000000E+00 -0.74505805969E-08  0.93827000000E+00  0.93827000000E+00 0.  1.
     999902    2    1    2    0    0  0.11029521970E-01  0.16836435385E-01  0.12459103768E-01  0.10202583888E+01  0.10199837424E+01 0.  0.
     999903    2    3    3    0    0 -0.11403314104E+00  0.70556764227E-02 -0.56069378591E-01  0.12872460600E+00  0.19310855767E-01 0.  0.
         14    1    1    2    0    0 -0.11029521970E-01 -0.16836435385E-01 -0.12459103768E-01  0.23671611227E-01  0.00000000000E+00 0.  1.
     999901    1    3    3    0    0  0.12506266301E+00  0.97807589628E-02  0.68528482359E-01  0.89153378277E+00  0.88000000000E+00 0.  1.
        -11    1    4    4    0    0 -0.39190925732E-01  0.74903433793E-02 -0.11140049829E-01  0.41429406644E-01  0.51100000000E-03 0. -1.
         11    1    4    4    0    0 -0.74842215306E-01 -0.43466695661E-03 -0.44929328762E-01  0.87295199359E-01  0.51100000000E-03 0.  1.
</event>
<event>
 7    1  0.1078274E+005  0.1043930E+01  0.7957747E-01            NaN
         13   -1    0    0    0    0  0.00000000000E+00  0.00000000000E+00  0.74505805969E-08  0.10566000000E+00  0.10566000000E+00 0.  1.
     999900   -1    0    0    0    0 -0.00000000000E+00 -0.00000000000E+00 -0.74505805969E-08  0.93827000000E+00  0.93827000000E+00 0.  1.
     999902    2    1    2    0    0 -0.26260969554E-04  0.15863423784E-01 -0.18631104302E-01  0.10194602850E+01  0.10191665741E+01 0.  0.
         14    1    1    2    0    0  0.26260969554E-04 -0.15863423784E-01  0.18631104302E-01  0.24469714982E-01  0.00000000000E+00 0. -1.
     999901    1    3    3    0    0  0.32388302481E-01  0.13308633705E+00 -0.18777033529E-01  0.89079377649E+00  0.88000000000E+00 0.  1.
        -11    1    3    3    0    0 -0.15542787529E-01 -0.57367327517E-01  0.21053047250E-01  0.63056168851E-01  0.51100000000E-03 0.  1.
         11    1    3    3    0    0 -0.16871775922E-01 -0.59855585744E-01 -0.20907118023E-01  0.65610339677E-01  0.51100000000E-03 0. -1.
</event>
<event>
 8    1  0.1078274E+005  0.1043930E+01  0.7957747E-01            NaN
         13   -1    0    0    0    0  0.00000000000E+00  0.00000000000E+00  0.74505805969E-08  0.10566000000E+00  0.10566000000E+00 0. -1.
     999900   -1    0    0    0    0 -0.00000000000E+00 -0.00000000000E+00 -0.74505805969E-08  0.93827000000E+00  0.93827000000E+00 0.  1.
     999902    2    1    2    0    0 -0.18838073985E-01  0.10816292182E-01  0.94537048390E-02  0.10202395432E+01  0.10199644542E+01 0.  0.
     999903    2    3    3    0    0 -0.80733801988E-01 -0.68970520570E-01  0.75747513423E-01  0.13198739111E+00  0.20201636873E-01 0.  0.
         14    1    1    2    0    0  0.18838073985E-01 -0.10816292182E-01 -0.94537048390E-02  0.23690456797E-01  0.00000000000E+00 0.  1.
     999901    1    3    3    0    0  0.61895728002E-01  0.79786812752E-01 -0.66293808584E-01  0.88825215209E+00  0.88000000000E+00 0.  1.
        -11    1    4    4    0    0 -0.66113986817E-01 -0.60978215022E-01  0.55208535581E-01  0.10553504386E+00  0.51100000000E-03 0.  1.
         11    1    4    4    0    0 -0.14619815171E-01 -0.79923055484E-02  0.20538977841E-01  0.26452347257E-01  0.51100000000E-03 0. -1.
</event>
<event>
 8    1  0.1078274E+005  0.1043930E+01  0.7957747E-01            NaN
         13   -1    0    0    0    0  0.00000000000E+00  0.00000000000E+00  0.74505805969E-08  0.10566000000E+00  0.10566000000E+00 0. -1.
     999900   -1    0    0    0    0 -0.00000000000E+00 -0.00000000000E+00 -0.74505805969E-08  0.93827000000E+00  0.93827000000E+00 0. -1.
     999902    2    1    2    0    0  0.19611211978E-01  0.37567833797E-03 -0.85317104756E-02  0.10225400291E+01  0.10223162820E+01 0.  0.
     999903    2    3    3    0    0 -0.72839883387E-01 -0.43378559893E-01 -0.98565673080E-01  0.13205266101E+00  0.23137962283E-01 0.  0.
         14    1    1    2    0    0 -0.19611211978E-01 -0.37567833797E-03  0.85317104756E-02  0.21389970853E-01  0.00000000000E+00 0. -1.
     999901    1    3    3    0    0  0.92451095365E-01  0.43754238231E-01  0.90033962605E-01  0.89048736814E+00  0.88000000000E+00 0.  1.
        -11    1    4    4    0    0 -0.43002071836E-01 -0.37747635563E-01 -0.59202782955E-01  0.82336460959E-01  0.51100000000E-03 0.  1.
         11    1    4    4    0    0 -0.29837811551E-01 -0.56309243304E-02 -0.39362890126E-01  0.49716200046E-01  0.51100000000E-03 0. -1.
</event>
<event>
 8    1  0.1078274E+005  0.1043930E+01  0.7957747E-01            NaN
         13   -1    0    0    0    0  0.00000000000E+00  0.00000000000E+00  0.74505805969E-08  0.10566000000E+00  0.10566000000E+00 0. -1.
     999900   -1    0    0    0    0 -0.00000000000E+00 -0.00000000000E+00 -0.74505805969E-08  0.93827000000E+00  0.93827000000E+00 0.  1.
     999902    2    1    2    0    0 -0.22372123826E-01  0.60616983750E-02 -0.14042783900E-02  0.10207087143E+01  0.10204445361E+01 0.  0.
     999903    2    3    3    0    0 -0.95221487102E-01  0.36272933990E-01  0.82705120830E-01  0.13318736835E+00  0.22713007941E-01 0.  0.
         14    1    1    2    0    0  0.22372123826E-01 -0.60616983750E-02  0.14042783900E-02  0.23221285698E-01  0.00000000000E+00 0.  1.
     999901    1    3    3    0    0  0.72849363275E-01 -0.30211235615E-01 -0.84109399220E-01  0.88752134595E+00  0.88000000000E+00 0. -1.
        -11    1    4    4    0    0 -0.61407076435E-01  0.22883612019E-01  0.38745310926E-01  0.76131130132E-01  0.51100000000E-03 0.  1.
         11    1    4    4    0    0 -0.33814410667E-01  0.13389321971E-01  0.43959809904E-01  0.57056238216E-01  0.51100000000E-03 0. -1.
</event>
<event>
 8    1  0.1078274E+005  0.1043930E+01  0.7957747E-01            NaN
         13   -1    0    0    0    0  0.00000000000E+00  0.00000000000E+00  0.74505805969E-08  0.10566000000E+00  0.10566000000E+00 0. -1.
     999900   -1    0    0    0    0 -0.00000000000E+00 -0.00000000000E+00 -0.74505805969E-08  0.93827000000E+00  0.93827000000E+00 0. -1.
     999902    2    1    2    0    0 -0.12460553475E-01 -0.10029837306E-02 -0.20730864597E-01  0.10197217345E+01  0.10194343411E+01 0.  0.
     999903    2    3    3    0    0  0.10454507407E+00 -0.25157277201E-01  0.65655167136E-01  0.12745703545E+00  0.19290769990E-01 0.  0.
         14    1    1    2    0    0  0.12460553475E-01  0.10029837306E-02  0.20730864597E-01  0.24208265452E-01  0.00000000000E+00 0. -1.
     999901    1    3    3    0    0 -0.11700562754E+00  0.24154293471E-01 -0.86386031732E-01  0.89226469909E+00  0.88000000000E+00 0. -1.
        -11    1    4    4    0    0  0.72158322756E-01 -0.23510133025E-01  0.38205324096E-01  0.84967392617E-01  0.51100000000E-03 0. -1.
         11    1    4    4    0    0  0.32386751313E-01 -0.16471441769E-02  0.27449843039E-01  0.42489642837E-01  0.51100000000E-03 0.  1.
</event>
<event>
 8    1  0.1078274E+005  0.1043930E+01  0.7957747E-01            NaN
         13   -1    0    0    0    0  0.00000000000E+00  0.00000000000E+00  0.74505805969E-08  0.10566000000E+00  0.10566000000E+00 0.  1.
     999900   -1    0    0    0    0 -0.00000000000E+00 -0.00000000000E+00 -0.74505805969E-08  0.93827000000E+00  0.93827000000E+00 0.  1.
     999902    2    1    2    0    0 -0.93191899632E-02 -0.13136191849E-01  0.18092566572E-01  0.10197071223E+01  0.10194193776E+01 0.  0.
     999903    2    3    3    0    0 -0.73193308375E-01 -0.77289931845E-01 -0.73008858608E-01  0.13038430409E+00  0.18405959961E-01 0.  0.
         14    1    1    2    0    0  0.93191899632E-02  0.13136191849E-01 -0.18092566572E-01  0.24222877679E-01  0.00000000000E+00 0. -1.
     999901    1    3    3    0    0  0.63874118412E-01  0.64153739996E-01  0.91101425180E-01  0.88932281823E+00  0.88000000000E+00 0. -1.
        -11    1    4    4    0    0 -0.61861952675E-01 -0.71999383589E-01 -0.68579119073E-01  0.11710751095E+00  0.51100000000E-03 0.  1.
         11    1    4    4    0    0 -0.11331355699E-01 -0.52905482568E-02 -0.44297395354E-02  0.13276793144E-01  0.51100000000E-03 0. -1.
</event>
<event>
 8    1  0.1078274E+005  0.1043930E+01  0.7957747E-01            NaN
         13   -1    0    0    0    0  0.00000000000E+00  0.00000000000E+00  0.74505805969E-08  0.10566000000E+00  0.10566000000E+00 0. -1.
     999900   -1    0    0    0    0 -0.00000000000E+00 -0.00000000000E+00 -0.74505805969E-08  0.93827000000E+00  0.93827000000E+00 0.  1.
     999902    2    1    2    0    0 -0.14459572060E-01 -0.20749739999E-01  0.27655958330E-03  0.10186375620E+01  0.10183235121E+01 0.  0.
     999903    2    3    3    0    0 -0.10140501736E+00  0.71983264294E-01  0.28584817612E-01  0.12905323323E+00  0.19315209683E-01 0.  0.
         14    1    1    2    0    0  0.14459572060E-01  0.20749739999E-01 -0.27655958330E-03  0.25292437988E-01  0.00000000000E+00 0.  1.
     999901    1    3    3    0    0  0.86945445298E-01 -0.92733004293E-01 -0.28308258029E-01  0.88958432878E+00  0.88000000000E+00 0.  1.
        -11    1    4    4    0    0 -0.73753182441E-01  0.41267061939E-01  0.19349450558E-01  0.86701584064E-01  0.51100000000E-03 0.  1.
         11    1    4    4    0    0 -0.27651834917E-01  0.30716202355E-01  0.92353670545E-02  0.42351649165E-01  0.51100000000E-03 0. -1.
</event>
<event>
 8    1  0.1078274E+005  0.1043930E+01  0.7957747E-01            NaN
         13   -1    0    0    0    0  0.00000000000E+00  0.00000000000E+00  0.74505805969E-08  0.10566000000E+00  0.10566000000E+00 0.  1.
     999900   -1    0    0    0    0 -0.00000000000E+00 -0.00000000000E+00 -0.74505805969E-08  0.93827000000E+00  0.93827000000E+00 0. -1.
     999902    2    1    2    0    0  0.21264302860E-01 -0.10594425185E-01  0.35755036178E-02  0.10199050828E+01  0.10196220777E+01 0.  0.
     999903    2    3    3    0    0  0.98834103102E-01 -0.49592606471E-01  0.70730208806E-01  0.13308622502E+00  0.21944801215E-01 0.  0.
         14    1    1    2    0    0 -0.21264302860E-01  0.10594425185E-01 -0.35755036178E-02  0.24024917216E-01  0.00000000000E+00 0.  1.
     999901    1    3    3    0    0 -0.77569800242E-01  0.38998181286E-01 -0.67154705189E-01  0.88681885776E+00  0.88000000000E+00 0.  1.
        -11    1    4    4    0    0  0.76912658777E-01 -0.34375615790E-01  0.42954191004E-01  0.94565129339E-01  0.51100000000E-03 0. -1.
         11    1    4    4    0    0  0.21921444325E-01 -0.15216990681E-01  0.27776017803E-01  0.38521095683E-01  0.51100000000E-03 0.  1.
</event>
<event>
 8    1  0.1078274E+005  0.1043930E+01  0.7957747E-01            NaN
         13   -1    0    0    0    0  0.00000000000E+00  0.00000000000E+00  0.74505805969E-08  0.10566000000E+00  0.10566000000E+00 0.  1.
     999900   -1    0    0    0    0 -0.00000000000E+00 -0.00000000000E+00 -0.74505805969E-08  0.93827000000E+00  0.93827000000E+00 0. -1.
     999902    2    1    2    0    0 -0.12568705828E-01 -0.48303120628E-02 -0.20254739524E-01  0.10196080191E+01  0.10193178866E+01 0.  0.
     999903    2    3    3    0    0 -0.95703376931E-01 -0.84228810270E-01 -0.28884348644E-01  0.13208902484E+00  0.18962490611E-01 0.  0.
         14    1    1    2    0    0  0.12568705828E-01  0.48303120628E-02  0.20254739524E-01  0.24321980882E-01  0.00000000000E+00 0.  1.
     999901    1    3    3    0    0  0.83134671103E-01  0.79398498207E-01  0.86296091197E-02  0.88751899428E+00  0.88000000000E+00 0. -1.
        -11    1    4    4    0    0 -0.17433515828E-01 -0.87152922802E-02  0.23362602499E-03  0.19498704977E-01  0.51100000000E-03 0. -1.
         11    1    4    4    0    0 -0.78269861103E-01 -0.75513517989E-01 -0.29117974669E-01  0.11259031986E+00  0.51100000000E-03 0.  1.
</event>
<event>
 8    1  0.1078274E+005  0.1043930E+01  0.7957747E-01            NaN
         13   -1    0    0    0    0  0.00000000000E+00  0.00000000000E+00  0.74505805969E-08  0.10566000000E+00  0.10566000000E+00 0.  1.
     999900   -1    0    0    0    0 -0.00000000000E+00 -0.00000000000E+00 -0.74505805969E-08  0.93827000000E+00  0.93827000000E+00 0. -1.
     999902    2    1    2    0    0  0.46074764825E-02 -0.16870240229E-01 -0.18242702813E-01  0.10186588692E+01  0.10183453549E+01 0.  0.
     999903    2    3    3    0    0  0.11041304569E+00 -0.19095610123E-01  0.60280575546E-01  0.12884671152E+00  0.20298874266E-01 0.  0.
         14    1    1    2    0    0 -0.46074764825E-02  0.16870240229E-01  0.18242702813E-01  0.25271130779E-01  0.00000000000E+00 0.  1.
     999901    1    3    3    0    0 -0.10580556921E+00  0.22253698936E-02 -0.78523278359E-01  0.88981215770E+00  0.88000000000E+00 0. -1.
        -11    1    4    4    0    0  0.82673326273E-01 -0.20036652026E-01  0.52701728856E-01  0.10007037347E+00  0.51100000000E-03 0.  1.
         11    1    4    4    0    0  0.27739719419E-01  0.94104190291E-03  0.75788466902E-02  0.28776338048E-01  0.51100000000E-03 0. -1.
</event>
<event>
 8    1  0.1078274E+005  0.1043930E+01  0.7957747E-01            NaN
         13   -1    0    0    0    0  0.00000000000E+00  0.00000000000E+00  0.74505805969E-08  0.10566000000E+00  0.10566000000E+00 0. -1.
     999900   -1    0    0    0    0 -0.00000000000E+00 -0.00000000000E+00 -0.74505805969E-08  0.93827000000E+00  0.93827000000E+00 0.  1.
     999902    2    1    2    0    0 -0.15591556964E-01  0.17623085056E-01  0.60452724195E-02  0.10196356572E+01  0.10193461916E+01 0.  0.
     999903    2    3    3    0    0  0.33381519128E-01  0.12087131268E+00 -0.34013696571E-01  0.13134331807E+00  0.19233709952E-01 0.  0.
         14    1    1    2    0    0  0.15591556964E-01 -0.17623085056E-01 -0.60452724195E-02  0.24294342842E-01  0.00000000000E+00 0. -1.
     999901    1    3    3    0    0 -0.48973076093E-01 -0.10324822762E+00  0.40058968991E-01  0.88829233909E+00  0.88000000000E+00 0.  1.
        -11    1    4    4    0    0  0.22604894820E-01  0.70281730990E-01 -0.10683488606E-01  0.74598264259E-01  0.51100000000E-03 0. -1.
         11    1    4    4    0    0  0.10776624308E-01  0.50589581690E-01 -0.23330207966E-01  0.56745053809E-01  0.51100000000E-03 0.  1.
</event>
<event>
 8    1  0.1078274E+005  0.1043930E+01  0.7957747E-01            NaN
         13   -1    0    0    0    0  0.00000000000E+00  0.00000000000E+00  0.74505805969E-08  0.10566000000E+00  0.10566000000E+00 0.  1.
     999900   -1    0    0    0    0 -0.00000000000E+00 -0.00000000000E+00 -0.74505805969E-08  0.93827000000E+00  0.93827000000E+00 0.  1.
     999902    2    1    2    0    0 -0.40165025658E-02  0.22673484231E-01  0.11553112364E-02  0.10208745468E+01  0.10206141711E+01 0.  0.
     999903    2    3    3    0    0 -0.34060758988E-01 -0.11088221837E+00  0.52547898593E-01  0.12880897682E+00  0.19377027852E-01 0.  0.
         14    1    1    2    0    0  0.40165025658E-02 -0.22673484231E-01 -0.11553112364E-02  0.23055453240E-01  0.00000000000E+00 0. -1.
     999901    1    3    3    0    0  0.30044256422E-01  0.13355570260E+00 -0.51392587356E-01  0.89206556994E+00  0.88000000000E+00 0. -1.
        -11    1    4    4    0    0 -0.33245766548E-01 -0.93017170161E-01  0.50073107068E-01  0.11074769573E+00  0.51100000000E-03 0.  1.
         11    1    4    4    0    0 -0.81499243985E-03 -0.17865048211E-01  0.24747915244E-02  0.18061281083E-01  0.51100000000E-03 0. -1.
</event>
<event>
 8    1  0.1078274E+005  0.1043930E+01  0.7957747E-01            NaN
         13   -1    0    0    0    0  0.00000000000E+00  0.00000000000E+00  0.74505805969E-08  0.10566000000E+00  0.10566000000E+00 0.  1.
     999900   -1    0    0    0    0 -0.00000000000E+00 -0.00000000000E+00 -0.74505805969E-08  0.93827000000E+00  0.93827000000E+00 0. -1.
     999902    2    1    2    0    0  0.12807381214E-01  0.42340291245E-02 -0.19411047766E-01  0.10202922169E+01  0.10200183641E+01 0.  0.
     999903    2    3    3    0    0 -0.59719619648E-01 -0.80788987170E-01 -0.81843786627E-01  0.13103020484E+00  0.19422042925E-01 0.  0.
         14    1    1    2    0    0 -0.12807381214E-01 -0.42340291245E-02  0.19411047766E-01  0.23637783136E-01  0.00000000000E+00 0.  1.
     999901    1    3    3    0    0  0.72527000861E-01  0.85023016294E-01  0.62432738861E-01  0.88926201203E+00  0.88000000000E+00 0.  1.
        -11    1    4    4    0    0 -0.13042297063E-03 -0.89754223809E-02 -0.65424765040E-02  0.11119367647E-01  0.51100000000E-03 0. -1.
         11    1    4    4    0    0 -0.59589196677E-01 -0.71813564789E-01 -0.75301310123E-01  0.11991083719E+00  0.51100000000E-03 0.  1.
</event>
<event>
 8    1  0.1078274E+005  0.1043930E+01  0.7957747E-01            NaN
         13   -1    0    0    0    0  0.00000000000E+00  0.00000000000E+00  0.74505805969E-08  0.10566000000E+00  0.10566000000E+00 0. -1.
     999900   -1    0    0    0    0 -0.00000000000E+00 -0.00000000000E+00 -0.74505805969E-08  0.93827000000E+00  0.93827000000E+00 0.  1.
     999902    2    1    2    0    0 -0.39593228768E-02  0.19638825402E-01 -0.12608629742E-01  0.10202585563E+01  0.10199839139E+01 0.  0.
     999903    2    3    3    0    0  0.10515833007E-01  0.11797708842E+00  0.54915270807E-01  0.13209223112E+00  0.20087170492E-01 0.  0.
         14    1    1    2    0    0  0.39593228768E-02 -0.19638825402E-01  0.12608629742E-01  0.23671443656E-01  0.00000000000E+00 0. -1.
     999901    1    3    3    0    0 -0.14475155883E-01 -0.98338263021E-01 -0.67523900548E-01  0.88816632522E+00  0.88000000000E+00 0.  1.
        -11    1    4    4    0    0 -0.15107634750E-02  0.45523947078E-01  0.29963454120E-01  0.54523223195E-01  0.51100000000E-03 0.  1.
         11    1    4    4    0    0  0.12026596482E-01  0.72453141346E-01  0.24951816687E-01  0.77569007927E-01  0.51100000000E-03 0. -1.
</event>
<event>
 8    1  0.1078274E+005  0.1043930E+01  0.7957747E-01            NaN
         13   -1    0    0    0    0  0.00000000000E+00  0.00000000000E+00  0.74505805969E-08  0.10566000000E+00  0.10566000000E+00 0. -1.
     999900   -1    0    0    0    0 -0.00000000000E+00 -0.00000000000E+00 -0.74505805969E-08  0.93827000000E+00  0.93827000000E+00 0.  1.
     999902    2    1    2    0    0  0.11426315771E-01 -0.15748734785E-01 -0.12986218436E-01  0.10205371548E+01  0.10202690131E+01 0.  0.
     999903    2    3    3    0    0 -0.37187142366E-01 -0.12529779778E+00 -0.13589467552E-02  0.13233703149E+00  0.20708005273E-01 0.  0.
         14    1    1    2    0    0 -0.11426315771E-01  0.15748734785E-01  0.12986218436E-01  0.23392845246E-01  0.00000000000E+00 0. -1.
     999901    1    3    3    0    0  0.48613458137E-01  0.10954906299E+00 -0.11627271680E-01  0.88820012326E+00  0.88000000000E+00 0. -1.
        -11    1    4    4    0    0 -0.11931479057E-01 -0.34796228620E-01 -0.95851464705E-02  0.38016757785E-01  0.51100000000E-03 0.  1.
         11    1    4    4    0    0 -0.25255663308E-01 -0.90501569160E-01  0.82261997153E-02  0.94320273708E-01  0.51100000000E-03 0. -1.
</event>
<event>
 8    1  0.1078274E+005  0.1043930E+01  0.7957747E-01            NaN
         13   -1    0    0    0    0  0.00000000000E+00  0.00000000000E+00  0.74505805969E-08  0.10566000000E+00  0.10566000000E+00 0.  1.
     999900   -1    0    0    0    0 -0.00000000000E+00 -0.00000000000E+00 -0.74505805969E-08  0.93827000000E+00  0.93827000000E+00 0. -1.
     999902    2    1    2    0    0 -0.49860563157E-03  0.18538141115E-01  0.15000183657E-01  0.10200780233E+01  0.10197991257E+01 0.  0.
     999903    2    3    3    0    0 -0.11655560116E+00  0.36953371869E-01  0.44912399124E-01  0.13176327750E+00  0.19841316733E-01 0.  0.
         14    1    1    2    0    0  0.49860563157E-03 -0.18538141115E-01 -0.15000183657E-01  0.23851976717E-01  0.00000000000E+00 0. -1.
     999901    1    3    3    0    0  0.11605699553E+00 -0.18415230754E-01 -0.29912215466E-01  0.88831474578E+00  0.88000000000E+00 0. -1.
        -11    1    4    4    0    0 -0.82539343284E-01  0.32706935315E-01  0.39000811347E-01  0.96973249993E-01  0.51100000000E-03 0.  1.
         11    1    4    4    0    0 -0.34016257874E-01  0.42464365534E-02  0.59115877770E-02  0.34790027511E-01  0.51100000000E-03 0. -1.
</event>
<event>
 8    1  0.1078274E+005  0.1043930E+01  0.7957747E-01            NaN
         13   -1    0    0    0    0  0.00000000000E+00  0.00000000000E+00  0.74505805969E-08  0.10566000000E+00  0.10566000000E+00 0.  1.
     999900   -1    0    0    0    0 -0.00000000000E+00 -0.00000000000E+00 -0.74505805969E-08  0.93827000000E+00  0.93827000000E+00 0.  1.
     999902    2    1    2    0    0 -0.17114634908E-01  0.13278517118E-01 -0.94725850183E-02  0.10202876733E+01  0.10200137140E+01 0.  0.
     999903    2    3    3    0    0  0.11635358427E-01  0.12682127185E+00 -0.24253117875E-01  0.13240424434E+00  0.26900811040E-01 0.  0.
         14    1    1    2    0    0  0.17114634908E-01 -0.13278517118E-01  0.94725850183E-02  0.23642326701E-01  0.00000000000E+00 0.  1.
     999901    1    3    3    0    0 -0.28749993335E-01 -0.11354275473E+00  0.14780532857E-01  0.88788342896E+00  0.88000000000E+00 0. -1.
        -11    1    4    4    0    0 -0.30804355042E-02  0.51358083686E-01  0.10430675488E-02  0.51463491465E-01  0.51100000000E-03 0. -1.
         11    1    4    4    0    0  0.14715793932E-01  0.75463188159E-01 -0.25296185424E-01  0.80940752876E-01  0.51100000000E-03 0.  1.
</event>
<event>
 8    1  0.1078274E+005  0.1043930E+01  0.7957747E-01            NaN
         13   -1    0    0    0    0  0.00000000000E+00  0.00000000000E+00  0.74505805969E-08  0.10566000000E+00  0.10566000000E+00 0. -1.
     999900   -1    0    0    0    0 -0.00000000000E+00 -0.00000000000E+00 -0.74505805969E-08  0.93827000000E+00  0.93827000000E+00 0. -1.
     999902    2    1    2    0    0  0.25439172122E-02 -0.79146545558E-02  0.22003088776E-01  0.10204087503E+01  0.10201376223E+01 0.  0.
     999903    2    3    3    0    0 -0.34986336651E-02  0.49838474130E-01 -0.11587245431E+00  0.12778251179E+00  0.20145240399E-01 0.  0.
         14    1    1    2    0    0 -0.25439172122E-02  0.79146545558E-02 -0.22003088776E-01  0.23521249695E-01  0.00000000000E+00 0.  1.
     999901    1    3    3    0    0  0.60425508774E-02 -0.57753128686E-01  0.13787554309E+00  0.89262623851E+00  0.88000000000E+00 0.  1.
        -11    1    4    4    0    0 -0.91480766575E-02  0.44007809108E-01 -0.89030577653E-01  0.99735046234E-01  0.51100000000E-03 0. -1.
         11    1    4    4    0    0  0.56494429924E-02  0.58306650223E-02 -0.26841876661E-01  0.28047465561E-01  0.51100000000E-03 0.  1.
</event>
<event>
 8    1  0.1078274E+005  0.1043930E+01  0.7957747E-01            NaN
         13   -1    0    0    0    0  0.00000000000E+00  0.00000000000E+00  0.74505805969E-08  0.10566000000E+00  0.10566000000E+00 0.  1.
     999900   -1    0    0    0    0 -0.00000000000E+00 -0.00000000000E+00 -0.74505805969E-08  0.93827000000E+00  0.93827000000E+00 0.  1.
     999902    2    1    2    0    0  0.36688246090E-02 -0.16034237950E-01 -0.17273676242E-01  0.10200776007E+01  0.10197986931E+01 0.  0.
     999903    2    3    3    0    0 -0.10281450872E+00  0.74628511201E-01  0.59254113713E-02  0.12873219515E+00  0.19915563764E-01 0.  0.
         14    1    1    2    0    0 -0.36688246090E-02  0.16034237950E-01  0.17273676242E-01  0.23852399284E-01  0.00000000000E+00 0.  1.
     999901    1    3    3    0    0  0.10648333333E+00 -0.90662749151E-01 -0.23199087614E-01  0.89134540557E+00  0.88000000000E+00 0. -1.
        -11    1    4    4    0    0 -0.52138901532E-01  0.49959667331E-01  0.22144789235E-02  0.72246788514E-01  0.51100000000E-03 0.  1.
         11    1    4    4    0    0 -0.50675607190E-01  0.24668843870E-01  0.37109324478E-02  0.56485406634E-01  0.51100000000E-03 0. -1.
</event>
<event>
 8    1  0.1078274E+005  0.1043930E+01  0.7957747E-01            NaN
         13   -1    0    0    0    0  0.00000000000E+00  0.00000000000E+00  0.74505805969E-08  0.10566000000E+00  0.10566000000E+00 0.  1.
     999900   -1    0    0    0    0 -0.00000000000E+00 -0.00000000000E+00 -0.74505805969E-08  0.93827000000E+00  0.93827000000E+00 0. -1.
     999902    2    1    2    0    0  0.20061518187E-01  0.12607094860E-01 -0.14272431531E-02  0.10201931010E+01  0.10199169196E+01 0.  0.
     999903    2    3    3    0    0  0.11580228406E+00  0.52699029232E-01  0.34608457484E-01  0.13336040582E+00  0.19997395720E-01 0.  0.
         14    1    1    2    0    0 -0.20061518187E-01 -0.12607094860E-01  0.14272431531E-02  0.23736899035E-01  0.00000000000E+00 0.  1.
     999901    1    3    3    0    0 -0.95740765876E-01 -0.40091934371E-01 -0.36035700637E-01  0.88683269514E+00  0.88000000000E+00 0. -1.
        -11    1    4    4    0    0  0.77989249761E-01  0.26111771536E-01  0.26628562568E-01  0.86449344453E-01  0.51100000000E-03 0. -1.
         11    1    4    4    0    0  0.37813034303E-01  0.26587257696E-01  0.79798949162E-02  0.46911061370E-01  0.51100000000E-03 0.  1.
</event>
<event>
 8    1  0.1078274E+005  0.1043930E+01  0.7957747E-01            NaN
         13   -1    0    0    0    0  0.00000000000E+00  0.00000000000E+00  0.74505805969E-08  0.10566000000E+00  0.10566000000E+00 0.  1.
     999900   -1    0    0    0    0 -0.00000000000E+00 -0.00000000000E+00 -0.74505805969E-08  0.93827000000E+00  0.93827000000E+00 0.  1.
     999902    2    1    2    0    0  0.16167098797E-02  0.19005067306E-01  0.11443794656E-01  0.10216866466E+01  0.10214444856E+01 0.  0.
     999903    2    3    3    0    0 -0.55549704669E-01  0.79266209816E-01 -0.87914280031E-01  0.13220846742E+00  0.19525791036E-01 0.  0.
         14    1    1    2    0    0 -0.16167098797E-02 -0.19005067306E-01 -0.11443794656E-01  0.22243353395E-01  0.00000000000E+00 0. -1.
     999901    1    3    3    0    0  0.57166414549E-01 -0.60261142510E-01  0.99358074686E-01  0.88947817919E+00  0.88000000000E+00 0. -1.
        -11    1    4    4    0    0  0.51175597716E-03  0.30617075964E-02 -0.71720556733E-02  0.78316952932E-02  0.51100000000E-03 0. -1.
         11    1    4    4    0    0 -0.56061460646E-01  0.76204502220E-01 -0.80742224358E-01  0.12437677212E+00  0.51100000000E-03 0.  1.
</event>
<event>
 8    1  0.1078274E+005  0.1043930E+01  0.7957747E-01            NaN
         13   -1    0    0    0    0  0.00000000000E+00  0.00000000000E+00  0.74505805969E-08  0.10566000000E+00  0.10566000000E+00 0.  1.
     999900   -1    0    0    0    0 -0.00000000000E+00 -0.00000000000E+00 -0.74505805969E-08  0.93827000000E+00  0.93827000000E+00 0.  1.
     999902    2    1    2    0    0  0.22863169227E-01 -0.94054031074E-02  0.91476332279E-03  0.10191909033E+01  0.10188906096E+01 0.  0.
     999903    2    3    3    0    0 -0.39710979529E-01  0.11742763247E+00 -0.23119743939E-01  0.12757450564E+00  0.19352549358E-01 0.  0.
         14    1    1    2    0    0 -0.22863169227E-01  0.94054031074E-02 -0.91476332279E-03  0.24739096722E-01  0.00000000000E+00 0. -1.
     999901    1    3    3    0    0  0.62574148756E-01 -0.12683303557E+00  0.24034507262E-01  0.89161639764E+00  0.88000000000E+00 0. -1.
        -11    1    4    4    0    0 -0.15598552435E-01  0.23407769243E-01 -0.86814488150E-02  0.29442608131E-01  0.51100000000E-03 0. -1.
         11    1    4    4    0    0 -0.24112427094E-01  0.94019863223E-01 -0.14438295124E-01  0.98131897505E-01  0.51100000000E-03 0.  1.
</event>
<event>
 8    1  0.1080855E+005  0.1043930E+01  0.7957747E-01            NaN
         13   -1    0    0    0    0  0.00000000000E+00  0.00000000000E+00  0.74505805969E-08  0.10566000000E+00  0.10566000000E+00 0. -1.
     999900   -1    0    0    0    0 -0.00000000000E+00 -0.00000000000E+00 -0.74505805969E-08  0.93827000000E+00  0.93827000000E+00 0. -1.
     999902    2    1    2    0    0  0.11298049143E-01 -0.44990910879E-02 -0.18849685811E-01  0.10214979161E+01  0.10212515822E+01 0.  0.
     999903    2    3    3    0    0  0.68718853175E-01  0.84822576679E-01 -0.73997756121E-01  0.13340061354E+00  0.20072505724E-01 0.  0.
         14    1    1    2    0    0 -0.11298049143E-01  0.44990910879E-02  0.18849685811E-01  0.22432083948E-01  0.00000000000E+00 0. -1.
     999901    1    3    3    0    0 -0.57420804032E-01 -0.89321667767E-01  0.55148070310E-01  0.88809730251E+00  0.88000000000E+00 0.  1.
        -11    1    4    4    0    0  0.14408275107E-01  0.32598562319E-01 -0.23249567102E-01  0.42556646346E-01  0.51100000000E-03 0. -1.
         11    1    4    4    0    0  0.54310578068E-01  0.52224014360E-01 -0.50748189019E-01  0.90843967195E-01  0.51100000000E-03 0.  1.
</event>
<event>
 8    1  0.1078274E+005  0.1043930E+01  0.7957747E-01            NaN
         13   -1    0    0    0    0  0.00000000000E+00  0.00000000000E+00  0.74505805969E-08  0.10566000000E+00  0.10566000000E+00 0. -1.
     999900   -1    0    0    0    0 -0.00000000000E+00 -0.00000000000E+00 -0.74505805969E-08  0.93827000000E+00  0.93827000000E+00 0. -1.
     999902    2    1    2    0    0  0.99684261440E-02 -0.70183125943E-02  0.20475832708E-01  0.10200996421E+01  0.10198212559E+01 0.  0.
     999903    2    3    3    0    0 -0.87314344434E-01  0.36334243610E-01  0.88505835007E-01  0.13107126080E+00  0.20060423108E-01 0.  0.
         14    1    1    2    0    0 -0.99684261440E-02  0.70183125943E-02 -0.20475832708E-01  0.23830357877E-01  0.00000000000E+00 0.  1.
     999901    1    3    3    0    0  0.97282770578E-01 -0.43352556204E-01 -0.68030002299E-01  0.88902838132E+00  0.88000000000E+00 0. -1.
        -11    1    4    4    0    0 -0.81414148240E-01  0.30394614081E-01  0.73229896672E-01  0.11364407150E+00  0.51100000000E-03 0.  1.
         11    1    4    4    0    0 -0.59001961947E-02  0.59396295284E-02  0.15275938335E-01  0.17427189306E-01  0.51100000000E-03 0. -1.
</event>
<event>
 8    1  0.1078274E+005  0.1043930E+01  0.7957747E-01            NaN
         13   -1    0    0    0    0  0.00000000000E+00  0.00000000000E+00  0.74505805969E-08  0.10566000000E+00  0.10566000000E+00 0. -1.
     999900   -1    0    0    0    0 -0.00000000000E+00 -0.00000000000E+00 -0.74505805969E-08  0.93827000000E+00  0.93827000000E+00 0.  1.
     999902    2    1    2    0    0  0.21223722773E-01  0.76050544143E-02  0.86723578378E-02  0.10197743992E+01  0.10194882697E+01 0.  0.
     999903    2    3    3    0    0  0.45365873393E-01  0.11986060013E+00 -0.24619669610E-01  0.13169078257E+00  0.17655258459E-01 0.  0.
         14    1    1    2    0    0 -0.21223722773E-01 -0.76050544143E-02 -0.86723578378E-02  0.24155600830E-01  0.00000000000E+00 0.  1.
     999901    1    3    3    0    0 -0.24142150620E-01 -0.11225554571E+00  0.33292027448E-01  0.88808361660E+00  0.88000000000E+00 0. -1.
        -11    1    4    4    0    0  0.26874205881E-01  0.78238784332E-01 -0.24003077807E-01  0.86139068840E-01  0.51100000000E-03 0.  1.
         11    1    4    4    0    0  0.18491667512E-01  0.41621815795E-01 -0.61659180315E-03  0.45551713731E-01  0.51100000000E-03 0. -1.
</event>
<event>
 8    1  0.1078274E+005  0.1043930E+01  0.7957747E-01            NaN
         13   -1    0    0    0    0  0.00000000000E+00  0.00000000000E+00  0.74505805969E-08  0.10566000000E+00  0.10566000000E+00 0. -1.
     999900   -1    0    0    0    0 -0.00000000000E+00 -0.00000000000E+00 -0.74505805969E-08  0.93827000000E+00  0.93827000000E+00 0.  1.
     999902    2    1    2    0    0  0.20005881966E-01 -0.11886953464E-01 -0.39002752436E-02  0.10203345105E+01  0.10200616483E+01 0.  0.
     999903    2    3    3    0    0 -0.71704767927E-01  0.10400429838E+00  0.45106272847E-02  0.12797114910E+00  0.19944959724E-01 0.  0.
         14    1    1    2    0    0 -0.20005881966E-01  0.11886953464E-01  0.39002752436E-02  0.23595489460E-01  0.00000000000E+00 0. -1.
     999901    1    3    3    0    0  0.91710649893E-01 -0.11589125185E+00 -0.84109025283E-02  0.89236336144E+00  0.88000000000E+00 0. -1.
        -11    1    4    4    0    0 -0.31923939833E-01  0.30490559418E-01  0.45542368804E-02  0.44382590536E-01  0.51100000000E-03 0.  1.
         11    1    4    4    0    0 -0.39780828094E-01  0.73513738963E-01 -0.43609595688E-04  0.83588558565E-01  0.51100000000E-03 0. -1.
</event>
<event>
 8    1  0.1078274E+005  0.1043930E+01  0.7957747E-01            NaN
         13   -1    0    0    0    0  0.00000000000E+00  0.00000000000E+00  0.74505805969E-08  0.10566000000E+00  0.10566000000E+00 0. -1.
     999900   -1    0    0    0    0 -0.00000000000E+00 -0.00000000000E+00 -0.74505805969E-08  0.93827000000E+00  0.93827000000E+00 0. -1.
     999902    2    1    2    0    0 -0.71604464635E-02  0.22391323022E-01 -0.33622072341E-02  0.10201824153E+01  0.10199059823E+01 0.  0.
     999903    2    3    3    0    0  0.66786797909E-01  0.55711468977E-01  0.96616692574E-01  0.13081510792E+00  0.14613795747E-01 0.  0.
         14    1    1    2    0    0  0.71604464635E-02 -0.22391323022E-01  0.33622072341E-02  0.23747584672E-01  0.00000000000E+00 0.  1.
     999901    1    3    3    0    0 -0.73947244373E-01 -0.33320145955E-01 -0.99978899808E-01  0.88936730741E+00  0.88000000000E+00 0. -1.
        -11    1    4    4    0    0  0.46632932486E-01  0.35082885604E-01  0.73500814172E-01  0.93851318901E-01  0.51100000000E-03 0.  1.
         11    1    4    4    0    0  0.20153865423E-01  0.20628583373E-01  0.23115878402E-01  0.36963789021E-01  0.51100000000E-03 0. -1.
</event>
<event>
 7    1  0.1078274E+005  0.1043930E+01  0.7957747E-01            NaN
         13   -1    0    0    0    0  0.00000000000E+00  0.00000000000E+00  0.74505805969E-08  0.10566000000E+00  0.10566000000E+00 0.  1.
     999900   -1    0    0    0    0 -0.00000000000E+00 -0.00000000000E+00 -0.74505805969E-08  0.93827000000E+00  0.93827000000E+00 0.  1.
     999903    2    1    2    0    0 -0.17235838439E-01  0.60118686873E-02 -0.10217252050E+00  0.10523509915E+00  0.17377728726E-01 0.  0.
         14    1    1    2    0    0 -0.34712879724E-01  0.34670858675E-01 -0.67657004387E-02  0.49526025102E-01  0.00000000000E+00 0. -1.
     999901    1    1    2    0    0  0.51948718164E-01 -0.40682727362E-01  0.10893822094E+00  0.88916887575E+00  0.88000000000E+00 0. -1.
        -11    1    3    3    0    0 -0.89711995859E-02  0.61173438395E-04 -0.15129520668E-01  0.17596865654E-01  0.51100000000E-03 0.  1.
         11    1    3    3    0    0 -0.82646388535E-02  0.59506952489E-02 -0.87042999829E-01  0.87638233492E-01  0.51100000000E-03 0. -1.
</event>
<event>
 8    1  0.1078274E+005  0.1043930E+01  0.7957747E-01            NaN
         13   -1    0    0    0    0  0.00000000000E+00  0.00000000000E+00  0.74505805969E-08  0.10566000000E+00  0.10566000000E+00 0. -1.
     999900   -1    0    0    0    0 -0.00000000000E+00 -0.00000000000E+00 -0.74505805969E-08  0.93827000000E+00  0.93827000000E+00 0.  1.
     999902    2    1    2    0    0 -0.79567610521E-02  0.13145039743E-01 -0.15538107786E-01  0.10220774278E+01  0.10218437912E+01 0.  0.
     999903    2    3    3    0    0  0.89875370749E-01 -0.10133678306E-01  0.91214664706E-01  0.12994000616E+00  0.19596337446E-01 0.  0.
         14    1    1    2    0    0  0.79567610521E-02 -0.13145039743E-01  0.15538107786E-01  0.21852572156E-01  0.00000000000E+00 0. -1.
     999901    1    3    3    0    0 -0.97832131801E-01  0.23278718049E-01 -0.10675277249E+00  0.89213742168E+00  0.88000000000E+00 0.  1.
        -11    1    4    4    0    0  0.33886122162E-01 -0.17672704394E-02  0.21666379431E-01  0.40262707791E-01  0.51100000000E-03 0. -1.
         11    1    4    4    0    0  0.55989248586E-01 -0.83664078669E-02  0.69548285274E-01  0.89677298373E-01  0.51100000000E-03 0.  1.
</event>
<event>
 8    1  0.1078274E+005  0.1043930E+01  0.7957747E-01            NaN
         13   -1    0    0    0    0  0.00000000000E+00  0.00000000000E+00  0.74505805969E-08  0.10566000000E+00  0.10566000000E+00 0.  1.
     999900   -1    0    0    0    0 -0.00000000000E+00 -0.00000000000E+00 -0.74505805969E-08  0.93827000000E+00  0.93827000000E+00 0. -1.
     999902    2    1    2    0    0  0.70008027365E-03  0.23186927967E-01 -0.37618813655E-02  0.10204294576E+01  0.10201588124E+01 0.  0.
     999903    2    3    3    0    0 -0.11618032359E+00 -0.60549089712E-02  0.55044882309E-01  0.13027534215E+00  0.20179102834E-01 0.  0.
         14    1    1    2    0    0 -0.70008027365E-03 -0.23186927967E-01  0.37618813655E-02  0.23500542384E-01  0.00000000000E+00 0.  1.
     999901    1    3    3    0    0  0.11688040386E+00  0.29241836938E-01 -0.58806763674E-01  0.89015411547E+00  0.88000000000E+00 0.  1.
        -11    1    4    4    0    0 -0.64213968924E-01 -0.22477559314E-02  0.41304953393E-01  0.76386166990E-01  0.51100000000E-03 0.  1.
         11    1    4    4    0    0 -0.51966354664E-01 -0.38071530398E-02  0.13739928916E-01  0.53889175156E-01  0.51100000000E-03 0. -1.
</event>
<event>
 8    1  0.1078274E+005  0.1043930E+01  0.7957747E-01            NaN
         13   -1    0    0    0    0  0.00000000000E+00  0.00000000000E+00  0.74505805969E-08  0.10566000000E+00  0.10566000000E+00 0.  1.
     999900   -1    0    0    0    0 -0.00000000000E+00 -0.00000000000E+00 -0.74505805969E-08  0.93827000000E+00  0.93827000000E+00 0. -1.
     999902    2    1    2    0    0 -0.21270159663E-01  0.53983537519E-02  0.84838390557E-02  0.10204026236E+01  0.10201313527E+01 0.  0.
     999903    2    3    3    0    0 -0.37483882986E-01  0.97619627578E-01 -0.76833083533E-01  0.13133197092E+00  0.20251683596E-01 0.  0.
         14    1    1    2    0    0  0.21270159663E-01 -0.53983537519E-02 -0.84838390557E-02  0.23527376404E-01  0.00000000000E+00 0. -1.
     999901    1    3    3    0    0  0.16213723323E-01 -0.92221273826E-01  0.85316922589E-01  0.88907065268E+00  0.88000000000E+00 0.  1.
        -11    1    4    4    0    0 -0.11820350543E-01  0.13996402764E-01 -0.78831119348E-02  0.19950552676E-01  0.51100000000E-03 0.  1.
         11    1    4    4    0    0 -0.25663532442E-01  0.83623224814E-01 -0.68949971598E-01  0.11138141824E+00  0.51100000000E-03 0. -1.
</event>
<event>
 8    1  0.1078274E+005  0.1043930E+01  0.7957747E-01            NaN
         13   -1    0    0    0    0  0.00000000000E+00  0.00000000000E+00  0.74505805969E-08  0.10566000000E+00  0.10566000000E+00 0. -1.
     999900   -1    0    0    0    0 -0.00000000000E+00 -0.00000000000E+00 -0.74505805969E-08  0.93827000000E+00  0.93827000000E+00 0.  1.
     999902    2    1    2    0    0  0.11833095311E-01  0.15571059015E-01 -0.53242469247E-02  0.10236611167E+01  0.10234604312E+01 0.  0.
     999903    2    3    3    0    0 -0.76769447696E-02 -0.12365047968E+00  0.38509766921E-01  0.13142532992E+00  0.21005679973E-01 0.  0.
         14    1    1    2    0    0 -0.11833095311E-01 -0.15571059015E-01  0.53242469247E-02  0.20268883265E-01  0.00000000000E+00 0. -1.
     999901    1    3    3    0    0  0.19510040081E-01  0.13922153869E+00 -0.43834013845E-01  0.89223578681E+00  0.88000000000E+00 0.  1.
        -11    1    4    4    0    0 -0.14387620055E-02 -0.12991290678E-01 -0.23643576234E-02  0.13292666307E-01  0.51100000000E-03 0.  1.
         11    1    4    4    0    0 -0.62381827641E-02 -0.11065918900E+00  0.40874124544E-01  0.11813266361E+00  0.51100000000E-03 0. -1.
</event>
<event>
 8    1  0.1078274E+005  0.1043930E+01  0.7957747E-01            NaN
         13   -1    0    0    0    0  0.00000000000E+00  0.00000000000E+00  0.74505805969E-08  0.10566000000E+00  0.10566000000E+00 0.  1.
     999900   -1    0    0    0    0 -0.00000000000E+00 -0.00000000000E+00 -0.74505805969E-08  0.93827000000E+00  0.93827000000E+00 0. -1.
     999902    2    1    2    0    0 -0.18637612995E-02  0.15448661046E-01  0.18907189142E-01  0.10194429313E+01  0.10191487985E+01 0.  0.
     999903    2    3    3    0    0 -0.39425022377E-01 -0.13236869332E-01 -0.11888754148E+00  0.12746698104E+00  0.19596852695E-01 0.  0.
         14    1    1    2    0    0  0.18637612995E-02 -0.15448661046E-01 -0.18907189142E-01  0.24487068741E-01  0.00000000000E+00 0. -1.
     999901    1    3    3    0    0  0.37561261078E-01  0.28685530378E-01  0.13779473062E+00  0.89197595022E+00  0.88000000000E+00 0.  1.
        -11    1    4    4    0    0 -0.27493221139E-01 -0.18025419176E-01 -0.79492345267E-01  0.86023758474E-01  0.51100000000E-03 0. -1.
         11    1    4    4    0    0 -0.11931801239E-01  0.47885498446E-02 -0.39395196217E-01  0.41443222562E-01  0.51100000000E-03 0.  1.
</event>
<event>
 8    1  0.1078274E+005  0.1043930E+01  0.7957747E-01            NaN
         13   -1    0    0    0    0  0.00000000000E+00  0.00000000000E+00  0.74505805969E-08  0.10566000000E+00  0.10566000000E+00 0.  1.
     999900   -1    0    0    0    0 -0.00000000000E+00 -0.00000000000E+00 -0.74505805969E-08  0.93827000000E+00  0.93827000000E+00 0.  1.
     999902    2    1    2    0    0 -0.17897331732E-02  0.37376732511E-02 -0.24861022253E-01  0.10187259572E+01  0.10184141260E+01 0.  0.
     999903    2    3    3    0    0 -0.62145440308E-01 -0.10407775867E+00 -0.43225834766E-01  0.12990412742E+00  0.17674103328E-01 0.  0.
         14    1    1    2    0    0  0.17897331732E-02 -0.37376732511E-02  0.24861022253E-01  0.25204042803E-01  0.00000000000E+00 0.  1.
     999901    1    3    3    0    0  0.60355707135E-01  0.10781543193E+00  0.18364812513E-01  0.88882182977E+00  0.88000000000E+00 0.  1.
        -11    1    4    4    0    0 -0.16012276828E-01 -0.23081804331E-01 -0.17887719219E-01  0.33307571515E-01  0.51100000000E-03 0.  1.
         11    1    4    4    0    0 -0.46133163480E-01 -0.80995954343E-01 -0.25338115547E-01  0.96596555907E-01  0.51100000000E-03 0. -1.
</event>
<event>
 8    1  0.1078274E+005  0.1043930E+01  0.7957747E-01            NaN
         13   -1    0    0    0    0  0.00000000000E+00  0.00000000000E+00  0.74505805969E-08  0.10566000000E+00  0.10566000000E+00 0. -1.
     999900   -1    0    0    0    0 -0.00000000000E+00 -0.00000000000E+00 -0.74505805969E-08  0.93827000000E+00  0.93827000000E+00 0. -1.
     999902    2    1    2    0    0  0.21208940549E-01  0.82171694071E-02 -0.73239357832E-02  0.10200347899E+01  0.10197548683E+01 0.  0.
     999903    2    3    3    0    0  0.12263667664E+00  0.62401254916E-02  0.45494864311E-01  0.13263334745E+00  0.21050618808E-01 0.  0.
         14    1    1    2    0    0 -0.21208940549E-01 -0.82171694071E-02  0.73239357832E-02  0.23895210140E-01  0.00000000000E+00 0.  1.
     999901    1    3    3    0    0 -0.10142773610E+00  0.19770439155E-02 -0.52818800095E-01  0.88740144241E+00  0.88000000000E+00 0. -1.
        -11    1    4    4    0    0  0.11145570604E+00  0.50779502461E-02  0.47394110749E-01  0.12122137948E+00  0.51100000000E-03 0. -1.
         11    1    4    4    0    0  0.11180970602E-01  0.11621752455E-02 -0.18992464380E-02  0.11411967970E-01  0.51100000000E-03 0.  1.
</event>
<event>
 8    1  0.1078274E+005  0.1043930E+01  0.7957747E-01            NaN
         13   -1    0    0    0    0  0.00000000000E+00  0.00000000000E+00  0.74505805969E-08  0.10566000000E+00  0.10566000000E+00 0. -1.
     999900   -1    0    0    0    0 -0.00000000000E+00 -0.00000000000E+00 -0.74505805969E-08  0.93827000000E+00  0.93827000000E+00 0.  1.
     999902    2    1    2    0    0  0.47203864516E-02 -0.11932338275E-01 -0.21114766949E-01  0.10192217801E+01  0.10189222448E+01 0.  0.
     999903    2    3    3    0    0  0.48351599503E-01  0.30264978009E-01 -0.11721056552E+00  0.13191197024E+00  0.20213984116E-01 0.  0.
         14    1    1    2    0    0 -0.47203864516E-02  0.11932338275E-01  0.21114766949E-01  0.24708219852E-01  0.00000000000E+00 0. -1.
     999901    1    3    3    0    0 -0.43631213052E-01 -0.42197316284E-01  0.96095798575E-01  0.88730980991E+00  0.88000000000E+00 0. -1.
        -11    1    4    4    0    0  0.22488829137E-01  0.23174474634E-01 -0.77829449864E-01  0.84264394009E-01  0.51100000000E-03 0.  1.
         11    1    4    4    0    0  0.25862770366E-01  0.70905033747E-02 -0.39381115660E-01  0.47647576232E-01  0.51100000000E-03 0. -1.
</event>
<event>
 8    1  0.1078274E+005  0.1043930E+01  0.7957747E-01            NaN
         13   -1    0    0    0    0  0.00000000000E+00  0.00000000000E+00  0.74505805969E-08  0.10566000000E+00  0.10566000000E+00 0.  1.
     999900   -1    0    0    0    0 -0.00000000000E+00 -0.00000000000E+00 -0.74505805969E-08  0.93827000000E+00  0.93827000000E+00 0.  1.
     999902    2    1    2    0    0  0.24309716334E-01  0.43736821516E-02 -0.10077891529E-01  0.10172531317E+01  0.10169032789E+01 0.  0.
     999903    2    3    3    0    0  0.12234564486E+00  0.41522746883E-01 -0.61318825030E-02  0.13102140847E+00  0.20890528251E-01 0.  0.
         14    1    1    2    0    0 -0.24309716334E-01 -0.43736821516E-02  0.10077891529E-01  0.26676868285E-01  0.00000000000E+00 0. -1.
     999901    1    3    3    0    0 -0.98035928525E-01 -0.37149064731E-01 -0.39460090262E-02  0.88623172324E+00  0.88000000000E+00 0.  1.
        -11    1    4    4    0    0  0.93089453116E-01  0.21987075744E-01 -0.29949079548E-02  0.95699051071E-01  0.51100000000E-03 0.  1.
         11    1    4    4    0    0  0.29256191744E-01  0.19535671139E-01 -0.31369745482E-02  0.35322357403E-01  0.51100000000E-03 0. -1.
</event>
<event>
 8    1  0.1078274E+005  0.1043930E+01  0.7957747E-01            NaN
         13   -1    0    0    0    0  0.00000000000E+00  0.00000000000E+00  0.74505805969E-08  0.10566000000E+00  0.10566000000E+00 0. -1.
     999900   -1    0    0    0    0 -0.00000000000E+00 -0.00000000000E+00 -0.74505805969E-08  0.93827000000E+00  0.93827000000E+00 0. -1.
     999902    2    1    2    0    0  0.16029494652E-01 -0.13944702296E-01  0.15991781471E-01  0.10173379618E+01  0.10169903598E+01 0.  0.
     999903    2    3    3    0    0  0.28724561026E-01  0.11548685385E+00  0.36530207401E-01  0.12754274976E+00  0.27755776781E-01 0.  0.
         14    1    1    2    0    0 -0.16029494652E-01  0.13944702296E-01 -0.15991781471E-01  0.26592038198E-01  0.00000000000E+00 0.  1.
     999901    1    3    3    0    0 -0.12695066374E-01 -0.12943155615E+00 -0.20538425929E-01  0.88979521204E+00  0.88000000000E+00 0.  1.
        -11    1    4    4    0    0  0.24585777097E-01  0.54443408933E-01  0.27235786428E-01  0.65655117052E-01  0.51100000000E-03 0. -1.
         11    1    4    4    0    0  0.41387839298E-02  0.61043444917E-01  0.92944209720E-02  0.61887632706E-01  0.51100000000E-03 0.  1.
</event>
<event>
 8    1  0.1078274E+005  0.1043930E+01  0.7957747E-01            NaN
         13   -1    0    0    0    0  0.00000000000E+00  0.00000000000E+00  0.74505805969E-08  0.10566000000E+00  0.10566000000E+00 0. -1.
     999900   -1    0    0    0    0 -0.00000000000E+00 -0.00000000000E+00 -0.74505805969E-08  0.93827000000E+00  0.93827000000E+00 0.  1.
     999902    2    1    2    0    0  0.78613889862E-02 -0.22702647527E-01  0.27165908590E-04  0.10199047554E+01  0.10196217424E+01 0.  0.
     999903    2    3    3    0    0  0.63421973690E-01  0.49038350559E-01  0.99916483822E-01  0.12961737187E+00  0.19754816627E-01 0.  0.
         14    1    1    2    0    0 -0.78613889862E-02  0.22702647527E-01 -0.27165908590E-04  0.24025244630E-01  0.00000000000E+00 0. -1.
     999901    1    3    3    0    0 -0.55560584704E-01 -0.71740998086E-01 -0.99889317913E-01  0.89028738350E+00  0.88000000000E+00 0. -1.
        -11    1    4    4    0    0  0.40987530592E-01  0.32763312620E-01  0.49795877441E-01  0.72341570684E-01  0.51100000000E-03 0.  1.
         11    1    4    4    0    0  0.22434443098E-01  0.16275037940E-01  0.50120606380E-01  0.57275801190E-01  0.51100000000E-03 0. -1.
</event>
<event>
 8    1  0.1078274E+005  0.1043930E+01  0.7957747E-01            NaN
         13   -1    0    0    0    0  0.00000000000E+00  0.00000000000E+00  0.74505805969E-08  0.10566000000E+00  0.10566000000E+00 0. -1.
     999900   -1    0    0    0    0 -0.00000000000E+00 -0.00000000000E+00 -0.74505805969E-08  0.93827000000E+00  0.93827000000E+00 0.  1.
     999902    2    1    2    0    0  0.78957837593E-02 -0.89453319409E-02  0.20006701660E-01  0.10206355698E+01  0.10203697055E+01 0.  0.
     999903    2    3    3    0    0  0.57499321254E-01 -0.11307440181E+00  0.34373789073E-01  0.13299274341E+00  0.20335194498E-01 0.  0.
         14    1    1    2    0    0 -0.78957837593E-02  0.89453319409E-02 -0.20006701660E-01  0.23294430150E-01  0.00000000000E+00 0.  1.
     999901    1    3    3    0    0 -0.49603537495E-01  0.10412906987E+00 -0.14367087413E-01  0.88764282644E+00  0.88000000000E+00 0. -1.
        -11    1    4    4    0    0  0.39169479745E-01 -0.88867322424E-01  0.33079115000E-01  0.10259696930E+00  0.51100000000E-03 0.  1.
         11    1    4    4    0    0  0.18329841509E-01 -0.24207079388E-01  0.12946740730E-02  0.30395774118E-01  0.51100000000E-03 0. -1.
</event>
<event>
 8    1  0.1078274E+005  0.1043930E+01  0.7957747E-01            NaN
         13   -1    0    0    0    0  0.00000000000E+00  0.00000000000E+00  0.74505805969E-08  0.10566000000E+00  0.10566000000E+00 0. -1.
     999900   -1    0    0    0    0 -0.00000000000E+00 -0.00000000000E+00 -0.74505805969E-08  0.93827000000E+00  0.93827000000E+00 0.  1.
     999902    2    1    2    0    0 -0.17411455704E-01  0.87325439448E-02  0.13128259099E-01  0.10204402724E+01  0.10201698792E+01 0.  0.
     999903    2    3    3    0    0  0.44236192494E-01 -0.93590247435E-01 -0.72771469801E-01  0.12822440754E+00  0.20732504223E-01 0.  0.
         14    1    1    2    0    0  0.17411455704E-01 -0.87325439448E-02 -0.13128259099E-01  0.23489727552E-01  0.00000000000E+00 0.  1.
     999901    1    3    3    0    0 -0.61647648198E-01  0.10232279138E+00  0.85899728900E-01  0.89221586491E+00  0.88000000000E+00 0. -1.
        -11    1    4    4    0    0  0.70663170524E-02 -0.49164525287E-02 -0.20440676765E-02  0.88624869996E-02  0.51100000000E-03 0. -1.
         11    1    4    4    0    0  0.37169875441E-01 -0.88673794906E-01 -0.70727402125E-01  0.11936192054E+00  0.51100000000E-03 0.  1.
</event>
<event>
 8    1  0.1078274E+005  0.1043930E+01  0.7957747E-01            NaN
         13   -1    0    0    0    0  0.00000000000E+00  0.00000000000E+00  0.74505805969E-08  0.10566000000E+00  0.10566000000E+00 0.  1.
     999900   -1    0    0    0    0 -0.00000000000E+00 -0.00000000000E+00 -0.74505805969E-08  0.93827000000E+00  0.93827000000E+00 0. -1.
     999902    2    1    2    0    0 -0.55242739939E-02  0.19270748231E-01  0.10814832594E-01  0.10211519416E+01  0.10208978636E+01 0.  0.
     999903    2    3    3    0    0  0.22898795721E-01  0.62166617637E-01  0.11420635803E+00  0.13360603629E+00  0.20455745515E-01 0.  0.
         14    1    1    2    0    0  0.55242739939E-02 -0.19270748231E-01 -0.10814832594E-01  0.22778058402E-01  0.00000000000E+00 0.  1.
     999901    1    3    3    0    0 -0.28423069715E-01 -0.42895869406E-01 -0.10339152543E+00  0.88754590531E+00  0.88000000000E+00 0. -1.
        -11    1    4    4    0    0  0.18990475936E-01  0.34871172727E-01  0.82664290017E-01  0.91707594171E-01  0.51100000000E-03 0. -1.
         11    1    4    4    0    0  0.39083197845E-02  0.27295444909E-01  0.31542068009E-01  0.41898442115E-01  0.51100000000E-03 0.  1.
</event>
<event>
 8    1  0.1078274E+005  0.1043930E+01  0.7957747E-01            NaN
         13   -1    0    0    0    0  0.00000000000E+00  0.00000000000E+00  0.74505805969E-08  0.10566000000E+00  0.10566000000E+00 0.  1.
     999900   -1    0    0    0    0 -0.00000000000E+00 -0.00000000000E+00 -0.74505805969E-08  0.93827000000E+00  0.93827000000E+00 0.  1.
     999902    2    1    2    0    0 -0.48849788160E-02 -0.13746075034E-01 -0.12527022773E-01  0.10247012742E+01  0.10245208428E+01 0.  0.
     999903    2    3    3    0    0 -0.34934492711E-01  0.71160090737E-01  0.10422588227E+00  0.13243266491E+00  0.19778748832E-01 0.  0.
         14    1    1    2    0    0  0.48849788160E-02  0.13746075034E-01  0.12527022773E-01  0.19228725814E-01  0.00000000000E+00 0.  1.
     999901    1    3    3    0    0  0.30049513895E-01 -0.84906165772E-01 -0.11675290504E+00  0.89226860928E+00  0.88000000000E+00 0.  1.
        -11    1    4    4    0    0 -0.35725510224E-01  0.58261358694E-01  0.82312425441E-01  0.10698735673E+00  0.51100000000E-03 0. -1.
         11    1    4    4    0    0  0.79101751354E-03  0.12898732043E-01  0.21913456825E-01  0.25445308173E-01  0.51100000000E-03 0.  1.
</event>
<event>
 8    1  0.1078274E+005  0.1043930E+01  0.7957747E-01            NaN
         13   -1    0    0    0    0  0.00000000000E+00  0.00000000000E+00  0.74505805969E-08  0.10566000000E+00  0.10566000000E+00 0. -1.
     999900   -1    0    0    0    0 -0.00000000000E+00 -0.00000000000E+00 -0.74505805969E-08  0.93827000000E+00  0.93827000000E+00 0. -1.
     999902    2    1    2    0    0 -0.55715871253E-03 -0.22822024119E-01 -0.64485542031E-02  0.10202078782E+01  0.10199320447E+01 0.  0.
     999903    2    3    3    0    0  0.82192402665E-01  0.40370266781E-01  0.88632846859E-01  0.12898331147E+00  0.19888780755E-01 0.  0.
         14    1    1    2    0    0  0.55715871253E-03  0.22822024119E-01  0.64485542031E-02  0.23722121786E-01  0.00000000000E+00 0. -1.
     999901    1    3    3    0    0 -0.82749561378E-01 -0.63192290900E-01 -0.95081401062E-01  0.89122456674E+00  0.88000000000E+00 0. -1.
        -11    1    4    4    0    0  0.51085830112E-01  0.15923624820E-01  0.58235158359E-01  0.79088043696E-01  0.51100000000E-03 0. -1.
         11    1    4    4    0    0  0.31106572553E-01  0.24446641961E-01  0.30397688500E-01  0.49895267775E-01  0.51100000000E-03 0.  1.
</event>
<event>
 8    1  0.1078274E+005  0.1043930E+01  0.7957747E-01            NaN
         13   -1    0    0    0    0  0.00000000000E+00  0.00000000000E+00  0.74505805969E-08  0.10566000000E+00  0.10566000000E+00 0. -1.
     999900   -1    0    0    0    0 -0.00000000000E+00 -0.00000000000E+00 -0.74505805969E-08  0.93827000000E+00  0.93827000000E+00 0.  1.
     999902    2    1    2    0    0 -0.28877913710E-02 -0.18988636642E-02  0.27497803150E-01  0.10162158484E+01  0.10158378691E+01 0.  0.
     999903    2    3    3    0    0  0.10089285104E+00 -0.70831036134E-01  0.23793582632E-01  0.12743252979E+00  0.21829154895E-01 0.  0.
         14    1    1    2    0    0  0.28877913710E-02  0.18988636642E-02 -0.27497803150E-01  0.27714151625E-01  0.00000000000E+00 0.  1.
     999901    1    3    3    0    0 -0.10378064241E+00  0.68932172470E-01  0.37042205184E-02  0.88878331858E+00  0.88000000000E+00 0.  1.
        -11    1    4    4    0    0  0.20261041693E-01 -0.98662850078E-02  0.12343579803E-01  0.25699775751E-01  0.51100000000E-03 0.  1.
         11    1    4    4    0    0  0.80631809349E-01 -0.60964751127E-01  0.11450002829E-01  0.10173275404E+00  0.51100000000E-03 0. -1.
</event>
<event>
 8    1  0.1078274E+005  0.1043930E+01  0.7957747E-01            NaN
         13   -1    0    0    0    0  0.00000000000E+00  0.00000000000E+00  0.74505805969E-08  0.10566000000E+00  0.10566000000E+00 0. -1.
     999900   -1    0    0    0    0 -0.00000000000E+00 -0.00000000000E+00 -0.74505805969E-08  0.93827000000E+00  0.93827000000E+00 0.  1.
     999902    2    1    2    0    0  0.12379371022E-01  0.56737210659E-03 -0.20345785799E-01  0.10201072853E+01  0.10198290796E+01 0.  0.
     999903    2    3    3    0    0  0.12612736536E+00 -0.27546117041E-01  0.15188803829E-01  0.13163011529E+00  0.20709578298E-01 0.  0.
         14    1    1    2    0    0 -0.12379371022E-01 -0.56737210659E-03  0.20345785799E-01  0.23822714745E-01  0.00000000000E+00 0. -1.
     999901    1    3    3    0    0 -0.11374799434E+00  0.28113489148E-01 -0.35534589628E-01  0.88847716996E+00  0.88000000000E+00 0. -1.
        -11    1    4    4    0    0  0.47087533295E-01 -0.73337405929E-02 -0.39790429961E-02  0.47823774914E-01  0.51100000000E-03 0.  1.
         11    1    4    4    0    0  0.79039832065E-01 -0.20212376448E-01  0.19167846825E-01  0.83806340377E-01  0.51100000000E-03 0. -1.
</event>
<event>
 8    1  0.1078274E+005  0.1043930E+01  0.7957747E-01            NaN
         13   -1    0    0    0    0  0.00000000000E+00  0.00000000000E+00  0.74505805969E-08  0.10566000000E+00  0.10566000000E+00 0. -1.
     999900   -1    0    0    0    0 -0.00000000000E+00 -0.00000000000E+00 -0.74505805969E-08  0.93827000000E+00  0.93827000000E+00 0. -1.
     999902    2    1    2    0    0  0.19002582926E-01 -0.12750368560E-01  0.51980262083E-02  0.10204632249E+01  0.10201933659E+01 0.  0.
     999903    2    3    3    0    0  0.85018103706E-01 -0.91231426410E-01  0.43980541319E-01  0.13365918292E+00  0.19474035070E-01 0.  0.
         14    1    1    2    0    0 -0.19002582926E-01  0.12750368560E-01 -0.51980262083E-02  0.23466775081E-01  0.00000000000E+00 0. -1.
     999901    1    3    3    0    0 -0.66015520780E-01  0.78481057850E-01 -0.38782515111E-01  0.88680404200E+00  0.88000000000E+00 0. -1.
        -11    1    4    4    0    0  0.17242005329E-01 -0.28101196740E-01  0.58249340036E-02  0.33483652476E-01  0.51100000000E-03 0. -1.
         11    1    4    4    0    0  0.67776098377E-01 -0.63130229669E-01  0.38155607315E-01  0.10017553044E+00  0.51100000000E-03 0.  1.
</event>
<event>
 8    1  0.1078274E+005  0.1043930E+01  0.7957747E-01            NaN
         13   -1    0    0    0    0  0.00000000000E+00  0.00000000000E+00  0.74505805969E-08  0.10566000000E+00  0.10566000000E+00 0.  1.
     999900   -1    0    0    0    0 -0.00000000000E+00 -0.00000000000E+00 -0.74505805969E-08  0.93827000000E+00  0.93827000000E+00 0. -1.
     999902    2    1    2    0    0  0.17489253597E-01 -0.12241204214E-01 -0.76183773267E-02  0.10212637091E+01  0.10210121462E+01 0.  0.
     999903    2    3    3    0    0 -0.51572902091E-01 -0.73282002542E-01 -0.95286256657E-01  0.13211736707E+00  0.18587948960E-01 0.  0.
         14    1    1    2    0    0 -0.17489253597E-01  0.12241204214E-01  0.76183773267E-02  0.22666290942E-01  0.00000000000E+00 0.  1.
     999901    1    3    3    0    0  0.69062155688E-01  0.61040798328E-01  0.87667879330E-01  0.88914634199E+00  0.88000000000E+00 0.  1.
        -11    1    4    4    0    0 -0.17527968520E-01 -0.35866103390E-01 -0.51849980207E-01  0.65439197896E-01  0.51100000000E-03 0.  1.
         11    1    4    4    0    0 -0.34044933571E-01 -0.37415899152E-01 -0.43436276450E-01  0.66678169171E-01  0.51100000000E-03 0. -1.
</event>
<event>
 8    1  0.1078274E+005  0.1043930E+01  0.7957747E-01            NaN
         13   -1    0    0    0    0  0.00000000000E+00  0.00000000000E+00  0.74505805969E-08  0.10566000000E+00  0.10566000000E+00 0.  1.
     999900   -1    0    0    0    0 -0.00000000000E+00 -0.00000000000E+00 -0.74505805969E-08  0.93827000000E+00  0.93827000000E+00 0. -1.
     999902    2    1    2    0    0  0.15678948129E-01 -0.16031247256E-01  0.79236475837E-02  0.10201473489E+01  0.10198700892E+01 0.  0.
     999903    2    3    3    0    0 -0.50400104771E-01  0.51099512769E-01 -0.10147743261E+00  0.12838416478E+00  0.32147996370E-01 0.  0.
         14    1    1    2    0    0 -0.15678948129E-01  0.16031247256E-01 -0.79236475837E-02  0.23782651115E-01  0.00000000000E+00 0. -1.
     999901    1    3    3    0    0  0.66079052900E-01 -0.67130760025E-01  0.10940108020E+00  0.89176318410E+00  0.88000000000E+00 0.  1.
        -11    1    4    4    0    0 -0.12616937079E-01  0.47298022892E-03 -0.62237511388E-02  0.14085702353E-01  0.51100000000E-03 0.  1.
         11    1    4    4    0    0 -0.37783167692E-01  0.50626532540E-01 -0.95253681476E-01  0.11429846243E+00  0.51100000000E-03 0. -1.
</event>
<event>
 8    1  0.1078274E+005  0.1043930E+01  0.7957747E-01            NaN
         13   -1    0    0    0    0  0.00000000000E+00  0.00000000000E+00  0.74505805969E-08  0.10566000000E+00  0.10566000000E+00 0. -1.
     999900   -1    0    0    0    0 -0.00000000000E+00 -0.00000000000E+00 -0.74505805969E-08  0.93827000000E+00  0.93827000000E+00 0. -1.
     999902    2    1    2    0    0  0.17688692508E-01 -0.15744376615E-01 -0.26988786989E-02  0.10200960078E+01  0.10198175356E+01 0.  0.
     999903    2    3    3    0    0 -0.73707884841E-01 -0.31830129304E-01  0.99570233937E-01  0.12932608398E+00  0.19104844741E-01 0.  0.
         14    1    1    2    0    0 -0.17688692508E-01  0.15744376615E-01  0.26988786989E-02  0.23833992193E-01  0.00000000000E+00 0. -1.
     999901    1    3    3    0    0  0.91396577349E-01  0.16085752688E-01 -0.10226911264E+00  0.89076992382E+00  0.88000000000E+00 0. -1.
        -11    1    4    4    0    0 -0.42144539009E-01 -0.26726319937E-01  0.68388250942E-01  0.84662106834E-01  0.51100000000E-03 0. -1.
         11    1    4    4    0    0 -0.31563345833E-01 -0.51038093673E-02  0.31181982995E-01  0.44663977149E-01  0.51100000000E-03 0.  1.
</event>
<event>
 8    1  0.1078274E+005  0.1043930E+01  0.7957747E-01            NaN
         13   -1    0    0    0    0  0.00000000000E+00  0.00000000000E+00  0.74505805969E-08  0.10566000000E+00  0.10566000000E+00 0. -1.
     999900   -1    0    0    0    0 -0.00000000000E+00 -0.00000000000E+00 -0.74505805969E-08  0.93827000000E+00  0.93827000000E+00 0. -1.
     999902    2    1    2    0    0  0.22268915347E-01  0.96493898421E-03  0.58951917944E-02  0.10208737864E+01  0.10206133934E+01 0.  0.
     999903    2    3    3    0    0 -0.11055135344E+00 -0.60811690890E-02 -0.61727585954E-01  0.12831358593E+00  0.19887159253E-01 0.  0.
         14    1    1    2    0    0 -0.22268915347E-01 -0.96493898421E-03 -0.58951917944E-02  0.23056213572E-01  0.00000000000E+00 0.  1.
     999901    1    3    3    0    0  0.13282026878E+00  0.70461080732E-02  0.67622777749E-01  0.89256020050E+00  0.88000000000E+00 0.  1.
        -11    1    4    4    0    0 -0.26026892470E-01  0.67835791416E-02 -0.16985886218E-01  0.31815051929E-01  0.51100000000E-03 0. -1.
         11    1    4    4    0    0 -0.84524460966E-01 -0.12864748231E-01 -0.44741699736E-01  0.96498534004E-01  0.51100000000E-03 0.  1.
</event>
<event>
 8    1  0.1078274E+005  0.1043930E+01  0.7957747E-01            NaN
         13   -1    0    0    0    0  0.00000000000E+00  0.00000000000E+00  0.74505805969E-08  0.10566000000E+00  0.10566000000E+00 0.  1.
     999900   -1    0    0    0    0 -0.00000000000E+00 -0.00000000000E+00 -0.74505805969E-08  0.93827000000E+00  0.93827000000E+00 0. -1.
     999902    2    1    2    0    0  0.22190847972E-01  0.75136243877E-02  0.48769859378E-02  0.10199994071E+01  0.10197186461E+01 0.  0.
     999903    2    3    3    0    0  0.87229048285E-01 -0.92342534537E-01 -0.26011646445E-01  0.13143014835E+00  0.21476209954E-01 0.  0.
         14    1    1    2    0    0 -0.22190847972E-01 -0.75136243877E-02 -0.48769859378E-02  0.23930592909E-01  0.00000000000E+00 0. -1.
     999901    1    3    3    0    0 -0.65038200313E-01  0.99856158925E-01  0.30888632383E-01  0.88856925874E+00  0.88000000000E+00 0.  1.
        -11    1    4    4    0    0  0.30491834001E-01 -0.45005608136E-01 -0.17161998015E-01  0.57009227334E-01  0.51100000000E-03 0.  1.
         11    1    4    4    0    0  0.56737214285E-01 -0.47336926401E-01 -0.88496484307E-02  0.74420921012E-01  0.51100000000E-03 0. -1.
</event>
<event>
 8    1  0.1078274E+005  0.1043930E+01  0.7957747E-01            NaN
         13   -1    0    0    0    0  0.00000000000E+00  0.00000000000E+00  0.74505805969E-08  0.10566000000E+00  0.10566000000E+00 0. -1.
     999900   -1    0    0    0    0 -0.00000000000E+00 -0.00000000000E+00 -0.74505805969E-08  0.93827000000E+00  0.93827000000E+00 0.  1.
     999902    2    1    2    0    0  0.85632581248E-02  0.32438514444E-02  0.22683299399E-01  0.10194681106E+01  0.10191745898E+01 0.  0.
     999903    2    3    3    0    0 -0.54230778405E-01  0.44157417382E-01 -0.10439983764E+00  0.12718612903E+00  0.19650203114E-01 0.  0.
         14    1    1    2    0    0 -0.85632581248E-02 -0.32438514444E-02 -0.22683299399E-01  0.24461889410E-01  0.00000000000E+00 0.  1.
     999901    1    3    3    0    0  0.62794036530E-01 -0.40913565938E-01  0.12708313703E+00  0.89228198156E+00  0.88000000000E+00 0. -1.
        -11    1    4    4    0    0 -0.34152549664E-01  0.17102845125E-01 -0.64493758638E-01  0.74957387790E-01  0.51100000000E-03 0. -1.
         11    1    4    4    0    0 -0.20078228741E-01  0.27054572257E-01 -0.39906078997E-01  0.52228741238E-01  0.51100000000E-03 0.  1.
</event>
<event>
 8    1  0.1078274E+005  0.1043930E+01  0.7957747E-01            NaN
         13   -1    0    0    0    0  0.00000000000E+00  0.00000000000E+00  0.74505805969E-08  0.10566000000E+00  0.10566000000E+00 0.  1.
     999900   -1    0    0    0    0 -0.00000000000E+00 -0.00000000000E+00 -0.74505805969E-08  0.93827000000E+00  0.93827000000E+00 0.  1.
     999902    2    1    2    0    0 -0.18021593956E-01 -0.14461199487E-02 -0.16153164001E-01  0.10196855405E+01  0.10193972766E+01 0.  0.
     999903    2    3    3    0    0  0.86254356362E-01 -0.44416739247E-01 -0.83617310264E-01  0.12992638261E+00  0.21825434802E-01 0.  0.
         14    1    1    2    0    0  0.18021593956E-01  0.14461199487E-02  0.16153164001E-01  0.24244459550E-01  0.00000000000E+00 0.  1.
     999901    1    3    3    0    0 -0.10427595032E+00  0.42970619298E-01  0.67464146263E-01  0.88975915784E+00  0.88000000000E+00 0. -1.
        -11    1    4    4    0    0  0.75166074525E-01 -0.30152384227E-01 -0.63769800353E-01  0.10308226614E+00  0.51100000000E-03 0. -1.
         11    1    4    4    0    0  0.11088281837E-01 -0.14264355020E-01 -0.19847509911E-01  0.26844116467E-01  0.51100000000E-03 0.  1.
</event>
<event>
 8    1  0.1078274E+005  0.1043930E+01  0.7957747E-01            NaN
         13   -1    0    0    0    0  0.00000000000E+00  0.00000000000E+00  0.74505805969E-08  0.10566000000E+00  0.10566000000E+00 0. -1.
     999900   -1    0    0    0    0 -0.00000000000E+00 -0.00000000000E+00 -0.74505805969E-08  0.93827000000E+00  0.93827000000E+00 0. -1.
     999902    2    1    2    0    0 -0.63839262340E-02  0.30609405996E-02 -0.21938006161E-01  0.10208778854E+01  0.10206175861E+01 0.  0.
     999903    2    3    3    0    0 -0.12214008097E+00 -0.15787013256E-02  0.42686333788E-01  0.13093557329E+00  0.20032712810E-01 0.  0.
         14    1    1    2    0    0  0.63839262340E-02 -0.30609405996E-02  0.21938006161E-01  0.23052114563E-01  0.00000000000E+00 0. -1.
     999901    1    3    3    0    0  0.11575615474E+00  0.46396419252E-02 -0.64624339949E-01  0.88994231215E+00  0.88000000000E+00 0. -1.
        -11    1    4    4    0    0 -0.39204559596E-01 -0.32544643679E-02  0.23376876807E-01  0.45763834211E-01  0.51100000000E-03 0.  1.
         11    1    4    4    0    0 -0.82935521376E-01  0.16757630423E-02  0.19309456981E-01  0.85171739078E-01  0.51100000000E-03 0. -1.
</event>
<event>
 8    1  0.1078274E+005  0.1043930E+01  0.7957747E-01            NaN
         13   -1    0    0    0    0  0.00000000000E+00  0.00000000000E+00  0.74505805969E-08  0.10566000000E+00  0.10566000000E+00 0. -1.
     999900   -1    0    0    0    0 -0.00000000000E+00 -0.00000000000E+00 -0.74505805969E-08  0.93827000000E+00  0.93827000000E+00 0.  1.
     999902    2    1    2    0    0  0.44610470895E-02 -0.12080860562E-01 -0.19993759842E-01  0.10201476838E+01  0.10198704320E+01 0.  0.
     999903    2    3    3    0    0 -0.60786368581E-01 -0.88694338983E-01  0.70063975231E-01  0.12984591134E+00  0.19731489908E-01 0.  0.
         14    1    1    2    0    0 -0.44610470895E-02  0.12080860562E-01  0.19993759842E-01  0.23782316239E-01  0.00000000000E+00 0. -1.
     999901    1    3    3    0    0  0.65247415671E-01  0.76613478421E-01 -0.90057735073E-01  0.89030177242E+00  0.88000000000E+00 0.  1.
        -11    1    4    4    0    0 -0.87104327735E-02 -0.24111733224E-01  0.10473322549E-01  0.27698355987E-01  0.51100000000E-03 0. -1.
         11    1    4    4    0    0 -0.52075935808E-01 -0.64582605760E-01  0.59590652681E-01  0.10214755535E+00  0.51100000000E-03 0.  1.
</event>
<event>
 8    1  0.1078274E+005  0.1043930E+01  0.7957747E-01            NaN
         13   -1    0    0    0    0  0.00000000000E+00  0.00000000000E+00  0.74505805969E-08  0.10566000000E+00  0.10566000000E+00 0.  1.
     999900   -1    0    0    0    0 -0.00000000000E+00 -0.00000000000E+00 -0.74505805969E-08  0.93827000000E+00  0.93827000000E+00 0.  1.
     999902    2    1    2    0    0 -0.28323901724E-02 -0.13931857369E-01  0.18946013289E-01  0.10202430732E+01  0.10199680671E+01 0.  0.
     999903    2    3    3    0    0  0.70889443123E-01  0.61774752168E-01 -0.84404797201E-01  0.12791589691E+00  0.19921690204E-01 0.  0.
         14    1    1    2    0    0  0.28323901724E-02  0.13931857369E-01 -0.18946013289E-01  0.23686926846E-01  0.00000000000E+00 0. -1.
     999901    1    3    3    0    0 -0.73721833296E-01 -0.75706609537E-01  0.10335081049E+00  0.89232717624E+00  0.88000000000E+00 0. -1.
        -11    1    4    4    0    0  0.71074359779E-02  0.12698880610E-01 -0.66389976312E-02  0.16003581645E-01  0.51100000000E-03 0. -1.
         11    1    4    4    0    0  0.63782007145E-01  0.49075871557E-01 -0.77765799570E-01  0.11191231527E+00  0.51100000000E-03 0.  1.
</event>
<event>
 8    1  0.1078274E+005  0.1043930E+01  0.7957747E-01            NaN
         13   -1    0    0    0    0  0.00000000000E+00  0.00000000000E+00  0.74505805969E-08  0.10566000000E+00  0.10566000000E+00 0. -1.
     999900   -1    0    0    0    0 -0.00000000000E+00 -0.00000000000E+00 -0.74505805969E-08  0.93827000000E+00  0.93827000000E+00 0. -1.
     999902    2    1    2    0    0 -0.21363925217E-01  0.10240074574E-01 -0.48570171185E-03  0.10202337485E+01  0.10199585233E+01 0.  0.
     999903    2    3    3    0    0  0.45165569172E-01  0.11039246809E+00 -0.49764449637E-01  0.13069169187E+00  0.19426585610E-01 0.  0.
         14    1    1    2    0    0  0.21363925217E-01 -0.10240074574E-01  0.48570171185E-03  0.23696251478E-01  0.00000000000E+00 0.  1.
     999901    1    3    3    0    0 -0.66529494389E-01 -0.10015239351E+00  0.49278747925E-01  0.88954205665E+00  0.88000000000E+00 0. -1.
        -11    1    4    4    0    0  0.24730129045E-01  0.67152569804E-01 -0.39621575086E-01  0.81799616424E-01  0.51100000000E-03 0.  1.
         11    1    4    4    0    0  0.20435440127E-01  0.43239898281E-01 -0.10142874551E-01  0.48892075449E-01  0.51100000000E-03 0. -1.
</event>
<event>
 8    1  0.1078274E+005  0.1043930E+01  0.7957747E-01            NaN
         13   -1    0    0    0    0  0.00000000000E+00  0.00000000000E+00  0.74505805969E-08  0.10566000000E+00  0.10566000000E+00 0. -1.
     999900   -1    0    0    0    0 -0.00000000000E+00 -0.00000000000E+00 -0.74505805969E-08  0.93827000000E+00  0.93827000000E+00 0. -1.
     999902    2    1    2    0    0 -0.23151947848E-01  0.89090308681E-03  0.26776021008E-02  0.10206067080E+01  0.10203401768E+01 0.  0.
     999903    2    3    3    0    0  0.43007732447E-01  0.11477628812E+00  0.37291875625E-01  0.13013204122E+00  0.22812338751E-01 0.  0.
         14    1    1    2    0    0  0.23151947848E-01 -0.89090308681E-03 -0.26776021008E-02  0.23323292016E-01  0.00000000000E+00 0. -1.
     999901    1    3    3    0    0 -0.66159680295E-01 -0.11388538503E+00 -0.34614273524E-01  0.89047466677E+00  0.88000000000E+00 0. -1.
        -11    1    4    4    0    0  0.42374321106E-02  0.41037018391E-01  0.14862251967E-01  0.43853624295E-01  0.51100000000E-03 0. -1.
         11    1    4    4    0    0  0.38770300336E-01  0.73739269728E-01  0.22429623658E-01  0.86278416923E-01  0.51100000000E-03 0.  1.
</event>
<event>
 8    1  0.1174856E+005  0.1043930E+01  0.7957747E-01            NaN
         13   -1    0    0    0    0  0.00000000000E+00  0.00000000000E+00  0.74505805969E-08  0.10566000000E+00  0.10566000000E+00 0.  1.
     999900   -1    0    0    0    0 -0.00000000000E+00 -0.00000000000E+00 -0.74505805969E-08  0.93827000000E+00  0.93827000000E+00 0.  1.
     999902    2    1    2    0    0 -0.18884742187E-01  0.10126899193E-01  0.94684740918E-02  0.10205026746E+01  0.10202337327E+01 0.  0.
     999903    2    3    3    0    0  0.95549659532E-02 -0.13863915221E-01 -0.12645758822E+00  0.12928986577E+00  0.20996243765E-01 0.  0.
         14    1    1    2    0    0  0.18884742187E-01 -0.10126899193E-01 -0.94684740918E-02  0.23427325420E-01  0.00000000000E+00 0. -1.
     999901    1    3    3    0    0 -0.28439708140E-01  0.23990814413E-01  0.13592606231E+00  0.89121280881E+00  0.88000000000E+00 0. -1.
        -11    1    4    4    0    0 -0.95008212420E-03 -0.12093509819E-01 -0.31896665973E-01  0.34129372350E-01  0.51100000000E-03 0.  1.
         11    1    4    4    0    0  0.10505048077E-01 -0.17704054020E-02 -0.94560922247E-01  0.95160493418E-01  0.51100000000E-03 0. -1.
</event>
<event>
 8    1  0.1078274E+005  0.1043930E+01  0.7957747E-01            NaN
         13   -1    0    0    0    0  0.00000000000E+00  0.00000000000E+00  0.74505805969E-08  0.10566000000E+00  0.10566000000E+00 0. -1.
     999900   -1    0    0    0    0 -0.00000000000E+00 -0.00000000000E+00 -0.74505805969E-08  0.93827000000E+00  0.93827000000E+00 0.  1.
     999902    2    1    2    0    0 -0.71873794197E-02 -0.66215794198E-02  0.20143889350E-01  0.10215407165E+01  0.10212953322E+01 0.  0.
     999903    2    3    3    0    0 -0.63232864570E-01 -0.10610954150E+00 -0.41871215262E-01  0.13199879833E+00  0.20318812316E-01 0.  0.
         14    1    1    2    0    0  0.71873794197E-02  0.66215794198E-02 -0.20143889350E-01  0.22389283487E-01  0.00000000000E+00 0. -1.
     999901    1    3    3    0    0  0.56045485150E-01  0.99487962080E-01  0.62015104612E-01  0.88954191818E+00  0.88000000000E+00 0. -1.
        -11    1    4    4    0    0 -0.24414525154E-01 -0.29548836513E-01 -0.53237026040E-02  0.38701494909E-01  0.51100000000E-03 0. -1.
         11    1    4    4    0    0 -0.38818339416E-01 -0.76560704987E-01 -0.36547512658E-01  0.93297303421E-01  0.51100000000E-03 0.  1.
</event>
<event>
 8    1  0.1078274E+005  0.1043930E+01  0.7957747E-01            NaN
         13   -1    0    0    0    0  0.00000000000E+00  0.00000000000E+00  0.74505805969E-08  0.10566000000E+00  0.10566000000E+00 0.  1.
     999900   -1    0    0    0    0 -0.00000000000E+00 -0.00000000000E+00 -0.74505805969E-08  0.93827000000E+00  0.93827000000E+00 0. -1.
     999902    2    1    2    0    0  0.82140638231E-02  0.70301239877E-02  0.21726706950E-01  0.10196618463E+01  0.10193730120E+01 0.  0.
     999903    2    3    3    0    0  0.61341342259E-01  0.86425369298E-01  0.77230706552E-01  0.13275327908E+00  0.20657839732E-01 0.  0.
         14    1    1    2    0    0 -0.82140638231E-02 -0.70301239877E-02 -0.21726706950E-01  0.24268153673E-01  0.00000000000E+00 0. -1.
     999901    1    3    3    0    0 -0.53127278436E-01 -0.79395245310E-01 -0.55503999602E-01  0.88690856725E+00  0.88000000000E+00 0. -1.
        -11    1    4    4    0    0  0.15357207064E-01  0.16997044118E-01  0.27352832019E-01  0.35681673980E-01  0.51100000000E-03 0.  1.
         11    1    4    4    0    0  0.45984135195E-01  0.69428325180E-01  0.49877874533E-01  0.97071605096E-01  0.51100000000E-03 0. -1.
</event>
<event>
 8    1  0.1078274E+005  0.1043930E+01  0.7957747E-01            NaN
         13   -1    0    0    0    0  0.00000000000E+00  0.00000000000E+00  0.74505805969E-08  0.10566000000E+00  0.10566000000E+00 0.  1.
     999900   -1    0    0    0    0 -0.00000000000E+00 -0.00000000000E+00 -0.74505805969E-08  0.93827000000E+00  0.93827000000E+00 0.  1.
     999902    2    1    2    0    0  0.19160202751E-01  0.10113038040E-01  0.89343199474E-02  0.10204947919E+01  0.10202256668E+01 0.  0.
     999903    2    3    3    0    0 -0.56822883551E-01  0.11335127112E+00 -0.23582012121E-01  0.13061340986E+00  0.20649474052E-01 0.  0.
         14    1    1    2    0    0 -0.19160202751E-01 -0.10113038040E-01 -0.89343199474E-02  0.23435208145E-01  0.00000000000E+00 0.  1.
     999901    1    3    3    0    0  0.75983086302E-01 -0.10323823308E+00  0.32516332068E-01  0.88988138200E+00  0.88000000000E+00 0. -1.
        -11    1    4    4    0    0 -0.38086372016E-01  0.61502249409E-01 -0.21385614938E-01  0.75436755385E-01  0.51100000000E-03 0. -1.
         11    1    4    4    0    0 -0.18736511535E-01  0.51849021715E-01 -0.21963971831E-02  0.55176654473E-01  0.51100000000E-03 0.  1.
</event>
<event>
 8    1  0.1078274E+005  0.1043930E+01  0.7957747E-01            NaN
         13   -1    0    0    0    0  0.00000000000E+00  0.00000000000E+00  0.74505805969E-08  0.10566000000E+00  0.10566000000E+00 0.  1.
     999900   -1    0    0    0    0 -0.00000000000E+00 -0.00000000000E+00 -0.74505805969E-08  0.93827000000E+00  0.93827000000E+00 0.  1.
     999902    2    1    2    0    0  0.20288858745E-01  0.13297846546E-01 -0.95195254962E-02  0.10178706086E+01  0.10175369694E+01 0.  0.
     999903    2    3    3    0    0  0.33736608824E-01 -0.11244202786E+00 -0.46987665237E-01  0.12804185013E+00  0.20137186881E-01 0.  0.
         14    1    1    2    0    0 -0.20288858745E-01 -0.13297846546E-01  0.95195254962E-02  0.26059391351E-01  0.00000000000E+00 0. -1.
     999901    1    3    3    0    0 -0.13447750079E-01  0.12573987440E+00  0.37468139741E-01  0.88982875852E+00  0.88000000000E+00 0. -1.
        -11    1    4    4    0    0  0.28047027645E-01 -0.68294341692E-01 -0.22231678557E-01  0.77105521977E-01  0.51100000000E-03 0. -1.
         11    1    4    4    0    0  0.56895811791E-02 -0.44147686167E-01 -0.24755986681E-01  0.50936328150E-01  0.51100000000E-03 0.  1.
</event>
<event>
 8    1  0.1078274E+005  0.1043930E+01  0.7957747E-01            NaN
         13   -1    0    0    0    0  0.00000000000E+00  0.00000000000E+00  0.74505805969E-08  0.10566000000E+00  0.10566000000E+00 0. -1.
     999900   -1    0    0    0    0 -0.00000000000E+00 -0.00000000000E+00 -0.74505805969E-08  0.93827000000E+00  0.93827000000E+00 0.  1.
     999902    2    1    2    0    0  0.90459585834E-02  0.20558379181E-01  0.56933666407E-02  0.10207590970E+01  0.10204960771E+01 0.  0.
     999903    2    3    3    0    0  0.15003903483E-01 -0.10194175328E+00 -0.74195655219E-01  0.12866939560E+00  0.20822582194E-01 0.  0.
         14    1    1    2    0    0 -0.90459585834E-02 -0.20558379181E-01 -0.56933666407E-02  0.23170902981E-01  0.00000000000E+00 0.  1.
     999901    1    3    3    0    0 -0.59579449000E-02  0.12250013246E+00  0.79889021860E-01  0.89208970142E+00  0.88000000000E+00 0. -1.
        -11    1    4    4    0    0  0.69280299075E-02 -0.16664723090E-01 -0.21595988388E-01  0.28148861958E-01  0.51100000000E-03 0.  1.
         11    1    4    4    0    0  0.80758735759E-02 -0.85277030191E-01 -0.52599666831E-01  0.10052053364E+00  0.51100000000E-03 0. -1.
</event>
<event>
 8    1  0.1078274E+005  0.1043930E+01  0.7957747E-01            NaN
         13   -1    0    0    0    0  0.00000000000E+00  0.00000000000E+00  0.74505805969E-08  0.10566000000E+00  0.10566000000E+00 0. -1.
     999900   -1    0    0    0    0 -0.00000000000E+00 -0.00000000000E+00 -0.74505805969E-08  0.93827000000E+00  0.93827000000E+00 0.  1.
     999902    2    1    2    0    0 -0.23852275337E-01  0.53792551988E-02 -0.88617761505E-04  0.10194785117E+01  0.10191852435E+01 0.  0.
     999903    2    3    3    0    0 -0.92350400050E-02 -0.65697402262E-01  0.10966403118E+00  0.12969696621E+00  0.19841085703E-01 0.  0.
         14    1    1    2    0    0  0.23852275337E-01 -0.53792551988E-02  0.88617761505E-04  0.24451488264E-01  0.00000000000E+00 0.  1.
     999901    1    3    3    0    0 -0.14617235332E-01  0.71076657460E-01 -0.10975264894E+00  0.88978154552E+00  0.88000000000E+00 0.  1.
        -11    1    4    4    0    0 -0.12721071027E-01 -0.40764826176E-01  0.56065898235E-01  0.70478668881E-01  0.51100000000E-03 0. -1.
         11    1    4    4    0    0  0.34860310221E-02 -0.24932576085E-01  0.53598132946E-01  0.59218297331E-01  0.51100000000E-03 0.  1.
</event>
<event>
 8    1  0.1078274E+005  0.1043930E+01  0.7957747E-01            NaN
         13   -1    0    0    0    0  0.00000000000E+00  0.00000000000E+00  0.74505805969E-08  0.10566000000E+00  0.10566000000E+00 0. -1.
     999900   -1    0    0    0    0 -0.00000000000E+00 -0.00000000000E+00 -0.74505805969E-08  0.93827000000E+00  0.93827000000E+00 0. -1.
     999902    2    1    2    0    0 -0.60573418962E-02 -0.67357292858E-02  0.21502755141E-01  0.10205969779E+01  0.10203302218E+01 0.  0.
     999903    2    3    3    0    0 -0.21856934420E-01 -0.94335080388E-01  0.89148893258E-01  0.13352354612E+00  0.22453935625E-01 0.  0.
         14    1    1    2    0    0  0.60573418962E-02  0.67357292858E-02 -0.21502755141E-01  0.23333022062E-01  0.00000000000E+00 0.  1.
     999901    1    3    3    0    0  0.15799592524E-01  0.87599351102E-01 -0.67646138117E-01  0.88707343182E+00  0.88000000000E+00 0. -1.
        -11    1    4    4    0    0 -0.47501010948E-02 -0.29781782216E-01  0.14843902848E-01  0.33617266175E-01  0.51100000000E-03 0.  1.
         11    1    4    4    0    0 -0.17106833325E-01 -0.64553298172E-01  0.74304990410E-01  0.99906279944E-01  0.51100000000E-03 0. -1.
</event>
<event>
 8    1  0.1078274E+005  0.1043930E+01  0.7957747E-01            NaN
         13   -1    0    0    0    0  0.00000000000E+00  0.00000000000E+00  0.74505805969E-08  0.10566000000E+00  0.10566000000E+00 0.  1.
     999900   -1    0    0    0    0 -0.00000000000E+00 -0.00000000000E+00 -0.74505805969E-08  0.93827000000E+00  0.93827000000E+00 0. -1.
     999902    2    1    2    0    0 -0.17250661526E-01  0.14943015483E-01  0.19235645984E-02  0.10210263074E+01  0.10207693869E+01 0.  0.
     999903    2    3    3    0    0  0.68304444050E-01  0.80077454916E-01  0.76082811744E-01  0.13138493850E+00  0.19887482458E-01 0.  0.
         14    1    1    2    0    0  0.17250661526E-01 -0.14943015483E-01 -0.19235645984E-02  0.22903692619E-01  0.00000000000E+00 0. -1.
     999901    1    3    3    0    0 -0.85555105576E-01 -0.65134439433E-01 -0.74159247146E-01  0.88964136888E+00  0.88000000000E+00 0.  1.
        -11    1    4    4    0    0  0.31907596418E-01  0.23316563398E-01  0.31629005823E-01  0.50620272305E-01  0.51100000000E-03 0.  1.
         11    1    4    4    0    0  0.36396847633E-01  0.56760891519E-01  0.44453805921E-01  0.80764666194E-01  0.51100000000E-03 0. -1.
</event>
<event>
 8    1  0.1078274E+005  0.1043930E+01  0.7957747E-01            NaN
         13   -1    0    0    0    0  0.00000000000E+00  0.00000000000E+00  0.74505805969E-08  0.10566000000E+00  0.10566000000E+00 0. -1.
     999900   -1    0    0    0    0 -0.00000000000E+00 -0.00000000000E+00 -0.74505805969E-08  0.93827000000E+00  0.93827000000E+00 0. -1.
     999902    2    1    2    0    0  0.68872284999E-02  0.13411092356E-01 -0.17802356830E-01  0.10206015791E+01  0.10203349293E+01 0.  0.
     999903    2    3    3    0    0 -0.11789855834E+00  0.35170298379E-01  0.37090935157E-01  0.12983885580E+00  0.18584161489E-01 0.  0.
         14    1    1    2    0    0 -0.68872284999E-02 -0.13411092356E-01  0.17802356830E-01  0.23328420935E-01  0.00000000000E+00 0. -1.
     999901    1    3    3    0    0  0.12478578684E+00 -0.21759206023E-01 -0.54893291987E-01  0.89076272326E+00  0.88000000000E+00 0. -1.
        -11    1    4    4    0    0 -0.31449129071E-01  0.69299758842E-02  0.18049075239E-01  0.36920218350E-01  0.51100000000E-03 0.  1.
         11    1    4    4    0    0 -0.86449429273E-01  0.28240322495E-01  0.19041859918E-01  0.92918637454E-01  0.51100000000E-03 0. -1.
</event>
<event>
 8    1  0.1078274E+005  0.1043930E+01  0.7957747E-01            NaN
         13   -1    0    0    0    0  0.00000000000E+00  0.00000000000E+00  0.74505805969E-08  0.10566000000E+00  0.10566000000E+00 0. -1.
     999900   -1    0    0    0    0 -0.00000000000E+00 -0.00000000000E+00 -0.74505805969E-08  0.93827000000E+00  0.93827000000E+00 0.  1.
     999902    2    1    2    0    0 -0.13618167744E-01 -0.13764530084E-01 -0.12478107330E-01  0.10208948108E+01  0.10206348978E+01 0.  0.
     999903    2    3    3    0    0  0.68692981419E-01  0.75573430755E-01  0.74894683058E-01  0.12826364335E+00  0.20304667494E-01 0.  0.
         14    1    1    2    0    0  0.13618167744E-01  0.13764530084E-01  0.12478107330E-01  0.23035189247E-01  0.00000000000E+00 0. -1.
     999901    1    3    3    0    0 -0.82311149163E-01 -0.89337960839E-01 -0.87372790388E-01  0.89263116741E+00  0.88000000000E+00 0. -1.
        -11    1    4    4    0    0  0.36201805004E-01  0.51047081722E-01  0.53157702442E-01  0.82111982608E-01  0.51100000000E-03 0.  1.
         11    1    4    4    0    0  0.32491176415E-01  0.24526349033E-01  0.21736980616E-01  0.46151660739E-01  0.51100000000E-03 0. -1.
</event>
<event>
 8    1  0.1078274E+005  0.1043930E+01  0.7957747E-01            NaN
         13   -1    0    0    0    0  0.00000000000E+00  0.00000000000E+00  0.74505805969E-08  0.10566000000E+00  0.10566000000E+00 0. -1.
     999900   -1    0    0    0    0 -0.00000000000E+00 -0.00000000000E+00 -0.74505805969E-08  0.93827000000E+00  0.93827000000E+00 0. -1.
     999902    2    1    2    0    0 -0.41629870734E-02 -0.10351961120E-01  0.20237116193E-01  0.10208208150E+01  0.10205592104E+01 0.  0.
     999903    2    3    3    0    0  0.34399514444E-01  0.95546269391E-01  0.81055346606E-01  0.13155125017E+00  0.20575374101E-01 0.  0.
         14    1    1    2    0    0  0.41629870734E-02  0.10351961120E-01 -0.20237116193E-01  0.23109185018E-01  0.00000000000E+00 0.  1.
     999901    1    3    3    0    0 -0.38562501517E-01 -0.10589823051E+00 -0.60818230413E-01  0.88926956481E+00  0.88000000000E+00 0. -1.
        -11    1    4    4    0    0  0.30100388070E-01  0.70454824679E-01  0.50433231034E-01  0.91726155463E-01  0.51100000000E-03 0. -1.
         11    1    4    4    0    0  0.42991263736E-02  0.25091444712E-01  0.30622115572E-01  0.39825094707E-01  0.51100000000E-03 0.  1.
</event>
<event>
 8    1  0.1078274E+005  0.1043930E+01  0.7957747E-01            NaN
         13   -1    0    0    0    0  0.00000000000E+00  0.00000000000E+00  0.74505805969E-08  0.10566000000E+00  0.10566000000E+00 0. -1.
     999900   -1    0    0    0    0 -0.00000000000E+00 -0.00000000000E+00 -0.74505805969E-08  0.93827000000E+00  0.93827000000E+00 0.  1.
     999902    2    1    2    0    0  0.14930465162E-02  0.23456715198E-01  0.35035553941E-02  0.10201661288E+01  0.10198893120E+01 0.  0.
     999903    2    3    3    0    0  0.53751934578E-01  0.11771099025E+00  0.24427682586E-01  0.13334445625E+00  0.20949573687E-01 0.  0.
         14    1    1    2    0    0 -0.14930465162E-02 -0.23456715198E-01 -0.35035553941E-02  0.23763871237E-01  0.00000000000E+00 0.  1.
     999901    1    3    3    0    0 -0.52258888062E-01 -0.94254275055E-01 -0.20924127192E-01  0.88682167252E+00  0.88000000000E+00 0.  1.
        -11    1    4    4    0    0  0.17322735650E-01  0.34661171174E-01  0.17105754605E-01  0.42359673266E-01  0.51100000000E-03 0.  1.
         11    1    4    4    0    0  0.36429198928E-01  0.83049819078E-01  0.73219279814E-02  0.90984782980E-01  0.51100000000E-03 0. -1.
</event>
<event>
 8    1  0.1078274E+005  0.1043930E+01  0.7957747E-01            NaN
         13   -1    0    0    0    0  0.00000000000E+00  0.00000000000E+00  0.74505805969E-08  0.10566000000E+00  0.10566000000E+00 0. -1.
     999900   -1    0    0    0    0 -0.00000000000E+00 -0.00000000000E+00 -0.74505805969E-08  0.93827000000E+00  0.93827000000E+00 0. -1.
     999902    2    1    2    0    0 -0.10363059236E-01  0.19506359024E-01  0.10932557693E-02  0.10218147056E+01  0.10215753552E+01 0.  0.
     999903    2    3    3    0    0  0.10934090148E+00 -0.65749534661E-01 -0.10024946269E-01  0.12955845313E+00  0.20160832943E-01 0.  0.
         14    1    1    2    0    0  0.10363059236E-01 -0.19506359024E-01 -0.10932557693E-02  0.22115294420E-01  0.00000000000E+00 0. -1.
     999901    1    3    3    0    0 -0.11970396072E+00  0.85255893685E-01  0.11118202039E-01  0.89225625245E+00  0.88000000000E+00 0.  1.
        -11    1    4    4    0    0  0.55699707649E-01 -0.36884185164E-01  0.44185151270E-02  0.66952856132E-01  0.51100000000E-03 0. -1.
         11    1    4    4    0    0  0.53641193832E-01 -0.28865349497E-01 -0.14443461396E-01  0.62605596998E-01  0.51100000000E-03 0.  1.
</event>
<event>
 8    1  0.1078274E+005  0.1043930E+01  0.7957747E-01            NaN
         13   -1    0    0    0    0  0.00000000000E+00  0.00000000000E+00  0.74505805969E-08  0.10566000000E+00  0.10566000000E+00 0.  1.
     999900   -1    0    0    0    0 -0.00000000000E+00 -0.00000000000E+00 -0.74505805969E-08  0.93827000000E+00  0.93827000000E+00 0.  1.
     999902    2    1    2    0    0  0.23248889273E-01  0.13232972734E-02 -0.37765779833E-02  0.10203392283E+01  0.10200664764E+01 0.  0.
     999903    2    3    3    0    0 -0.75432418141E-01  0.99063792156E-01 -0.27789765521E-01  0.12912217396E+00  0.19914319407E-01 0.  0.
         14    1    1    2    0    0 -0.23248889273E-01 -0.13232972734E-02  0.37765779833E-02  0.23590771699E-01  0.00000000000E+00 0.  1.
     999901    1    3    3    0    0  0.98681307414E-01 -0.97740494883E-01  0.24013187538E-01  0.89121705434E+00  0.88000000000E+00 0. -1.
        -11    1    4    4    0    0 -0.70940368732E-01  0.88010371706E-01 -0.30048691016E-01  0.11696814266E+00  0.51100000000E-03 0.  1.
         11    1    4    4    0    0 -0.44920494088E-02  0.11053420451E-01  0.22589254945E-02  0.12154031304E-01  0.51100000000E-03 0. -1.
</event>
<event>
 8    1  0.1078274E+005  0.1043930E+01  0.7957747E-01            NaN
         13   -1    0    0    0    0  0.00000000000E+00  0.00000000000E+00  0.74505805969E-08  0.10566000000E+00  0.10566000000E+00 0.  1.
     999900   -1    0    0    0    0 -0.00000000000E+00 -0.00000000000E+00 -0.74505805969E-08  0.93827000000E+00  0.93827000000E+00 0. -1.
     999902    2    1    2    0    0  0.73441684382E-02  0.19528994717E-02  0.16812898519E-01  0.10254794124E+01  0.10253134160E+01 0.  0.
     999903    2    3    3    0    0 -0.96908739605E-03  0.11384065116E+00  0.72794434533E-01  0.13659139269E+00  0.19938552394E-01 0.  0.
         14    1    1    2    0    0 -0.73441684382E-02 -0.19528994717E-02 -0.16812898519E-01  0.18450587606E-01  0.00000000000E+00 0.  1.
     999901    1    3    3    0    0  0.83132558343E-02 -0.11188775169E+00 -0.55981536014E-01  0.88888801970E+00  0.88000000000E+00 0. -1.
        -11    1    4    4    0    0  0.27494539396E-02  0.41789437638E-01  0.37737311991E-01  0.56376257701E-01  0.51100000000E-03 0. -1.
         11    1    4    4    0    0 -0.37185413357E-02  0.72051213520E-01  0.35057122541E-01  0.80215134989E-01  0.51100000000E-03 0.  1.
</event>
<event>
 8    1  0.1078274E+005  0.1043930E+01  0.7957747E-01            NaN
         13   -1    0    0    0    0  0.00000000000E+00  0.00000000000E+00  0.74505805969E-08  0.10566000000E+00  0.10566000000E+00 0. -1.
     999900   -1    0    0    0    0 -0.00000000000E+00 -0.00000000000E+00 -0.74505805969E-08  0.93827000000E+00  0.93827000000E+00 0. -1.
     999902    2    1    2    0    0  0.21633085717E-01  0.73121002451E-02 -0.72197668914E-02  0.10199804229E+01  0.10196992110E+01 0.  0.
     999903    2    3    3    0    0  0.67664653681E-02  0.35878573990E-02 -0.12958860013E+00  0.13138095313E+00  0.20226017581E-01 0.  0.
         14    1    1    2    0    0 -0.21633085717E-01 -0.73121002451E-02  0.72197668914E-02  0.23949577066E-01  0.00000000000E+00 0.  1.
     999901    1    3    3    0    0  0.14866620349E-01  0.37242428461E-02  0.12236883324E+00  0.88859946980E+00  0.88000000000E+00 0.  1.
        -11    1    4    4    0    0  0.69129755688E-02 -0.49950038854E-02 -0.24614304606E-01  0.26055026526E-01  0.51100000000E-03 0. -1.
         11    1    4    4    0    0 -0.14651020067E-03  0.85828612844E-02 -0.10497429553E+00  0.10532592661E+00  0.51100000000E-03 0.  1.
</event>
<event>
 8    1  0.1078274E+005  0.1043930E+01  0.7957747E-01            NaN
         13   -1    0    0    0    0  0.00000000000E+00  0.00000000000E+00  0.74505805969E-08  0.10566000000E+00  0.10566000000E+00 0. -1.
     999900   -1    0    0    0    0 -0.00000000000E+00 -0.00000000000E+00 -0.74505805969E-08  0.93827000000E+00  0.93827000000E+00 0.  1.
     999902    2    1    2    0    0 -0.77400855888E-02  0.20144446544E-01 -0.39564800027E-02  0.10219900505E+01  0.10217545213E+01 0.  0.
     999903    2    3    3    0    0 -0.12883429449E+00 -0.24315030833E-01  0.53814403006E-03  0.13257414427E+00  0.19649884701E-01 0.  0.
         14    1    1    2    0    0  0.77400855888E-02 -0.20144446544E-01  0.39564800027E-02  0.21939949533E-01  0.00000000000E+00 0. -1.
     999901    1    3    3    0    0  0.12109420890E+00  0.44459477377E-01 -0.44946240327E-02  0.88941590620E+00  0.88000000000E+00 0.  1.
        -11    1    4    4    0    0 -0.34736168628E-01 -0.42697338384E-02  0.85492961884E-02  0.36030315352E-01  0.51100000000E-03 0.  1.
         11    1    4    4    0    0 -0.94098125859E-01 -0.20045296995E-01 -0.80111521583E-02  0.96543828915E-01  0.51100000000E-03 0. -1.
</event>
<event>
 7    1  0.1078274E+005  0.1043930E+01  0.7957747E-01            NaN
         13   -1    0    0    0    0  0.00000000000E+00  0.00000000000E+00  0.74505805969E-08  0.10566000000E+00  0.10566000000E+00 0. -1.
     999900   -1    0    0    0    0 -0.00000000000E+00 -0.00000000000E+00 -0.74505805969E-08  0.93827000000E+00  0.93827000000E+00 0.  1.
     999903    2    1    2    0    0  0.49182895309E-01 -0.89661178266E-01  0.55390072908E-01  0.11792059800E+00  0.19471085666E-01 0.  0.
         14    1    1    2    0    0 -0.37495294203E-01  0.16652658926E-01 -0.66721101340E-02  0.41565913803E-01  0.00000000000E+00 0. -1.
     999901    1    1    2    0    0 -0.11687601106E-01  0.73008519340E-01 -0.48717962774E-01  0.88444348820E+00  0.88000000000E+00 0.  1.
        -11    1    3    3    0    0  0.13924863548E-01 -0.28462054259E-01  0.27583939549E-01  0.42013393097E-01  0.51100000000E-03 0. -1.
         11    1    3    3    0    0  0.35258031762E-01 -0.61199124007E-01  0.27806133359E-01  0.75907204904E-01  0.51100000000E-03 0.  1.
</event>
<event>
 8    1  0.1078274E+005  0.1043930E+01  0.7957747E-01            NaN
         13   -1    0    0    0    0  0.00000000000E+00  0.00000000000E+00  0.74505805969E-08  0.10566000000E+00  0.10566000000E+00 0.  1.
     999900   -1    0    0    0    0 -0.00000000000E+00 -0.00000000000E+00 -0.74505805969E-08  0.93827000000E+00  0.93827000000E+00 0. -1.
     999902    2    1    2    0    0 -0.60107162202E-03 -0.15768564103E-01  0.16384989318E-01  0.10211818841E+01  0.10209284812E+01 0.  0.
     999903    2    3    3    0    0  0.32267356216E-01  0.11677101514E-02 -0.12362530617E+00  0.12934666741E+00  0.20119597919E-01 0.  0.
         14    1    1    2    0    0  0.60107162202E-03  0.15768564103E-01 -0.16384989318E-01  0.22748115876E-01  0.00000000000E+00 0. -1.
     999901    1    3    3    0    0 -0.32868427838E-01 -0.16936274254E-01  0.14001029548E+00  0.89183521672E+00  0.88000000000E+00 0.  1.
        -11    1    4    4    0    0  0.21307881067E-01  0.62929025547E-02 -0.10350028450E+00  0.10585932377E+00  0.51100000000E-03 0.  1.
         11    1    4    4    0    0  0.10959475149E-01 -0.51251924033E-02 -0.20125021672E-01  0.23487343634E-01  0.51100000000E-03 0. -1.
</event>
<event>
 8    1  0.1078274E+005  0.1043930E+01  0.7957747E-01            NaN
         13   -1    0    0    0    0  0.00000000000E+00  0.00000000000E+00  0.74505805969E-08  0.10566000000E+00  0.10566000000E+00 0.  1.
     999900   -1    0    0    0    0 -0.00000000000E+00 -0.00000000000E+00 -0.74505805969E-08  0.93827000000E+00  0.93827000000E+00 0.  1.
     999902    2    1    2    0    0  0.99106146070E-02  0.20533798654E-01 -0.26676900386E-02  0.10209740914E+01  0.10207159848E+01 0.  0.
     999903    2    3    3    0    0  0.98394301431E-01  0.69532458533E-01  0.53772082540E-01  0.13338427656E+00  0.19588951679E-01 0.  0.
         14    1    1    2    0    0 -0.99106146070E-02 -0.20533798654E-01  0.26676900386E-02  0.22955908590E-01  0.00000000000E+00 0. -1.
     999901    1    3    3    0    0 -0.88483686824E-01 -0.48998659879E-01 -0.56439772579E-01  0.88758981485E+00  0.88000000000E+00 0.  1.
        -11    1    4    4    0    0  0.54251869659E-01  0.27895842369E-01  0.21722746230E-01  0.64757873712E-01  0.51100000000E-03 0. -1.
         11    1    4    4    0    0  0.44142431773E-01  0.41636616164E-01  0.32049336310E-01  0.68626402844E-01  0.51100000000E-03 0.  1.
</event>
<event>
 8    1  0.1078274E+005  0.1043930E+01  0.7957747E-01            NaN
         13   -1    0    0    0    0  0.00000000000E+00  0.00000000000E+00  0.74505805969E-08  0.10566000000E+00  0.10566000000E+00 0. -1.
     999900   -1    0    0    0    0 -0.00000000000E+00 -0.00000000000E+00 -0.74505805969E-08  0.93827000000E+00  0.93827000000E+00 0.  1.
     999902    2    1    2    0    0 -0.13441314119E-01 -0.19197421821E-01 -0.27480611680E-02  0.10203342002E+01  0.10200613306E+01 0.  0.
     999903    2    3    3    0    0  0.23215830649E-01 -0.19005727256E-01 -0.12600269297E+00  0.13098866143E+00  0.19523276522E-01 0.  0.
         14    1    1    2    0    0  0.13441314119E-01  0.19197421821E-01  0.27480611680E-02  0.23595799838E-01  0.00000000000E+00 0.  1.
     999901    1    3    3    0    0 -0.36657144768E-01 -0.19169456565E-03  0.12325463180E+00  0.88934553874E+00  0.88000000000E+00 0. -1.
        -11    1    4    4    0    0  0.75833544348E-02 -0.15331863595E-01 -0.40135848557E-01  0.43631648676E-01  0.51100000000E-03 0. -1.
         11    1    4    4    0    0  0.15632476214E-01 -0.36738636601E-02 -0.85866844409E-01  0.87357012750E-01  0.51100000000E-03 0.  1.
</event>
<event>
 8    1  0.1078274E+005  0.1043930E+01  0.7957747E-01            NaN
         13   -1    0    0    0    0  0.00000000000E+00  0.00000000000E+00  0.74505805969E-08  0.10566000000E+00  0.10566000000E+00 0. -1.
     999900   -1    0    0    0    0 -0.00000000000E+00 -0.00000000000E+00 -0.74505805969E-08  0.93827000000E+00  0.93827000000E+00 0. -1.
     999902    2    1    2    0    0 -0.20949845683E-01 -0.13922396074E-01 -0.25328509114E-02  0.10186486931E+01  0.10183349230E+01 0.  0.
     999903    2    3    3    0    0 -0.88164750911E-01  0.91232358053E-01 -0.18667217289E-01  0.12969667885E+00  0.19400954720E-01 0.  0.
         14    1    1    2    0    0  0.20949845683E-01  0.13922396074E-01  0.25328509114E-02  0.25281306935E-01  0.00000000000E+00 0.  1.
     999901    1    3    3    0    0  0.67214905228E-01 -0.10515475413E+00  0.16134366378E-01  0.88895201422E+00  0.88000000000E+00 0.  1.
        -11    1    4    4    0    0 -0.42646089574E-01  0.40579456953E-01  0.77037351913E-03  0.58874747379E-01  0.51100000000E-03 0. -1.
         11    1    4    4    0    0 -0.45518661337E-01  0.50652901100E-01 -0.19437590808E-01  0.70821931470E-01  0.51100000000E-03 0.  1.
</event>
<event>
 8    1  0.1078274E+005  0.1043930E+01  0.7957747E-01            NaN
         13   -1    0    0    0    0  0.00000000000E+00  0.00000000000E+00  0.74505805969E-08  0.10566000000E+00  0.10566000000E+00 0. -1.
     999900   -1    0    0    0    0 -0.00000000000E+00 -0.00000000000E+00 -0.74505805969E-08  0.93827000000E+00  0.93827000000E+00 0. -1.
     999902    2    1    2    0    0 -0.11606938001E-01 -0.19875380086E-01  0.37916625770E-02  0.10206034390E+01  0.10203368322E+01 0.  0.
     999903    2    3    3    0    0  0.12616339659E+00  0.27497344044E-03  0.21419107115E-01  0.12948199461E+00  0.19736527786E-01 0.  0.
         14    1    1    2    0    0  0.11606938001E-01  0.19875380086E-01 -0.37916625770E-02  0.23326561007E-01  0.00000000000E+00 0.  1.
     999901    1    3    3    0    0 -0.13777033459E+00 -0.20150353526E-01 -0.17627444538E-01  0.89112144438E+00  0.88000000000E+00 0. -1.
        -11    1    4    4    0    0  0.10243438750E+00  0.78667812043E-03  0.25072803463E-01  0.10546245398E+00  0.51100000000E-03 0.  1.
         11    1    4    4    0    0  0.23729009091E-01 -0.51170468000E-03 -0.36536963480E-02  0.24019540631E-01  0.51100000000E-03 0. -1.
</event>
<event>
 8    1  0.1078274E+005  0.1043930E+01  0.7957747E-01            NaN
         13   -1    0    0    0    0  0.00000000000E+00  0.00000000000E+00  0.74505805969E-08  0.10566000000E+00  0.10566000000E+00 0. -1.
     999900   -1    0    0    0    0 -0.00000000000E+00 -0.00000000000E+00 -0.74505805969E-08  0.93827000000E+00  0.93827000000E+00 0.  1.
     999902    2    1    2    0    0  0.26855572020E-01 -0.61398033550E-02  0.21498062405E-02  0.10162977616E+01  0.10159220440E+01 0.  0.
     999903    2    3    3    0    0  0.43421780608E-01 -0.11582405593E+00 -0.28643948050E-01  0.12879940674E+00  0.21636738486E-01 0.  0.
         14    1    1    2    0    0 -0.26855572020E-01  0.61398033550E-02 -0.21498062405E-02  0.27632238430E-01  0.00000000000E+00 0. -1.
     999901    1    3    3    0    0 -0.16566208588E-01  0.10968425258E+00  0.30793754291E-01  0.88749835483E+00  0.88000000000E+00 0.  1.
        -11    1    4    4    0    0  0.51803370900E-02 -0.26727949378E-01 -0.14393204188E-01  0.30800074969E-01  0.51100000000E-03 0. -1.
         11    1    4    4    0    0  0.38241443518E-01 -0.89096106553E-01 -0.14250743863E-01  0.97999331767E-01  0.51100000000E-03 0.  1.
</event>
<event>
 8    1  0.1078274E+005  0.1043930E+01  0.7957747E-01            NaN
         13   -1    0    0    0    0  0.00000000000E+00  0.00000000000E+00  0.74505805969E-08  0.10566000000E+00  0.10566000000E+00 0.  1.
     999900   -1    0    0    0    0 -0.00000000000E+00 -0.00000000000E+00 -0.74505805969E-08  0.93827000000E+00  0.93827000000E+00 0.  1.
     999902    2    1    2    0    0 -0.39047550364E-02 -0.22093762141E-01  0.67642814936E-02  0.10204963289E+01  0.10202272396E+01 0.  0.
     999903    2    3    3    0    0 -0.97688035828E-01 -0.68033686151E-01  0.55604139825E-01  0.13297668847E+00  0.20480344620E-01 0.  0.
         14    1    1    2    0    0  0.39047550364E-02  0.22093762141E-01 -0.67642814936E-02  0.23433671107E-01  0.00000000000E+00 0.  1.
     999901    1    3    3    0    0  0.93783280791E-01  0.45939924010E-01 -0.48839858331E-01  0.88751964042E+00  0.88000000000E+00 0.  1.
        -11    1    4    4    0    0 -0.68187355666E-02 -0.58282459413E-02  0.10901014405E-01  0.14126458917E-01  0.51100000000E-03 0.  1.
         11    1    4    4    0    0 -0.90869300261E-01 -0.62205440210E-01  0.44703125420E-01  0.11885022955E+00  0.51100000000E-03 0. -1.
</event>
<event>
 8    1  0.1078274E+005  0.1043930E+01  0.7957747E-01            NaN
         13   -1    0    0    0    0  0.00000000000E+00  0.00000000000E+00  0.74505805969E-08  0.10566000000E+00  0.10566000000E+00 0.  1.
     999900   -1    0    0    0    0 -0.00000000000E+00 -0.00000000000E+00 -0.74505805969E-08  0.93827000000E+00  0.93827000000E+00 0.  1.
     999902    2    1    2    0    0 -0.18346844602E-01 -0.15490169425E-01 -0.26233545664E-03  0.10199170686E+01  0.10196343491E+01 0.  0.
     999903    2    3    3    0    0  0.61630893921E-02  0.76632629526E-01 -0.10108306816E+00  0.12904549136E+00  0.22899969276E-01 0.  0.
         14    1    1    2    0    0  0.18346844602E-01  0.15490169425E-01  0.26233545664E-03  0.24012931423E-01  0.00000000000E+00 0. -1.
     999901    1    3    3    0    0 -0.24509933994E-01 -0.92122798951E-01  0.10082073270E+00  0.89087157722E+00  0.88000000000E+00 0. -1.
        -11    1    4    4    0    0  0.53833210146E-03  0.22569305672E-01 -0.48105102311E-01  0.53141559531E-01  0.51100000000E-03 0. -1.
         11    1    4    4    0    0  0.56247572907E-02  0.54063323854E-01 -0.52977965847E-01  0.75903931829E-01  0.51100000000E-03 0.  1.
</event>
<event>
 8    1  0.1078274E+005  0.1043930E+01  0.7957747E-01            NaN
         13   -1    0    0    0    0  0.00000000000E+00  0.00000000000E+00  0.74505805969E-08  0.10566000000E+00  0.10566000000E+00 0. -1.
     999900   -1    0    0    0    0 -0.00000000000E+00 -0.00000000000E+00 -0.74505805969E-08  0.93827000000E+00  0.93827000000E+00 0.  1.
     999902    2    1    2    0    0  0.23408764908E-01  0.18068212648E-01  0.53030757659E-03  0.10143544728E+01  0.10139232144E+01 0.  0.
     999903    2    3    3    0    0  0.10050165741E+00 -0.53314259197E-01 -0.51842216245E-01  0.12655852068E+00  0.19658341624E-01 0.  0.
         14    1    1    2    0    0 -0.23408764908E-01 -0.18068212648E-01 -0.53030757659E-03  0.29575527196E-01  0.00000000000E+00 0. -1.
     999901    1    3    3    0    0 -0.77092892501E-01  0.71382471844E-01  0.52372523822E-01  0.88779595213E+00  0.88000000000E+00 0. -1.
        -11    1    4    4    0    0  0.41089425019E-01 -0.32850415383E-01 -0.23102218988E-01  0.57458369995E-01  0.51100000000E-03 0.  1.
         11    1    4    4    0    0  0.59412232389E-01 -0.20463843813E-01 -0.28739997257E-01  0.69100150683E-01  0.51100000000E-03 0. -1.
</event>
<event>
 8    1  0.1078274E+005  0.1043930E+01  0.7957747E-01            NaN
         13   -1    0    0    0    0  0.00000000000E+00  0.00000000000E+00  0.74505805969E-08  0.10566000000E+00  0.10566000000E+00 0.  1.
     999900   -1    0    0    0    0 -0.00000000000E+00 -0.00000000000E+00 -0.74505805969E-08  0.93827000000E+00  0.93827000000E+00 0. -1.
     999902    2    1    2    0    0  0.14027767248E-01  0.18061441951E-01  0.75961407633E-02  0.10198323799E+01  0.10195476388E+01 0.  0.
     999903    2    3    3    0    0  0.75352677120E-01 -0.73850031693E-01 -0.72095907785E-01  0.12934976573E+00  0.20042176666E-01 0.  0.
         14    1    1    2    0    0 -0.14027767248E-01 -0.18061441951E-01 -0.75961407633E-02  0.24097620086E-01  0.00000000000E+00 0. -1.
     999901    1    3    3    0    0 -0.61324909872E-01  0.91911473644E-01  0.79692048548E-01  0.89048261418E+00  0.88000000000E+00 0.  1.
        -11    1    4    4    0    0  0.31904197928E-01 -0.33149689492E-01 -0.43434012252E-01  0.63273646174E-01  0.51100000000E-03 0. -1.
         11    1    4    4    0    0  0.43448479191E-01 -0.40700342201E-01 -0.28661895533E-01  0.66076119558E-01  0.51100000000E-03 0.  1.
</event>
<event>
 8    1  0.1078274E+005  0.1043930E+01  0.7957747E-01            NaN
         13   -1    0    0    0    0  0.00000000000E+00  0.00000000000E+00  0.74505805969E-08  0.10566000000E+00  0.10566000000E+00 0. -1.
     999900   -1    0    0    0    0 -0.00000000000E+00 -0.00000000000E+00 -0.74505805969E-08  0.93827000000E+00  0.93827000000E+00 0. -1.
     999902    2    1    2    0    0  0.38877739407E-02 -0.20634982594E-01  0.10881375486E-01  0.10202800185E+01  0.10200058796E+01 0.  0.
     999903    2    3    3    0    0  0.11455015905E+00  0.38833767367E-01  0.45037456303E-01  0.13070184118E+00  0.20610637815E-01 0.  0.
         14    1    1    2    0    0 -0.38877739407E-02  0.20634982594E-01 -0.10881375486E-01  0.23649981508E-01  0.00000000000E+00 0. -1.
     999901    1    3    3    0    0 -0.11066238511E+00 -0.59468749962E-01 -0.34156080817E-01  0.88957817732E+00  0.88000000000E+00 0.  1.
        -11    1    4    4    0    0  0.85268158260E-01  0.37209599200E-01  0.30079416384E-01  0.97776507898E-01  0.51100000000E-03 0. -1.
         11    1    4    4    0    0  0.29282000786E-01  0.16241681673E-02  0.14958039919E-01  0.32925333278E-01  0.51100000000E-03 0.  1.
</event>
<event>
 8    1  0.1078274E+005  0.1043930E+01  0.7957747E-01            NaN
         13   -1    0    0    0    0  0.00000000000E+00  0.00000000000E+00  0.74505805969E-08  0.10566000000E+00  0.10566000000E+00 0. -1.
     999900   -1    0    0    0    0 -0.00000000000E+00 -0.00000000000E+00 -0.74505805969E-08  0.93827000000E+00  0.93827000000E+00 0.  1.
     999902    2    1    2    0    0 -0.14331969585E-03 -0.23721464530E-01  0.23722153053E-02  0.10200897855E+01  0.10198111662E+01 0.  0.
     999903    2    3    3    0    0  0.30444531225E-02  0.79235085599E-01  0.99840235756E-01  0.12873675328E+00  0.17821657742E-01 0.  0.
         14    1    1    2    0    0  0.14331969585E-03  0.23721464530E-01 -0.23722153053E-02  0.23840214459E-01  0.00000000000E+00 0. -1.
     999901    1    3    3    0    0 -0.31877728183E-02 -0.10295655013E+00 -0.97468020450E-01  0.89135303226E+00  0.88000000000E+00 0.  1.
        -11    1    4    4    0    0 -0.73396536454E-02  0.30070902877E-01  0.35630443460E-01  0.47200840434E-01  0.51100000000E-03 0.  1.
         11    1    4    4    0    0  0.10384106768E-01  0.49164182722E-01  0.64209792295E-01  0.81535912847E-01  0.51100000000E-03 0. -1.
</event>
<event>
 8    1  0.1078274E+005  0.1043930E+01  0.7957747E-01            NaN
         13   -1    0    0    0    0  0.00000000000E+00  0.00000000000E+00  0.74505805969E-08  0.10566000000E+00  0.10566000000E+00 0.  1.
     999900   -1    0    0    0    0 -0.00000000000E+00 -0.00000000000E+00 -0.74505805969E-08  0.93827000000E+00  0.93827000000E+00 0.  1.
     999902    2    1    2    0    0 -0.15653537934E-01  0.16723493114E-01 -0.80460254887E-02  0.10196514704E+01  0.10193623861E+01 0.  0.
     999903    2    3    3    0    0 -0.12509311117E+00 -0.34385859278E-01 -0.12549371170E-02  0.13137487783E+00  0.20666636809E-01 0.  0.
         14    1    1    2    0    0  0.15653537934E-01 -0.16723493114E-01  0.80460254887E-02  0.24278529567E-01  0.00000000000E+00 0.  1.
     999901    1    3    3    0    0  0.10943957323E+00  0.51109352392E-01 -0.67910883717E-02  0.88827659261E+00  0.88000000000E+00 0.  1.
        -11    1    4    4    0    0 -0.15102850298E-01  0.21074387467E-02 -0.26113228001E-02  0.15479583746E-01  0.51100000000E-03 0.  1.
         11    1    4    4    0    0 -0.10999026087E+00 -0.36493298025E-01  0.13563856831E-02  0.11589529408E+00  0.51100000000E-03 0. -1.
</event>
<event>
 8    1  0.1078274E+005  0.1043930E+01  0.7957747E-01            NaN
         13   -1    0    0    0    0  0.00000000000E+00  0.00000000000E+00  0.74505805969E-08  0.10566000000E+00  0.10566000000E+00 0. -1.
     999900   -1    0    0    0    0 -0.00000000000E+00 -0.00000000000E+00 -0.74505805969E-08  0.93827000000E+00  0.93827000000E+00 0. -1.
     999902    2    1    2    0    0  0.10068836915E-04  0.97282175606E-03 -0.23766807648E-01  0.10201432888E+01  0.10198659334E+01 0.  0.
     999903    2    3    3    0    0  0.10960885519E+00 -0.56677167629E-01 -0.40198571136E-01  0.13132079916E+00  0.20070493405E-01 0.  0.
         14    1    1    2    0    0 -0.10068836915E-04 -0.97282175606E-03  0.23766807648E-01  0.23786711192E-01  0.00000000000E+00 0. -1.
     999901    1    3    3    0    0 -0.10959878635E+00  0.57649989385E-01  0.16431763488E-01  0.88882248964E+00  0.88000000000E+00 0. -1.
        -11    1    4    4    0    0  0.26029646568E-01 -0.95839190676E-02 -0.12195754070E-02  0.27769452467E-01  0.51100000000E-03 0.  1.
         11    1    4    4    0    0  0.83579208621E-01 -0.47093248561E-01 -0.38978995729E-01  0.10355134670E+00  0.51100000000E-03 0. -1.
</event>
<event>
 8    1  0.1078274E+005  0.1043930E+01  0.7957747E-01            NaN
         13   -1    0    0    0    0  0.00000000000E+00  0.00000000000E+00  0.74505805969E-08  0.10566000000E+00  0.10566000000E+00 0. -1.
     999900   -1    0    0    0    0 -0.00000000000E+00 -0.00000000000E+00 -0.74505805969E-08  0.93827000000E+00  0.93827000000E+00 0.  1.
     999902    2    1    2    0    0 -0.18840170082E-01  0.63486889855E-02 -0.31147622591E-01  0.10069782442E+01  0.10063000309E+01 0.  0.
     999903    2    3    3    0    0 -0.14541768482E-01 -0.10962911742E+00 -0.39425562487E-01  0.11931960933E+00  0.21278810515E-01 0.  0.
         14    1    1    2    0    0  0.18840170082E-01 -0.63486889855E-02  0.31147622591E-01  0.36951755758E-01  0.00000000000E+00 0. -1.
     999901    1    3    3    0    0 -0.42984015999E-02  0.11597780641E+00  0.82779398953E-02  0.88765863491E+00  0.88000000000E+00 0. -1.
        -11    1    4    4    0    0 -0.15722491883E-01 -0.86494060739E-01 -0.22860711538E-01  0.90836625582E-01  0.51100000000E-03 0.  1.
         11    1    4    4    0    0  0.11807234014E-02 -0.23135056684E-01 -0.16564850948E-01  0.28482983753E-01  0.51100000000E-03 0. -1.
</event>
<event>
 8    1  0.1078274E+005  0.1043930E+01  0.7957747E-01            NaN
         13   -1    0    0    0    0  0.00000000000E+00  0.00000000000E+00  0.74505805969E-08  0.10566000000E+00  0.10566000000E+00 0.  1.
     999900   -1    0    0    0    0 -0.00000000000E+00 -0.00000000000E+00 -0.74505805969E-08  0.93827000000E+00  0.93827000000E+00 0. -1.
     999902    2    1    2    0    0 -0.19652623802E-01  0.87204291783E-02  0.41685074566E-02  0.10220291333E+01  0.10217944516E+01 0.  0.
     999903    2    3    3    0    0  0.46637039588E-01  0.11608083964E+00  0.38352317921E-01  0.13237239608E+00  0.20044354796E-01 0.  0.
         14    1    1    2    0    0  0.19652623802E-01 -0.87204291783E-02 -0.41685074566E-02  0.21900866690E-01  0.00000000000E+00 0.  1.
     999901    1    3    3    0    0 -0.66289663390E-01 -0.10736041046E+00 -0.34183810464E-01  0.88965673723E+00  0.88000000000E+00 0. -1.
        -11    1    4    4    0    0  0.37328343846E-01  0.85482197880E-01  0.37023643803E-01  0.10035747471E+00  0.51100000000E-03 0. -1.
         11    1    4    4    0    0  0.93086957415E-02  0.30598641763E-01  0.13286741177E-02  0.32014921366E-01  0.51100000000E-03 0.  1.
</event>
<event>
 8    1  0.1078274E+005  0.1043930E+01  0.7957747E-01            NaN
         13   -1    0    0    0    0  0.00000000000E+00  0.00000000000E+00  0.74505805969E-08  0.10566000000E+00  0.10566000000E+00 0. -1.
     999900   -1    0    0    0    0 -0.00000000000E+00 -0.00000000000E+00 -0.74505805969E-08  0.93827000000E+00  0.93827000000E+00 0.  1.
     999902    2    1    2    0    0 -0.20034536757E-01  0.12235011477E-01  0.15364214203E-02  0.10204047208E+01  0.10201334989E+01 0.  0.
     999903    2    3    3    0    0  0.12605053744E+00 -0.79377990442E-02 -0.56135519272E-02  0.12810493192E+00  0.20678853267E-01 0.  0.
         14    1    1    2    0    0  0.20034536757E-01 -0.12235011477E-01 -0.15364214203E-02  0.23525279163E-01  0.00000000000E+00 0.  1.
     999901    1    3    3    0    0 -0.14608507420E+00  0.20172810522E-01  0.71499733475E-02  0.89229978892E+00  0.88000000000E+00 0.  1.
        -11    1    4    4    0    0  0.99625408900E-01 -0.14127174836E-01 -0.13881787818E-02  0.10063293362E+00  0.51100000000E-03 0.  1.
         11    1    4    4    0    0  0.26425128545E-01  0.61893757915E-02 -0.42253731454E-02  0.27471998299E-01  0.51100000000E-03 0. -1.
</event>
<event>
 8    1  0.1078274E+005  0.1043930E+01  0.7957747E-01            NaN
         13   -1    0    0    0    0  0.00000000000E+00  0.00000000000E+00  0.74505805969E-08  0.10566000000E+00  0.10566000000E+00 0.  1.
     999900   -1    0    0    0    0 -0.00000000000E+00 -0.00000000000E+00 -0.74505805969E-08  0.93827000000E+00  0.93827000000E+00 0.  1.
     999902    2    1    2    0    0 -0.74683073543E-02 -0.92387433678E-02  0.12528702456E-02  0.10319843030E+01  0.10319151622E+01 0.  0.
     999903    2    3    3    0    0 -0.12624242601E+00 -0.61614663703E-01 -0.99169132621E-02  0.14239153526E+00  0.21059136649E-01 0.  0.
         14    1    1    2    0    0  0.74683073543E-02  0.92387433678E-02 -0.12528702456E-02  0.11945697033E-01  0.00000000000E+00 0. -1.
     999901    1    3    3    0    0  0.11877411866E+00  0.52375920335E-01  0.11169783508E-01  0.88959276771E+00  0.88000000000E+00 0. -1.
        -11    1    4    4    0    0 -0.66240079117E-01 -0.40652835570E-01 -0.12785491676E-01  0.78766306501E-01  0.51100000000E-03 0.  1.
         11    1    4    4    0    0 -0.60002346894E-01 -0.20961828133E-01  0.28685784142E-02  0.63625228759E-01  0.51100000000E-03 0. -1.
</event>
<event>
 8    1  0.1078274E+005  0.1043930E+01  0.7957747E-01            NaN
         13   -1    0    0    0    0  0.00000000000E+00  0.00000000000E+00  0.74505805969E-08  0.10566000000E+00  0.10566000000E+00 0. -1.
     999900   -1    0    0    0    0 -0.00000000000E+00 -0.00000000000E+00 -0.74505805969E-08  0.93827000000E+00  0.93827000000E+00 0.  1.
     999902    2    1    2    0    0 -0.60191558179E-02  0.22895294047E-01  0.16213239337E-02  0.10202012534E+01  0.10199252639E+01 0.  0.
     999903    2    3    3    0    0 -0.28981451039E-01  0.12601858136E+00 -0.26354010932E-01  0.13344068885E+00  0.19780702631E-01 0.  0.
         14    1    1    2    0    0  0.60191558179E-02 -0.22895294047E-01 -0.16213239337E-02  0.23728746649E-01  0.00000000000E+00 0. -1.
     999901    1    3    3    0    0  0.22962295221E-01 -0.10312328731E+00  0.27975334866E-01  0.88676056450E+00  0.88000000000E+00 0.  1.
        -11    1    4    4    0    0 -0.39429456856E-02  0.39024741097E-01 -0.15844277341E-01  0.42305785466E-01  0.51100000000E-03 0. -1.
         11    1    4    4    0    0 -0.25038505353E-01  0.86993840264E-01 -0.10509733591E-01  0.91134903387E-01  0.51100000000E-03 0.  1.
</event>
<event>
 8    1  0.1078274E+005  0.1043930E+01  0.7957747E-01            NaN
         13   -1    0    0    0    0  0.00000000000E+00  0.00000000000E+00  0.74505805969E-08  0.10566000000E+00  0.10566000000E+00 0.  1.
     999900   -1    0    0    0    0 -0.00000000000E+00 -0.00000000000E+00 -0.74505805969E-08  0.93827000000E+00  0.93827000000E+00 0.  1.
     999902    2    1    2    0    0 -0.22556076390E-01 -0.76208122196E-03  0.31579116888E-02  0.10211411923E+01  0.10208868717E+01 0.  0.
     999903    2    3    3    0    0  0.37409143481E-01 -0.95650259789E-01  0.78328104278E-01  0.13083217186E+00  0.20817037760E-01 0.  0.
         14    1    1    2    0    0  0.22556076390E-01  0.76208122196E-03 -0.31579116888E-02  0.22788807695E-01  0.00000000000E+00 0. -1.
     999901    1    3    3    0    0 -0.59965219872E-01  0.94888178567E-01 -0.75170192589E-01  0.89030902044E+00  0.88000000000E+00 0.  1.
        -11    1    4    4    0    0  0.29067422095E-01 -0.78334863993E-01  0.72813481595E-01  0.11083018617E+00  0.51100000000E-03 0. -1.
         11    1    4    4    0    0  0.83417213860E-02 -0.17315395796E-01  0.55146226829E-02  0.20001985691E-01  0.51100000000E-03 0.  1.
</event>
<event>
 8    1  0.1078274E+005  0.1043930E+01  0.7957747E-01            NaN
         13   -1    0    0    0    0  0.00000000000E+00  0.00000000000E+00  0.74505805969E-08  0.10566000000E+00  0.10566000000E+00 0.  1.
     999900   -1    0    0    0    0 -0.00000000000E+00 -0.00000000000E+00 -0.74505805969E-08  0.93827000000E+00  0.93827000000E+00 0. -1.
     999902    2    1    2    0    0 -0.12790987929E-01  0.17609717860E-01 -0.64324875497E-02  0.10212344403E+01  0.10209822200E+01 0.  0.
     999903    2    3    3    0    0  0.10731491079E+00  0.72214784626E-01  0.97527988576E-02  0.13125179790E+00  0.20011301039E-01 0.  0.
         14    1    1    2    0    0  0.12790987929E-01 -0.17609717860E-01  0.64324875497E-02  0.22695559729E-01  0.00000000000E+00 0. -1.
     999901    1    3    3    0    0 -0.12010589872E+00 -0.54605066766E-01 -0.16185286407E-01  0.88998264237E+00  0.88000000000E+00 0.  1.
        -11    1    4    4    0    0  0.80384713544E-01  0.56058586353E-01 -0.11350993587E-02  0.98009269190E-01  0.51100000000E-03 0. -1.
         11    1    4    4    0    0  0.26930197249E-01  0.16156198273E-01  0.10887898216E-01  0.33242528711E-01  0.51100000000E-03 0.  1.
</event>
<event>
 8    1  0.1078274E+005  0.1043930E+01  0.7957747E-01            NaN
         13   -1    0    0    0    0  0.00000000000E+00  0.00000000000E+00  0.74505805969E-08  0.10566000000E+00  0.10566000000E+00 0.  1.
     999900   -1    0    0    0    0 -0.00000000000E+00 -0.00000000000E+00 -0.74505805969E-08  0.93827000000E+00  0.93827000000E+00 0. -1.
     999902    2    1    2    0    0 -0.20483884579E-01  0.71144203404E-02 -0.10317767811E-01  0.10199162365E+01  0.10196334972E+01 0.  0.
     999903    2    3    3    0    0  0.12081632633E+00  0.24966569014E-01 -0.28694063840E-01  0.12827609774E+00  0.20285306878E-01 0.  0.
         14    1    1    2    0    0  0.20483884579E-01 -0.71144203404E-02  0.10317767811E-01  0.24013763487E-01  0.00000000000E+00 0. -1.
     999901    1    3    3    0    0 -0.14130021091E+00 -0.17852148673E-01  0.18376296029E-01  0.89164013877E+00  0.88000000000E+00 0. -1.
        -11    1    4    4    0    0  0.44512753310E-01  0.73861076713E-02 -0.20440403449E-01  0.49537975412E-01  0.51100000000E-03 0.  1.
         11    1    4    4    0    0  0.76303573021E-01  0.17580461342E-01 -0.82536603911E-02  0.78738122328E-01  0.51100000000E-03 0. -1.
</event>
<event>
 8    1  0.1078274E+005  0.1043930E+01  0.7957747E-01            NaN
         13   -1    0    0    0    0  0.00000000000E+00  0.00000000000E+00  0.74505805969E-08  0.10566000000E+00  0.10566000000E+00 0. -1.
     999900   -1    0    0    0    0 -0.00000000000E+00 -0.00000000000E+00 -0.74505805969E-08  0.93827000000E+00  0.93827000000E+00 0. -1.
     999902    2    1    2    0    0  0.93167161433E-02 -0.21458564468E-01  0.11842558461E-02  0.10205062161E+01  0.10202373565E+01 0.  0.
     999903    2    3    3    0    0  0.79438367862E-01 -0.63685348358E-01  0.82692915179E-01  0.13295688857E+00  0.21751738147E-01 0.  0.
         14    1    1    2    0    0 -0.93167161433E-02  0.21458564468E-01 -0.11842558461E-02  0.23423783867E-01  0.00000000000E+00 0. -1.
     999901    1    3    3    0    0 -0.70121651719E-01  0.42226783890E-01 -0.81508659333E-01  0.88754932757E+00  0.88000000000E+00 0.  1.
        -11    1    4    4    0    0  0.22770452945E-01 -0.16404165361E-01  0.35895410545E-01  0.45566783820E-01  0.51100000000E-03 0. -1.
         11    1    4    4    0    0  0.56667914918E-01 -0.47281182997E-01  0.46797504634E-01  0.87390104747E-01  0.51100000000E-03 0.  1.
</event>
<event>
 8    1  0.1078274E+005  0.1043930E+01  0.7957747E-01            NaN
         13   -1    0    0    0    0  0.00000000000E+00  0.00000000000E+00  0.74505805969E-08  0.10566000000E+00  0.10566000000E+00 0.  1.
     999900   -1    0    0    0    0 -0.00000000000E+00 -0.00000000000E+00 -0.74505805969E-08  0.93827000000E+00  0.93827000000E+00 0. -1.
     999902    2    1    2    0    0 -0.11923992566E-02 -0.17101004449E-01 -0.16306762649E-01  0.10202703999E+01  0.10199960354E+01 0.  0.
     999903    2    3    3    0    0 -0.38172169703E-01  0.89215887689E-01  0.78305352694E-01  0.12806961680E+00  0.29214882021E-01 0.  0.
         14    1    1    2    0    0  0.11923992566E-02  0.17101004449E-01  0.16306762649E-01  0.23659600107E-01  0.00000000000E+00 0.  1.
     999901    1    3    3    0    0  0.36979770447E-01 -0.10631689214E+00 -0.94612115343E-01  0.89220078309E+00  0.88000000000E+00 0.  1.
        -11    1    4    4    0    0 -0.25967664062E-01  0.69037532587E-01  0.73235536863E-01  0.10394328003E+00  0.51100000000E-03 0. -1.
         11    1    4    4    0    0 -0.12204505642E-01  0.20178355102E-01  0.50698158311E-02  0.24126336774E-01  0.51100000000E-03 0.  1.
</event>
<event>
 8    1  0.1078274E+005  0.1043930E+01  0.7957747E-01            NaN
         13   -1    0    0    0    0  0.00000000000E+00  0.00000000000E+00  0.74505805969E-08  0.10566000000E+00  0.10566000000E+00 0. -1.
     999900   -1    0    0    0    0 -0.00000000000E+00 -0.00000000000E+00 -0.74505805969E-08  0.93827000000E+00  0.93827000000E+00 0.  1.
     999902    2    1    2    0    0  0.15255223260E-01  0.55512953343E-02 -0.87897890932E-02  0.10254692549E+01  0.10253030741E+01 0.  0.
     999903    2    3    3    0    0 -0.76609108941E-01  0.56905641478E-01  0.91346487279E-01  0.13355917075E+00  0.19663767401E-01 0.  0.
         14    1    1    2    0    0 -0.15255223260E-01 -0.55512953343E-02  0.87897890932E-02  0.18460745080E-01  0.00000000000E+00 0.  1.
     999901    1    3    3    0    0  0.91864332201E-01 -0.51354346144E-01 -0.10013627637E+00  0.89191008417E+00  0.88000000000E+00 0. -1.
        -11    1    4    4    0    0 -0.20153100598E-01  0.19940126415E-01  0.16601790396E-01  0.32857825103E-01  0.51100000000E-03 0.  1.
         11    1    4    4    0    0 -0.56456008343E-01  0.36965515063E-01  0.74744696883E-01  0.10070134565E+00  0.51100000000E-03 0. -1.
</event>
<event>
 8    1  0.1078274E+005  0.1043930E+01  0.7957747E-01            NaN
         13   -1    0    0    0    0  0.00000000000E+00  0.00000000000E+00  0.74505805969E-08  0.10566000000E+00  0.10566000000E+00 0.  1.
     999900   -1    0    0    0    0 -0.00000000000E+00 -0.00000000000E+00 -0.74505805969E-08  0.93827000000E+00  0.93827000000E+00 0. -1.
     999902    2    1    2    0    0 -0.13163624627E-01 -0.11114402180E-01 -0.15996877988E-01  0.10204201924E+01  0.10201493312E+01 0.  0.
     999903    2    3    3    0    0 -0.30073346034E-01 -0.11103716100E+00 -0.64251020980E-01  0.13329057461E+00  0.20112839599E-01 0.  0.
         14    1    1    2    0    0  0.13163624627E-01  0.11114402180E-01  0.15996877988E-01  0.23509807624E-01  0.00000000000E+00 0.  1.
     999901    1    3    3    0    0  0.16909721407E-01  0.99922758822E-01  0.48254142993E-01  0.88712961777E+00  0.88000000000E+00 0. -1.
        -11    1    4    4    0    0 -0.10039598275E-01 -0.38041345127E-01 -0.11386785002E-01  0.40961658490E-01  0.51100000000E-03 0.  1.
         11    1    4    4    0    0 -0.20033747759E-01 -0.72995815876E-01 -0.52864235979E-01  0.92328916117E-01  0.51100000000E-03 0. -1.
</event>
<event>
 8    1  0.1078274E+005  0.1043930E+01  0.7957747E-01            NaN
         13   -1    0    0    0    0  0.00000000000E+00  0.00000000000E+00  0.74505805969E-08  0.10566000000E+00  0.10566000000E+00 0. -1.
     999900   -1    0    0    0    0 -0.00000000000E+00 -0.00000000000E+00 -0.74505805969E-08  0.93827000000E+00  0.93827000000E+00 0. -1.
     999902    2    1    2    0    0  0.11058272907E-01  0.15625467204E-01 -0.13011286090E-01  0.10207840675E+01  0.10205216207E+01 0.  0.
     999903    2    3    3    0    0 -0.16431538906E-01 -0.41927727341E-01 -0.12210797190E+00  0.13175642632E+00  0.20529717093E-01 0.  0.
         14    1    1    2    0    0 -0.11058272907E-01 -0.15625467204E-01  0.13011286090E-01  0.23145932488E-01  0.00000000000E+00 0.  1.
     999901    1    3    3    0    0  0.27489811813E-01  0.57553194545E-01  0.10909668581E+00  0.88902764120E+00  0.88000000000E+00 0.  1.
        -11    1    4    4    0    0 -0.15650575468E-01 -0.42403864204E-01 -0.10136689631E+00  0.11098890485E+00  0.51100000000E-03 0. -1.
         11    1    4    4    0    0 -0.78096343764E-03  0.47613686308E-03 -0.20741075588E-01  0.20767521464E-01  0.51100000000E-03 0.  1.
</event>
<event>
 8    1  0.1078274E+005  0.1043930E+01  0.7957747E-01            NaN
         13   -1    0    0    0    0  0.00000000000E+00  0.00000000000E+00  0.74505805969E-08  0.10566000000E+00  0.10566000000E+00 0.  1.
     999900   -1    0    0    0    0 -0.00000000000E+00 -0.00000000000E+00 -0.74505805969E-08  0.93827000000E+00  0.93827000000E+00 0. -1.
     999902    2    1    2    0    0  0.12823884425E-01  0.18255785935E-01 -0.72511772082E-02  0.10204714130E+01  0.10202017445E+01 0.  0.
     999903    2    3    3    0    0 -0.10973256579E+00  0.37456347494E-01  0.54523270164E-01  0.12962640552E+00  0.19646985957E-01 0.  0.
         14    1    1    2    0    0 -0.12823884425E-01 -0.18255785935E-01  0.72511772082E-02  0.23458586972E-01  0.00000000000E+00 0. -1.
     999901    1    3    3    0    0  0.12255645021E+00 -0.19200561560E-01 -0.61774447372E-01  0.89084500751E+00  0.88000000000E+00 0. -1.
        -11    1    4    4    0    0 -0.50345483853E-01  0.12393370434E-01  0.14852841900E-01  0.53936364436E-01  0.51100000000E-03 0.  1.
         11    1    4    4    0    0 -0.59387081933E-01  0.25062977061E-01  0.39670428264E-01  0.75690041084E-01  0.51100000000E-03 0. -1.
</event>
<event>
 8    1  0.1078274E+005  0.1043930E+01  0.7957747E-01            NaN
         13   -1    0    0    0    0  0.00000000000E+00  0.00000000000E+00  0.74505805969E-08  0.10566000000E+00  0.10566000000E+00 0. -1.
     999900   -1    0    0    0    0 -0.00000000000E+00 -0.00000000000E+00 -0.74505805969E-08  0.93827000000E+00  0.93827000000E+00 0.  1.
     999902    2    1    2    0    0 -0.11060389140E-01 -0.19347248625E-01 -0.52665823872E-02  0.10210305431E+01  0.10207737187E+01 0.  0.
     999903    2    3    3    0    0  0.62563089371E-01 -0.57464628091E-01 -0.99266552621E-01  0.13214959176E+00  0.19832864163E-01 0.  0.
         14    1    1    2    0    0  0.11060389140E-01  0.19347248625E-01  0.52665823872E-02  0.22899456922E-01  0.00000000000E+00 0.  1.
     999901    1    3    3    0    0 -0.73623478510E-01  0.38117379467E-01  0.93999970234E-01  0.88888095131E+00  0.88000000000E+00 0. -1.
        -11    1    4    4    0    0  0.90354612262E-02 -0.17600308649E-01 -0.30171954702E-01  0.36083492010E-01  0.51100000000E-03 0. -1.
         11    1    4    4    0    0  0.53527628144E-01 -0.39864319442E-01 -0.69094597919E-01  0.96066099754E-01  0.51100000000E-03 0.  1.
</event>
<event>
 8    1  0.1078274E+005  0.1043930E+01  0.7957747E-01            NaN
         13   -1    0    0    0    0  0.00000000000E+00  0.00000000000E+00  0.74505805969E-08  0.10566000000E+00  0.10566000000E+00 0. -1.
     999900   -1    0    0    0    0 -0.00000000000E+00 -0.00000000000E+00 -0.74505805969E-08  0.93827000000E+00  0.93827000000E+00 0. -1.
     999902    2    1    2    0    0  0.21676673257E-01  0.30278741687E-02 -0.76868219064E-02  0.10207322972E+01  0.10204686615E+01 0.  0.
     999903    2    3    3    0    0 -0.25181223491E-01 -0.11974712215E+00 -0.40224759246E-01  0.13037951340E+00  0.20182145010E-01 0.  0.
         14    1    1    2    0    0 -0.21676673257E-01 -0.30278741687E-02  0.76868219064E-02  0.23197702828E-01  0.00000000000E+00 0.  1.
     999901    1    3    3    0    0  0.46857896749E-01  0.12277499632E+00  0.32537937340E-01  0.89035278377E+00  0.88000000000E+00 0. -1.
        -11    1    4    4    0    0 -0.85395034794E-02 -0.10786473568E-01 -0.36202095086E-02  0.14235103427E-01  0.51100000000E-03 0. -1.
         11    1    4    4    0    0 -0.16641720012E-01 -0.10896064858E+00 -0.36604549737E-01  0.11614440997E+00  0.51100000000E-03 0.  1.
</event>
<event>
 8    1  0.1078274E+005  0.1043930E+01  0.7957747E-01            NaN
         13   -1    0    0    0    0  0.00000000000E+00  0.00000000000E+00  0.74505805969E-08  0.10566000000E+00  0.10566000000E+00 0. -1.
     999900   -1    0    0    0    0 -0.00000000000E+00 -0.00000000000E+00 -0.74505805969E-08  0.93827000000E+00  0.93827000000E+00 0.  1.
     999902    2    1    2    0    0  0.80347013115E-02 -0.21185189117E-01  0.86018218512E-02  0.10196944888E+01  0.10194064403E+01 0.  0.
     999903    2    3    3    0    0  0.11746766104E+00 -0.38978145469E-01  0.41762346176E-01  0.13211813585E+00  0.19828289096E-01 0.  0.
         14    1    1    2    0    0 -0.80347013115E-02  0.21185189117E-01 -0.86018218512E-02  0.24235511182E-01  0.00000000000E+00 0.  1.
     999901    1    3    3    0    0 -0.10943295973E+00  0.17792956352E-01 -0.33160524325E-01  0.88757635297E+00  0.88000000000E+00 0.  1.
        -11    1    4    4    0    0  0.50339209762E-01 -0.66314469896E-02  0.15093077809E-01  0.52972391369E-01  0.51100000000E-03 0.  1.
         11    1    4    4    0    0  0.67128451278E-01 -0.32346698479E-01  0.26669268367E-01  0.79145744483E-01  0.51100000000E-03 0. -1.
</event>
<event>
 8    1  0.1078274E+005  0.1043930E+01  0.7957747E-01            NaN
         13   -1    0    0    0    0  0.00000000000E+00  0.00000000000E+00  0.74505805969E-08  0.10566000000E+00  0.10566000000E+00 0.  1.
     999900   -1    0    0    0    0 -0.00000000000E+00 -0.00000000000E+00 -0.74505805969E-08  0.93827000000E+00  0.93827000000E+00 0.  1.
     999902    2    1    2    0    0  0.17314911659E-01  0.15163212178E-01 -0.29637719627E-02  0.10207241147E+01  0.10204602908E+01 0.  0.
     999903    2    3    3    0    0 -0.84968926251E-01 -0.37249951284E-01  0.87029160377E-01  0.12869953482E+00  0.19550401725E-01 0.  0.
         14    1    1    2    0    0 -0.17314911659E-01 -0.15163212178E-01  0.29637719627E-02  0.23205885322E-01  0.00000000000E+00 0.  1.
     999901    1    3    3    0    0  0.10228383791E+00  0.52413163463E-01 -0.89992932340E-01  0.89202457986E+00  0.88000000000E+00 0.  1.
        -11    1    4    4    0    0 -0.44542047052E-01 -0.15915418618E-01  0.56694925602E-01  0.73836780911E-01  0.51100000000E-03 0. -1.
         11    1    4    4    0    0 -0.40426879199E-01 -0.21334532667E-01  0.30334234775E-01  0.54862753907E-01  0.51100000000E-03 0.  1.
</event>
<event>
 8    1  0.1078274E+005  0.1043930E+01  0.7957747E-01            NaN
         13   -1    0    0    0    0  0.00000000000E+00  0.00000000000E+00  0.74505805969E-08  0.10566000000E+00  0.10566000000E+00 0. -1.
     999900   -1    0    0    0    0 -0.00000000000E+00 -0.00000000000E+00 -0.74505805969E-08  0.93827000000E+00  0.93827000000E+00 0.  1.
     999902    2    1    2    0    0 -0.19575716941E-01  0.10860949300E-01 -0.93033350763E-02  0.10196870431E+01  0.10193988155E+01 0.  0.
     999903    2    3    3    0    0 -0.54709841097E-01  0.10995135266E+00 -0.46601244214E-01  0.13264451387E+00  0.18450594393E-01 0.  0.
         14    1    1    2    0    0  0.19575716941E-01 -0.10860949300E-01  0.93033350763E-02  0.24242956853E-01  0.00000000000E+00 0.  1.
     999901    1    3    3    0    0  0.35134124156E-01 -0.99090403359E-01  0.37297909137E-01  0.88704252928E+00  0.88000000000E+00 0.  1.
        -11    1    4    4    0    0 -0.19989485981E-01  0.26324229672E-01 -0.18246880460E-01  0.37759162929E-01  0.51100000000E-03 0. -1.
         11    1    4    4    0    0 -0.34720355116E-01  0.83627122987E-01 -0.28354363754E-01  0.94885350942E-01  0.51100000000E-03 0.  1.
</event>
<event>
 8    1  0.1078274E+005  0.1043930E+01  0.7957747E-01            NaN
         13   -1    0    0    0    0  0.00000000000E+00  0.00000000000E+00  0.74505805969E-08  0.10566000000E+00  0.10566000000E+00 0. -1.
     999900   -1    0    0    0    0 -0.00000000000E+00 -0.00000000000E+00 -0.74505805969E-08  0.93827000000E+00  0.93827000000E+00 0.  1.
     999902    2    1    2    0    0  0.19706148977E-02 -0.10349697774E-01 -0.20567585109E-01  0.10208210164E+01  0.10205594164E+01 0.  0.
     999903    2    3    3    0    0 -0.10265500431E+00  0.40690780867E-01 -0.69473304567E-01  0.13180840676E+00  0.18791660049E-01 0.  0.
         14    1    1    2    0    0 -0.19706148977E-02  0.10349697774E-01  0.20567585109E-01  0.23108983628E-01  0.00000000000E+00 0. -1.
     999901    1    3    3    0    0  0.10462561921E+00 -0.51040478642E-01  0.48905719458E-01  0.88901260961E+00  0.88000000000E+00 0. -1.
        -11    1    4    4    0    0 -0.73300280942E-01  0.23543359179E-01 -0.56152589379E-01  0.95292157928E-01  0.51100000000E-03 0.  1.
         11    1    4    4    0    0 -0.29354723368E-01  0.17147421688E-01 -0.13320715189E-01  0.36516248831E-01  0.51100000000E-03 0. -1.
</event>
<event>
 7    1  0.1078274E+005  0.1043930E+01  0.7957747E-01            NaN
         13   -1    0    0    0    0  0.00000000000E+00  0.00000000000E+00  0.74505805969E-08  0.10566000000E+00  0.10566000000E+00 0. -1.
     999900   -1    0    0    0    0 -0.00000000000E+00 -0.00000000000E+00 -0.74505805969E-08  0.93827000000E+00  0.93827000000E+00 0. -1.
     999903    2    1    2    0    0  0.79254392943E-01  0.27689515329E-01 -0.54011963936E-01  0.10154103879E+00  0.18582848283E-01 0.  0.
         14    1    1    2    0    0  0.16348207036E-01 -0.50217233564E-01  0.19355536075E-01  0.56246521643E-01  0.00000000000E+00 0. -1.
     999901    1    1    2    0    0 -0.95602599979E-01  0.22527718235E-01  0.34656427861E-01  0.88614243957E+00  0.88000000000E+00 0.  1.
        -11    1    3    3    0    0  0.64084891434E-01  0.27751951965E-01 -0.38114941642E-01  0.79561636769E-01  0.51100000000E-03 0.  1.
         11    1    3    3    0    0  0.15169501508E-01 -0.62436635852E-04 -0.15897022294E-01  0.21979402020E-01  0.51100000000E-03 0. -1.
</event>
<event>
 8    1  0.1078274E+005  0.1043930E+01  0.7957747E-01            NaN
         13   -1    0    0    0    0  0.00000000000E+00  0.00000000000E+00  0.74505805969E-08  0.10566000000E+00  0.10566000000E+00 0. -1.
     999900   -1    0    0    0    0 -0.00000000000E+00 -0.00000000000E+00 -0.74505805969E-08  0.93827000000E+00  0.93827000000E+00 0.  1.
     999902    2    1    2    0    0  0.12834188928E-01  0.52047269452E-02 -0.21618624972E-02  0.10299128948E+01  0.10298175041E+01 0.  0.
     999903    2    3    3    0    0 -0.13475272040E+00 -0.15130711645E-01 -0.75126729658E-02  0.13737490850E+00  0.20692779872E-01 0.  0.
         14    1    1    2    0    0 -0.12834188928E-01 -0.52047269452E-02  0.21618624972E-02  0.14017105175E-01  0.00000000000E+00 0.  1.
     999901    1    3    3    0    0  0.14758690933E+00  0.20335438590E-01  0.53508104686E-02  0.89253798633E+00  0.88000000000E+00 0.  1.
        -11    1    4    4    0    0 -0.37576376651E-01 -0.13179135525E-01  0.71304700674E-03  0.39830180171E-01  0.51100000000E-03 0.  1.
         11    1    4    4    0    0 -0.97176343750E-01 -0.19515761198E-02 -0.82257199725E-02  0.97544728325E-01  0.51100000000E-03 0. -1.
</event>
<event>
 8    1  0.1078274E+005  0.1043930E+01  0.7957747E-01            NaN
         13   -1    0    0    0    0  0.00000000000E+00  0.00000000000E+00  0.74505805969E-08  0.10566000000E+00  0.10566000000E+00 0.  1.
     999900   -1    0    0    0    0 -0.00000000000E+00 -0.00000000000E+00 -0.74505805969E-08  0.93827000000E+00  0.93827000000E+00 0. -1.
     999902    2    1    2    0    0  0.23099831107E-01  0.37124006587E-03 -0.73217015643E-02  0.10196947503E+01  0.10194067080E+01 0.  0.
     999903    2    3    3    0    0  0.74393687646E-01 -0.74768676095E-01  0.75333954906E-01  0.13115154688E+00  0.20018686288E-01 0.  0.
         14    1    1    2    0    0 -0.23099831107E-01 -0.37124006587E-03  0.73217015643E-02  0.24235249744E-01  0.00000000000E+00 0.  1.
     999901    1    3    3    0    0 -0.51293856538E-01  0.75139916161E-01 -0.82655656470E-01  0.88854320338E+00  0.88000000000E+00 0. -1.
        -11    1    4    4    0    0  0.41154567312E-01 -0.31886884745E-01  0.27826773180E-01  0.59034415860E-01  0.51100000000E-03 0. -1.
         11    1    4    4    0    0  0.33239120334E-01 -0.42881791349E-01  0.47507181726E-01  0.72117131019E-01  0.51100000000E-03 0.  1.
</event>
<event>
 8    1  0.1078274E+005  0.1043930E+01  0.7957747E-01            NaN
         13   -1    0    0    0    0  0.00000000000E+00  0.00000000000E+00  0.74505805969E-08  0.10566000000E+00  0.10566000000E+00 0. -1.
     999900   -1    0    0    0    0 -0.00000000000E+00 -0.00000000000E+00 -0.74505805969E-08  0.93827000000E+00  0.93827000000E+00 0. -1.
     999902    2    1    2    0    0 -0.52034054793E-02 -0.22561719744E-01  0.78267824445E-02  0.10194889454E+01  0.10191959305E+01 0.  0.
     999903    2    3    3    0    0 -0.46818615225E-01  0.94320840663E-01 -0.69096019005E-01  0.12746289422E+00  0.19599128688E-01 0.  0.
         14    1    1    2    0    0  0.52034054793E-02  0.22561719744E-01 -0.78267824445E-02  0.24441054597E-01  0.00000000000E+00 0.  1.
     999901    1    3    3    0    0  0.41615209745E-01 -0.11688256041E+00  0.76922801449E-01  0.89202605118E+00  0.88000000000E+00 0.  1.
        -11    1    4    4    0    0 -0.14562847178E-01  0.16654695244E-01 -0.21377006349E-01  0.30768375209E-01  0.51100000000E-03 0.  1.
         11    1    4    4    0    0 -0.32255768047E-01  0.77666145419E-01 -0.47719012656E-01  0.96694519009E-01  0.51100000000E-03 0. -1.
</event>
<event>
 8    1  0.1078274E+005  0.1043930E+01  0.7957747E-01            NaN
         13   -1    0    0    0    0  0.00000000000E+00  0.00000000000E+00  0.74505805969E-08  0.10566000000E+00  0.10566000000E+00 0.  1.
     999900   -1    0    0    0    0 -0.00000000000E+00 -0.00000000000E+00 -0.74505805969E-08  0.93827000000E+00  0.93827000000E+00 0. -1.
     999902    2    1    2    0    0 -0.16276729084E-01 -0.25030630292E-01  0.13670239544E-01  0.10110919152E+01  0.10105585194E+01 0.  0.
     999903    2    3    3    0    0 -0.63529313244E-01  0.46820459593E-01 -0.89404367800E-01  0.12091229262E+00  0.19962776525E-01 0.  0.
         14    1    1    2    0    0  0.16276729084E-01  0.25030630292E-01 -0.13670239544E-01  0.32838084774E-01  0.00000000000E+00 0.  1.
     999901    1    3    3    0    0  0.47252584160E-01 -0.71851089885E-01  0.10307460734E+00  0.89017962261E+00  0.88000000000E+00 0.  1.
        -11    1    4    4    0    0 -0.42981582325E-01  0.22684796948E-01 -0.63543728941E-01  0.80000519001E-01  0.51100000000E-03 0.  1.
         11    1    4    4    0    0 -0.20547730919E-01  0.24135662646E-01 -0.25860638859E-01  0.40911773617E-01  0.51100000000E-03 0. -1.
</event>
<event>
 8    1  0.1078274E+005  0.1043930E+01  0.7957747E-01            NaN
         13   -1    0    0    0    0  0.00000000000E+00  0.00000000000E+00  0.74505805969E-08  0.10566000000E+00  0.10566000000E+00 0. -1.
     999900   -1    0    0    0    0 -0.00000000000E+00 -0.00000000000E+00 -0.74505805969E-08  0.93827000000E+00  0.93827000000E+00 0. -1.
     999902    2    1    2    0    0 -0.32872495029E-03 -0.14968446367E-01 -0.18468826498E-01  0.10201548029E+01  0.10198777190E+01 0.  0.
     999903    2    3    3    0    0  0.98934288035E-01 -0.31913287773E-01  0.74433089334E-01  0.12955329862E+00  0.20912223921E-01 0.  0.
         14    1    1    2    0    0  0.32872495029E-03  0.14968446367E-01  0.18468826498E-01  0.23775197138E-01  0.00000000000E+00 0.  1.
     999901    1    3    3    0    0 -0.99263012986E-01  0.16944841406E-01 -0.92901915832E-01  0.89060150424E+00  0.88000000000E+00 0.  1.
        -11    1    4    4    0    0  0.32021079055E-01 -0.30552692039E-03  0.21884390890E-01  0.38789567363E-01  0.51100000000E-03 0.  1.
         11    1    4    4    0    0  0.66913208980E-01 -0.31607760853E-01  0.52548698444E-01  0.90763731255E-01  0.51100000000E-03 0. -1.
</event>
<event>
 8    1  0.1078274E+005  0.1043930E+01  0.7957747E-01            NaN
         13   -1    0    0    0    0  0.00000000000E+00  0.00000000000E+00  0.74505805969E-08  0.10566000000E+00  0.10566000000E+00 0.  1.
     999900   -1    0    0    0    0 -0.00000000000E+00 -0.00000000000E+00 -0.74505805969E-08  0.93827000000E+00  0.93827000000E+00 0.  1.
     999902    2    1    2    0    0 -0.19221904870E-01  0.71359113409E-02 -0.96050109568E-02  0.10212880237E+01  0.10210370063E+01 0.  0.
     999903    2    3    3    0    0 -0.57716742119E-01  0.39629463535E-01 -0.11223570628E+00  0.13389254076E+00  0.20703671321E-01 0.  0.
         14    1    1    2    0    0  0.19221904870E-01 -0.71359113409E-02  0.96050109568E-02  0.22641976349E-01  0.00000000000E+00 0. -1.
     999901    1    3    3    0    0  0.38494837249E-01 -0.32493552194E-01  0.10263069533E+00  0.88739548289E+00  0.88000000000E+00 0. -1.
        -11    1    4    4    0    0 -0.16772051436E-01  0.17478863951E-01 -0.23866009128E-01  0.34009703131E-01  0.51100000000E-03 0.  1.
         11    1    4    4    0    0 -0.40944690683E-01  0.22150599584E-01 -0.88369697154E-01  0.99882837631E-01  0.51100000000E-03 0. -1.
</event>
<event>
 8    1  0.1078274E+005  0.1043930E+01  0.7957747E-01            NaN
         13   -1    0    0    0    0  0.00000000000E+00  0.00000000000E+00  0.74505805969E-08  0.10566000000E+00  0.10566000000E+00 0. -1.
     999900   -1    0    0    0    0 -0.00000000000E+00 -0.00000000000E+00 -0.74505805969E-08  0.93827000000E+00  0.93827000000E+00 0.  1.
     999902    2    1    2    0    0 -0.21485343404E-01  0.36803125073E-02 -0.62689864967E-02  0.10212481819E+01  0.10209962704E+01 0.  0.
     999903    2    3    3    0    0 -0.88729937598E-01 -0.78739962694E-01 -0.57579578767E-01  0.13335871011E+00  0.19903620767E-01 0.  0.
         14    1    1    2    0    0  0.21485343404E-01 -0.36803125073E-02  0.62689864967E-02  0.22681818115E-01  0.00000000000E+00 0. -1.
     999901    1    3    3    0    0  0.67244594194E-01  0.82420275201E-01  0.51310592270E-01  0.88788947178E+00  0.88000000000E+00 0. -1.
        -11    1    4    4    0    0 -0.21070387300E-01 -0.13900636654E-01 -0.44643306947E-02  0.25639428424E-01  0.51100000000E-03 0. -1.
         11    1    4    4    0    0 -0.67659550297E-01 -0.64839326039E-01 -0.53115248072E-01  0.10771928168E+00  0.51100000000E-03 0.  1.
</event>
<event>
 8    1  0.1078274E+005  0.1043930E+01  0.7957747E-01            NaN
         13   -1    0    0    0    0  0.00000000000E+00  0.00000000000E+00  0.74505805969E-08  0.10566000000E+00  0.10566000000E+00 0.  1.
     999900   -1    0    0    0    0 -0.00000000000E+00 -0.00000000000E+00 -0.74505805969E-08  0.93827000000E+00  0.93827000000E+00 0.  1.
     999902    2    1    2    0    0  0.18178428535E-01 -0.15618428986E-01  0.17679064692E-02  0.10198984357E+01  0.10196152721E+01 0.  0.
     999903    2    3    3    0    0 -0.10065510899E+00  0.24825354366E-01 -0.72036452600E-01  0.12793196065E+00  0.20726477447E-01 0.  0.
         14    1    1    2    0    0 -0.18178428535E-01  0.15618428986E-01 -0.17679064692E-02  0.24031564270E-01  0.00000000000E+00 0.  1.
     999901    1    3    3    0    0  0.11883353752E+00 -0.40443783352E-01  0.73804359070E-01  0.89196647508E+00  0.88000000000E+00 0. -1.
        -11    1    4    4    0    0 -0.75788661928E-01  0.17133572792E-01 -0.42524104386E-01  0.88577881936E-01  0.51100000000E-03 0. -1.
         11    1    4    4    0    0 -0.24866447059E-01  0.76917815740E-02 -0.29512348215E-01  0.39354078712E-01  0.51100000000E-03 0.  1.
</event>
