<event>
 8    1  0.1112958E+005  0.1043930E+01  0.7957747E-01            NaN
         13   -1    0    0    0    0  0.00000000000E+00  0.00000000000E+00  0.74505805969E-08  0.10566000000E+00  0.10566000000E+00 0.  1.
     999900   -1    0    0    0    0 -0.00000000000E+00 -0.00000000000E+00 -0.74505805969E-08  0.93827000000E+00  0.93827000000E+00 0.  1.
     999902    2    1    2    0    0  0.97993093917E-02  0.30881910708E-01  0.18068527903E-01  0.10068329573E+01  0.10061492998E+01 0.  0.
     999903    2    3    3    0    0 -0.42809029266E-01 -0.61149068185E-01  0.88637021128E-01  0.11766635281E+00  0.20421252236E-01 0.  0.
         14    1    1    2    0    0 -0.97993093917E-02 -0.30881910708E-01 -0.18068527903E-01  0.37097042660E-01  0.00000000000E+00 0. -1.
     999901    1    3    3    0    0  0.52608338658E-01  0.92030978893E-01 -0.70568493225E-01  0.88916660453E+00  0.88000000000E+00 0.  1.
        -11    1    4    4    0    0 -0.13415840417E-01 -0.23346174946E-01  0.47184439448E-01  0.54329192021E-01  0.51100000000E-03 0. -1.
         11    1    4    4    0    0 -0.29393188849E-01 -0.37802893239E-01  0.41452581680E-01  0.63337160790E-01  0.51100000000E-03 0.  1.
</event>
<event>
 8    1  0.1112958E+005  0.1043930E+01  0.7957747E-01            NaN
         13   -1    0    0    0    0  0.00000000000E+00  0.00000000000E+00  0.74505805969E-08  0.10566000000E+00  0.10566000000E+00 0.  1.
     999900   -1    0    0    0    0 -0.00000000000E+00 -0.00000000000E+00 -0.74505805969E-08  0.93827000000E+00  0.93827000000E+00 0. -1.
     999902    2    1    2    0    0  0.38564285183E-02 -0.23500546366E-01 -0.54361987931E-03  0.10201089328E+01  0.10198307661E+01 0.  0.
     999903    2    3    3    0    0 -0.19358300164E-01 -0.20959821109E-01  0.12595910126E+00  0.13075618086E+00  0.20430999888E-01 0.  0.
         14    1    1    2    0    0 -0.38564285183E-02  0.23500546366E-01  0.54361987931E-03  0.23821067209E-01  0.00000000000E+00 0. -1.
     999901    1    3    3    0    0  0.23214728682E-01 -0.25407252568E-02 -0.12650272114E+00  0.88935275193E+00  0.88000000000E+00 0. -1.
        -11    1    4    4    0    0 -0.19557644245E-01 -0.68096473582E-02  0.67552998257E-01  0.70657918453E-01  0.51100000000E-03 0.  1.
         11    1    4    4    0    0  0.19934408129E-03 -0.14150173751E-01  0.58406103004E-01  0.60098262407E-01  0.51100000000E-03 0. -1.
</event>
<event>
 8    1  0.1112958E+005  0.1043930E+01  0.7957747E-01            NaN
         13   -1    0    0    0    0  0.00000000000E+00  0.00000000000E+00  0.74505805969E-08  0.10566000000E+00  0.10566000000E+00 0.  1.
     999900   -1    0    0    0    0 -0.00000000000E+00 -0.00000000000E+00 -0.74505805969E-08  0.93827000000E+00  0.93827000000E+00 0. -1.
     999902    2    1    2    0    0  0.16534799979E-01 -0.13443464758E-01  0.13659429674E-01  0.10186178216E+01  0.10183032751E+01 0.  0.
     999903    2    3    3    0    0  0.11021834287E+00  0.15655125726E-01  0.66976227693E-01  0.13156313609E+00  0.20733490668E-01 0.  0.
         14    1    1    2    0    0 -0.16534799979E-01  0.13443464758E-01 -0.13659429674E-01  0.25312178375E-01  0.00000000000E+00 0. -1.
     999901    1    3    3    0    0 -0.93683542892E-01 -0.29098590484E-01 -0.53316798019E-01  0.88705468553E+00  0.88000000000E+00 0. -1.
        -11    1    4    4    0    0  0.73315759243E-01  0.90054559764E-03  0.39965647316E-01  0.83507638107E-01  0.51100000000E-03 0. -1.
         11    1    4    4    0    0  0.36902583628E-01  0.14754580129E-01  0.27010580377E-01  0.48055497984E-01  0.51100000000E-03 0.  1.
</event>
<event>
 8    1  0.1112958E+005  0.1043930E+01  0.7957747E-01            NaN
         13   -1    0    0    0    0  0.00000000000E+00  0.00000000000E+00  0.74505805969E-08  0.10566000000E+00  0.10566000000E+00 0. -1.
     999900   -1    0    0    0    0 -0.00000000000E+00 -0.00000000000E+00 -0.74505805969E-08  0.93827000000E+00  0.93827000000E+00 0.  1.
     999902    2    1    2    0    0  0.63353412549E-02  0.18378994108E-01 -0.80197589051E-02  0.10229004849E+01  0.10226842922E+01 0.  0.
     999903    2    3    3    0    0 -0.10686725668E+00  0.40554209059E-01 -0.66367570409E-01  0.13345625648E+00  0.18457073675E-01 0.  0.
         14    1    1    2    0    0 -0.63353412549E-02 -0.18378994108E-01  0.80197589051E-02  0.21029515119E-01  0.00000000000E+00 0. -1.
     999901    1    3    3    0    0  0.11320259793E+00 -0.22175214951E-01  0.58347811504E-01  0.88944422841E+00  0.88000000000E+00 0. -1.
        -11    1    4    4    0    0 -0.58409793764E-01  0.26536539078E-01 -0.46508085916E-01  0.79241119947E-01  0.51100000000E-03 0. -1.
         11    1    4    4    0    0 -0.48457462911E-01  0.14017669981E-01 -0.19859484493E-01  0.54215136529E-01  0.51100000000E-03 0.  1.
</event>
<event>
 8    1  0.1112958E+005  0.1043930E+01  0.7957747E-01            NaN
         13   -1    0    0    0    0  0.00000000000E+00  0.00000000000E+00  0.74505805969E-08  0.10566000000E+00  0.10566000000E+00 0.  1.
     999900   -1    0    0    0    0 -0.00000000000E+00 -0.00000000000E+00 -0.74505805969E-08  0.93827000000E+00  0.93827000000E+00 0. -1.
     999902    2    1    2    0    0 -0.70221392582E-02  0.22312878105E-01 -0.21699185428E-02  0.10204377988E+01  0.10201673479E+01 0.  0.
     999903    2    3    3    0    0 -0.77882529360E-02  0.13175195658E+00 -0.79059230451E-02  0.13363996360E+00  0.19439683809E-01 0.  0.
         14    1    1    2    0    0  0.70221392582E-02 -0.22312878105E-01  0.21699185428E-02  0.23492201165E-01  0.00000000000E+00 0.  1.
     999901    1    3    3    0    0  0.76611367778E-03 -0.10943907847E+00  0.57360045023E-02  0.88679783523E+00  0.88000000000E+00 0. -1.
        -11    1    4    4    0    0 -0.17171756961E-02  0.59594630991E-01  0.59307346315E-02  0.59915803171E-01  0.51100000000E-03 0. -1.
         11    1    4    4    0    0 -0.60710772399E-02  0.72157325586E-01 -0.13836657677E-01  0.73724160431E-01  0.51100000000E-03 0.  1.
</event>
<event>
 8    1  0.1112958E+005  0.1043930E+01  0.7957747E-01            NaN
         13   -1    0    0    0    0  0.00000000000E+00  0.00000000000E+00  0.74505805969E-08  0.10566000000E+00  0.10566000000E+00 0. -1.
     999900   -1    0    0    0    0 -0.00000000000E+00 -0.00000000000E+00 -0.74505805969E-08  0.93827000000E+00  0.93827000000E+00 0. -1.
     999902    2    1    2    0    0 -0.40460236672E-02 -0.24827436595E-02 -0.23533308082E-01  0.10199226904E+01  0.10196401049E+01 0.  0.
     999903    2    3    3    0    0  0.55497024567E-01 -0.99993268924E-01  0.56823835226E-01  0.12890588497E+00  0.17584236234E-01 0.  0.
         14    1    1    2    0    0  0.40460236672E-02  0.24827436595E-02  0.23533308082E-01  0.24007309572E-01  0.00000000000E+00 0. -1.
     999901    1    3    3    0    0 -0.59543048234E-01  0.97510525264E-01 -0.80357143308E-01  0.89101680546E+00  0.88000000000E+00 0. -1.
        -11    1    4    4    0    0  0.44052826502E-01 -0.71826232355E-01  0.49138094868E-01  0.97542158401E-01  0.51100000000E-03 0. -1.
         11    1    4    4    0    0  0.11444198065E-01 -0.28167036568E-01  0.76857403582E-02  0.31363726568E-01  0.51100000000E-03 0.  1.
</event>
<event>
 8    1  0.1112958E+005  0.1043930E+01  0.7957747E-01            NaN
         13   -1    0    0    0    0  0.00000000000E+00  0.00000000000E+00  0.74505805969E-08  0.10566000000E+00  0.10566000000E+00 0. -1.
     999900   -1    0    0    0    0 -0.00000000000E+00 -0.00000000000E+00 -0.74505805969E-08  0.93827000000E+00  0.93827000000E+00 0.  1.
     999902    2    1    2    0    0  0.19233105698E-01 -0.83427394985E-02  0.99996978752E-02  0.10207026968E+01  0.10204383801E+01 0.  0.
     999903    2    3    3    0    0 -0.38532565716E-01 -0.10071899440E+00 -0.69358563020E-01  0.13043982614E+00  0.23976311779E-01 0.  0.
         14    1    1    2    0    0 -0.19233105698E-01  0.83427394985E-02 -0.99996978752E-02  0.23227303217E-01  0.00000000000E+00 0.  1.
     999901    1    3    3    0    0  0.57765671414E-01  0.92376254903E-01  0.79358260895E-01  0.89026287064E+00  0.88000000000E+00 0.  1.
        -11    1    4    4    0    0  0.27849144706E-02 -0.15560594784E-01 -0.10169073090E-01  0.18803165349E-01  0.51100000000E-03 0.  1.
         11    1    4    4    0    0 -0.41317480186E-01 -0.85158399618E-01 -0.59189489930E-01  0.11163666080E+00  0.51100000000E-03 0. -1.
</event>
<event>
 8    1  0.1112958E+005  0.1043930E+01  0.7957747E-01            NaN
         13   -1    0    0    0    0  0.00000000000E+00  0.00000000000E+00  0.74505805969E-08  0.10566000000E+00  0.10566000000E+00 0. -1.
     999900   -1    0    0    0    0 -0.00000000000E+00 -0.00000000000E+00 -0.74505805969E-08  0.93827000000E+00  0.93827000000E+00 0.  1.
     999902    2    1    2    0    0 -0.50397563776E-02 -0.87146444034E-02 -0.21486005021E-01  0.10202025353E+01  0.10199265760E+01 0.  0.
     999903    2    3    3    0    0 -0.66377658504E-01 -0.11135051140E+00  0.27992150807E-02  0.13178471050E+00  0.23546642593E-01 0.  0.
         14    1    1    2    0    0  0.50397563776E-02  0.87146444034E-02  0.21486005021E-01  0.23727464744E-01  0.00000000000E+00 0. -1.
     999901    1    3    3    0    0  0.61337902127E-01  0.10263586700E+00 -0.24285220101E-01  0.88841782476E+00  0.88000000000E+00 0. -1.
        -11    1    4    4    0    0 -0.64795380227E-02 -0.25453095425E-01 -0.51234094155E-02  0.26764807579E-01  0.51100000000E-03 0. -1.
         11    1    4    4    0    0 -0.59898120482E-01 -0.85897415980E-01  0.79226244961E-02  0.10501990292E+00  0.51100000000E-03 0.  1.
</event>
<event>
 8    1  0.1112958E+005  0.1043930E+01  0.7957747E-01            NaN
         13   -1    0    0    0    0  0.00000000000E+00  0.00000000000E+00  0.74505805969E-08  0.10566000000E+00  0.10566000000E+00 0. -1.
     999900   -1    0    0    0    0 -0.00000000000E+00 -0.00000000000E+00 -0.74505805969E-08  0.93827000000E+00  0.93827000000E+00 0. -1.
     999902    2    1    2    0    0  0.13868315546E-01  0.17401253453E-01 -0.68598862039E-02  0.10206449869E+01  0.10203793399E+01 0.  0.
     999903    2    3    3    0    0  0.98615193595E-01  0.38533918716E-01  0.76732117632E-01  0.13237912240E+00  0.20654173200E-01 0.  0.
         14    1    1    2    0    0 -0.13868315546E-01 -0.17401253453E-01  0.68598862039E-02  0.23285013132E-01  0.00000000000E+00 0. -1.
     999901    1    3    3    0    0 -0.84746878049E-01 -0.21132665263E-01 -0.83592003836E-01  0.88826586447E+00  0.88000000000E+00 0.  1.
        -11    1    4    4    0    0  0.39694899748E-01  0.49485192678E-02  0.30316785814E-01  0.50195034934E-01  0.51100000000E-03 0. -1.
         11    1    4    4    0    0  0.58920293848E-01  0.33585399448E-01  0.46415331818E-01  0.82184087462E-01  0.51100000000E-03 0.  1.
</event>
<event>
 8    1  0.1112958E+005  0.1043930E+01  0.7957747E-01            NaN
         13   -1    0    0    0    0  0.00000000000E+00  0.00000000000E+00  0.74505805969E-08  0.10566000000E+00  0.10566000000E+00 0.  1.
     999900   -1    0    0    0    0 -0.00000000000E+00 -0.00000000000E+00 -0.74505805969E-08  0.93827000000E+00  0.93827000000E+00 0. -1.
     999902    2    1    2    0    0  0.12248923282E-01 -0.90099699277E-02 -0.16007068030E-01  0.10218519134E+01  0.10216133765E+01 0.  0.
     999903    2    3    3    0    0  0.11084638057E+00  0.65694169573E-01 -0.29503912306E-01  0.13309754250E+00  0.15550915628E-01 0.  0.
         14    1    1    2    0    0 -0.12248923282E-01  0.90099699277E-02  0.16007068030E-01  0.22078086570E-01  0.00000000000E+00 0.  1.
     999901    1    3    3    0    0 -0.98597457288E-01 -0.74704139500E-01  0.13496844276E-01  0.88875437093E+00  0.88000000000E+00 0.  1.
        -11    1    4    4    0    0  0.56961639078E-01  0.37514958059E-01 -0.22807175034E-01  0.71919599267E-01  0.51100000000E-03 0.  1.
         11    1    4    4    0    0  0.53884741492E-01  0.28179211514E-01 -0.66967372721E-02  0.61177943233E-01  0.51100000000E-03 0. -1.
</event>
<event>
 8    1  0.1112958E+005  0.1043930E+01  0.7957747E-01            NaN
         13   -1    0    0    0    0  0.00000000000E+00  0.00000000000E+00  0.74505805969E-08  0.10566000000E+00  0.10566000000E+00 0. -1.
     999900   -1    0    0    0    0 -0.00000000000E+00 -0.00000000000E+00 -0.74505805969E-08  0.93827000000E+00  0.93827000000E+00 0.  1.
     999902    2    1    2    0    0  0.96335851744E-02  0.45034043534E-02 -0.21291705884E-01  0.10201303497E+01  0.10198526889E+01 0.  0.
     999903    2    3    3    0    0 -0.19236827406E-01  0.12510835202E+00 -0.29813385656E-01  0.13139435227E+00  0.18801132170E-01 0.  0.
         14    1    1    2    0    0 -0.96335851744E-02 -0.45034043534E-02  0.21291705884E-01  0.23799650282E-01  0.00000000000E+00 0. -1.
     999901    1    3    3    0    0  0.28870412580E-01 -0.12060494767E+00  0.85216797718E-02  0.88873599744E+00  0.88000000000E+00 0.  1.
        -11    1    4    4    0    0 -0.13711748315E-02  0.65194957845E-01 -0.19185411221E-01  0.67975023160E-01  0.51100000000E-03 0.  1.
         11    1    4    4    0    0 -0.17865652574E-01  0.59913394178E-01 -0.10627974435E-01  0.63419329115E-01  0.51100000000E-03 0. -1.
</event>
<event>
 8    1  0.1112958E+005  0.1043930E+01  0.7957747E-01            NaN
         13   -1    0    0    0    0  0.00000000000E+00  0.00000000000E+00  0.74505805969E-08  0.10566000000E+00  0.10566000000E+00 0.  1.
     999900   -1    0    0    0    0 -0.00000000000E+00 -0.00000000000E+00 -0.74505805969E-08  0.93827000000E+00  0.93827000000E+00 0.  1.
     999902    2    1    2    0    0 -0.63478919697E-02  0.25473662759E-01 -0.19189317355E-01  0.10114118031E+01  0.10108889169E+01 0.  0.
     999903    2    3    3    0    0 -0.25426538374E-01 -0.34839835705E-01  0.10988836466E+00  0.11974888429E+00  0.20100238719E-01 0.  0.
         14    1    1    2    0    0  0.63478919697E-02 -0.25473662759E-01  0.19189317355E-01  0.32518196865E-01  0.00000000000E+00 0.  1.
     999901    1    3    3    0    0  0.19078646405E-01  0.60313498463E-01 -0.12907768201E+00  0.89166291884E+00  0.88000000000E+00 0.  1.
        -11    1    4    4    0    0  0.84925877900E-04 -0.10758020576E-01  0.41634105621E-01  0.43004675223E-01  0.51100000000E-03 0.  1.
         11    1    4    4    0    0 -0.25511464252E-01 -0.24081815128E-01  0.68254259036E-01  0.76744209070E-01  0.51100000000E-03 0. -1.
</event>
<event>
 8    1  0.1112958E+005  0.1043930E+01  0.7957747E-01            NaN
         13   -1    0    0    0    0  0.00000000000E+00  0.00000000000E+00  0.74505805969E-08  0.10566000000E+00  0.10566000000E+00 0. -1.
     999900   -1    0    0    0    0 -0.00000000000E+00 -0.00000000000E+00 -0.74505805969E-08  0.93827000000E+00  0.93827000000E+00 0.  1.
     999902    2    1    2    0    0  0.22389988432E-01 -0.52930165701E-02 -0.66594284756E-02  0.10199784741E+01  0.10196972158E+01 0.  0.
     999903    2    3    3    0    0  0.11186843413E+00 -0.50797847398E-01 -0.47971876143E-01  0.13330841131E+00  0.19361398984E-01 0.  0.
         14    1    1    2    0    0 -0.22389988432E-01  0.52930165701E-02  0.66594284756E-02  0.23951525922E-01  0.00000000000E+00 0.  1.
     999901    1    3    3    0    0 -0.89478445699E-01  0.45504830828E-01  0.41312447667E-01  0.88667006277E+00  0.88000000000E+00 0. -1.
        -11    1    4    4    0    0  0.70028137894E-01 -0.34028708453E-01 -0.20480920415E-01  0.80508523263E-01  0.51100000000E-03 0. -1.
         11    1    4    4    0    0  0.41840296236E-01 -0.16769138945E-01 -0.27490955729E-01  0.52799888049E-01  0.51100000000E-03 0.  1.
</event>
<event>
 8    1  0.1112958E+005  0.1043930E+01  0.7957747E-01            NaN
         13   -1    0    0    0    0  0.00000000000E+00  0.00000000000E+00  0.74505805969E-08  0.10566000000E+00  0.10566000000E+00 0.  1.
     999900   -1    0    0    0    0 -0.00000000000E+00 -0.00000000000E+00 -0.74505805969E-08  0.93827000000E+00  0.93827000000E+00 0. -1.
     999902    2    1    2    0    0 -0.46291895970E-02  0.10545075638E-01 -0.22016444707E-01  0.10190834338E+01  0.10187804931E+01 0.  0.
     999903    2    3    3    0    0  0.95681124222E-01  0.80391537805E-01  0.25802415850E-01  0.12934901790E+00  0.21159557765E-01 0.  0.
         14    1    1    2    0    0  0.46291895970E-02 -0.10545075638E-01  0.22016444707E-01  0.24846566243E-01  0.00000000000E+00 0.  1.
     999901    1    3    3    0    0 -0.10031031382E+00 -0.69846462167E-01 -0.47818860557E-01  0.88973441586E+00  0.88000000000E+00 0. -1.
        -11    1    4    4    0    0  0.63611370127E-01  0.57200317448E-01  0.79117425308E-02  0.85913558397E-01  0.51100000000E-03 0.  1.
         11    1    4    4    0    0  0.32069754095E-01  0.23191220357E-01  0.17890673319E-01  0.43435459503E-01  0.51100000000E-03 0. -1.
</event>
<event>
 8    1  0.1112958E+005  0.1043930E+01  0.7957747E-01            NaN
         13   -1    0    0    0    0  0.00000000000E+00  0.00000000000E+00  0.74505805969E-08  0.10566000000E+00  0.10566000000E+00 0.  1.
     999900   -1    0    0    0    0 -0.00000000000E+00 -0.00000000000E+00 -0.74505805969E-08  0.93827000000E+00  0.93827000000E+00 0. -1.
     999902    2    1    2    0    0  0.19973396059E-01  0.30936098927E-02  0.11178071990E-01  0.10208333278E+01  0.10205720097E+01 0.  0.
     999903    2    3    3    0    0  0.29066311209E-01  0.11129689987E+00  0.62768321135E-01  0.13265981613E+00  0.20661904767E-01 0.  0.
         14    1    1    2    0    0 -0.19973396059E-01 -0.30936098927E-02 -0.11178071990E-01  0.23096672178E-01  0.00000000000E+00 0. -1.
     999901    1    3    3    0    0 -0.90929151506E-02 -0.10820328998E+00 -0.51590249145E-01  0.88817351169E+00  0.88000000000E+00 0.  1.
        -11    1    4    4    0    0  0.21181749590E-01  0.76325494423E-01  0.32060764842E-01  0.85454089298E-01  0.51100000000E-03 0. -1.
         11    1    4    4    0    0  0.78845616198E-02  0.34971405449E-01  0.30707556293E-01  0.47205726829E-01  0.51100000000E-03 0.  1.
</event>
<event>
 8    1  0.1112958E+005  0.1043930E+01  0.7957747E-01            NaN
         13   -1    0    0    0    0  0.00000000000E+00  0.00000000000E+00  0.74505805969E-08  0.10566000000E+00  0.10566000000E+00 0.  1.
     999900   -1    0    0    0    0 -0.00000000000E+00 -0.00000000000E+00 -0.74505805969E-08  0.93827000000E+00  0.93827000000E+00 0.  1.
     999902    2    1    2    0    0 -0.13176558183E-01 -0.13198016327E-01 -0.14628592014E-01  0.10202275734E+01  0.10199522031E+01 0.  0.
     999903    2    3    3    0    0 -0.20918001174E-01 -0.12239501903E+00 -0.42478288667E-01  0.13300746493E+00  0.21644335606E-01 0.  0.
         14    1    1    2    0    0  0.13176558183E-01  0.13198016327E-01  0.14628592014E-01  0.23702426560E-01  0.00000000000E+00 0. -1.
     999901    1    3    3    0    0  0.77414429914E-02  0.10919700270E+00  0.27849696653E-01  0.88722010851E+00  0.88000000000E+00 0. -1.
        -11    1    4    4    0    0 -0.10694342384E-02 -0.65113082344E-01 -0.26521729229E-01  0.70317283966E-01  0.51100000000E-03 0.  1.
         11    1    4    4    0    0 -0.19848566936E-01 -0.57281936682E-01 -0.15956559437E-01  0.62690180966E-01  0.51100000000E-03 0. -1.
</event>
<event>
 8    1  0.1112958E+005  0.1043930E+01  0.7957747E-01            NaN
         13   -1    0    0    0    0  0.00000000000E+00  0.00000000000E+00  0.74505805969E-08  0.10566000000E+00  0.10566000000E+00 0. -1.
     999900   -1    0    0    0    0 -0.00000000000E+00 -0.00000000000E+00 -0.74505805969E-08  0.93827000000E+00  0.93827000000E+00 0. -1.
     999902    2    1    2    0    0 -0.95992446293E-02  0.11589017512E-02 -0.21062749744E-01  0.10207539784E+01  0.10204908409E+01 0.  0.
     999903    2    3    3    0    0 -0.14780505958E-01 -0.11689850148E+00 -0.56305893738E-01  0.13215593928E+00  0.20275986075E-01 0.  0.
         14    1    1    2    0    0  0.95992446293E-02 -0.11589017512E-02  0.21062749744E-01  0.23176021606E-01  0.00000000000E+00 0. -1.
     999901    1    3    3    0    0  0.51812613286E-02  0.11805740323E+00  0.35243143994E-01  0.88859803912E+00  0.88000000000E+00 0. -1.
        -11    1    4    4    0    0 -0.71555344795E-02 -0.74901166494E-01 -0.46178002180E-01  0.88283947704E-01  0.51100000000E-03 0.  1.
         11    1    4    4    0    0 -0.76249714783E-02 -0.41997334987E-01 -0.10127891558E-01  0.43871991571E-01  0.51100000000E-03 0. -1.
</event>
<event>
 8    1  0.1112958E+005  0.1043930E+01  0.7957747E-01            NaN
         13   -1    0    0    0    0  0.00000000000E+00  0.00000000000E+00  0.74505805969E-08  0.10566000000E+00  0.10566000000E+00 0. -1.
     999900   -1    0    0    0    0 -0.00000000000E+00 -0.00000000000E+00 -0.74505805969E-08  0.93827000000E+00  0.93827000000E+00 0.  1.
     999902    2    1    2    0    0  0.37985944850E-03 -0.22177168079E-01  0.76758881961E-02  0.10204589468E+01  0.10201889883E+01 0.  0.
     999903    2    3    3    0    0 -0.18290943419E-01  0.12436254354E+00 -0.63532498114E-02  0.12803567132E+00  0.23498265918E-01 0.  0.
         14    1    1    2    0    0 -0.37985944850E-03  0.22177168079E-01 -0.76758881961E-02  0.23471053168E-01  0.00000000000E+00 0.  1.
     999901    1    3    3    0    0  0.18670802868E-01 -0.14653971162E+00  0.14029138007E-01  0.89242327551E+00  0.88000000000E+00 0.  1.
        -11    1    4    4    0    0 -0.21324233136E-01  0.86652899356E-01 -0.11006082245E-01  0.89915754199E-01  0.51100000000E-03 0. -1.
         11    1    4    4    0    0  0.30332897164E-02  0.37709644181E-01  0.46528324340E-02  0.38119917123E-01  0.51100000000E-03 0.  1.
</event>
<event>
 8    1  0.1112958E+005  0.1043930E+01  0.7957747E-01            NaN
         13   -1    0    0    0    0  0.00000000000E+00  0.00000000000E+00  0.74505805969E-08  0.10566000000E+00  0.10566000000E+00 0.  1.
     999900   -1    0    0    0    0 -0.00000000000E+00 -0.00000000000E+00 -0.74505805969E-08  0.93827000000E+00  0.93827000000E+00 0.  1.
     999902    2    1    2    0    0  0.17191010159E-01 -0.66288331426E-02 -0.15848628867E-01  0.10196266814E+01  0.10193369993E+01 0.  0.
     999903    2    3    3    0    0 -0.89293522748E-01  0.23728199103E-01  0.84785267730E-01  0.12699703460E+00  0.20083439367E-01 0.  0.
         14    1    1    2    0    0 -0.17191010159E-01  0.66288331426E-02  0.15848628867E-01  0.24303318622E-01  0.00000000000E+00 0.  1.
     999901    1    3    3    0    0  0.10648453291E+00 -0.30357032246E-01 -0.10063389660E+00  0.89262964677E+00  0.88000000000E+00 0.  1.
        -11    1    4    4    0    0 -0.89944017393E-02 -0.10659020213E-02  0.25700738380E-02  0.94287756522E-02  0.51100000000E-03 0.  1.
         11    1    4    4    0    0 -0.80299121008E-01  0.24794101124E-01  0.82215193892E-01  0.11756825895E+00  0.51100000000E-03 0. -1.
</event>
<event>
 8    1  0.1112958E+005  0.1043930E+01  0.7957747E-01            NaN
         13   -1    0    0    0    0  0.00000000000E+00  0.00000000000E+00  0.74505805969E-08  0.10566000000E+00  0.10566000000E+00 0. -1.
     999900   -1    0    0    0    0 -0.00000000000E+00 -0.00000000000E+00 -0.74505805969E-08  0.93827000000E+00  0.93827000000E+00 0.  1.
     999902    2    1    2    0    0 -0.10642267491E-01  0.99218563528E-02 -0.19023409596E-01  0.10199802358E+01  0.10196990195E+01 0.  0.
     999903    2    3    3    0    0 -0.10608671105E+00  0.54908861336E-01  0.49992458631E-01  0.13099392408E+00  0.19768381602E-01 0.  0.
         14    1    1    2    0    0  0.10642267491E-01 -0.99218563528E-02  0.19023409596E-01  0.23949764164E-01  0.00000000000E+00 0. -1.
     999901    1    3    3    0    0  0.95444443559E-01 -0.44987004983E-01 -0.69015868227E-01  0.88898631176E+00  0.88000000000E+00 0.  1.
        -11    1    4    4    0    0 -0.49060813343E-01  0.34388006780E-01  0.31126837901E-01  0.67517698234E-01  0.51100000000E-03 0. -1.
         11    1    4    4    0    0 -0.57025897707E-01  0.20520854556E-01  0.18865620730E-01  0.63476225845E-01  0.51100000000E-03 0.  1.
</event>
<event>
 8    1  0.1112958E+005  0.1043930E+01  0.7957747E-01            NaN
         13   -1    0    0    0    0  0.00000000000E+00  0.00000000000E+00  0.74505805969E-08  0.10566000000E+00  0.10566000000E+00 0.  1.
     999900   -1    0    0    0    0 -0.00000000000E+00 -0.00000000000E+00 -0.74505805969E-08  0.93827000000E+00  0.93827000000E+00 0. -1.
     999902    2    1    2    0    0 -0.21755610626E-01 -0.78397755956E-02 -0.75522930765E-02  0.10196029409E+01  0.10193126857E+01 0.  0.
     999903    2    3    3    0    0  0.73622627854E-01  0.10195814878E+00 -0.78215682633E-02  0.12766535052E+00  0.20530693093E-01 0.  0.
         14    1    1    2    0    0  0.21755610626E-01  0.78397755956E-02  0.75522930765E-02  0.24327059128E-01  0.00000000000E+00 0. -1.
     999901    1    3    3    0    0 -0.95378238481E-01 -0.10979792437E+00  0.26927518678E-03  0.89193759035E+00  0.88000000000E+00 0. -1.
        -11    1    4    4    0    0  0.18907560084E-01  0.41465991699E-01  0.12601119242E-02  0.45593566421E-01  0.51100000000E-03 0.  1.
         11    1    4    4    0    0  0.54715067770E-01  0.60492157079E-01 -0.90816801875E-02  0.82071784099E-01  0.51100000000E-03 0. -1.
</event>
<event>
 8    1  0.1112958E+005  0.1043930E+01  0.7957747E-01            NaN
         13   -1    0    0    0    0  0.00000000000E+00  0.00000000000E+00  0.74505805969E-08  0.10566000000E+00  0.10566000000E+00 0.  1.
     999900   -1    0    0    0    0 -0.00000000000E+00 -0.00000000000E+00 -0.74505805969E-08  0.93827000000E+00  0.93827000000E+00 0. -1.
     999902    2    1    2    0    0 -0.12382330303E-01 -0.19432922766E-01 -0.63397912920E-02  0.10200311811E+01  0.10197511740E+01 0.  0.
     999903    2    3    3    0    0  0.68160813909E-02  0.10263412025E+00  0.71697744146E-01  0.12797804427E+00  0.25643550735E-01 0.  0.
         14    1    1    2    0    0  0.12382330303E-01  0.19432922766E-01  0.63397912920E-02  0.23898818895E-01  0.00000000000E+00 0. -1.
     999901    1    3    3    0    0 -0.19198411694E-01 -0.12206704302E+00 -0.78037535437E-01  0.89205313684E+00  0.88000000000E+00 0. -1.
        -11    1    4    4    0    0  0.11337664682E-01  0.49231600762E-01  0.46851346545E-01  0.68902851524E-01  0.51100000000E-03 0. -1.
         11    1    4    4    0    0 -0.45215832910E-02  0.53402519488E-01  0.24846397600E-01  0.59075192745E-01  0.51100000000E-03 0.  1.
</event>
<event>
 8    1  0.1112958E+005  0.1043930E+01  0.7957747E-01            NaN
         13   -1    0    0    0    0  0.00000000000E+00  0.00000000000E+00  0.74505805969E-08  0.10566000000E+00  0.10566000000E+00 0. -1.
     999900   -1    0    0    0    0 -0.00000000000E+00 -0.00000000000E+00 -0.74505805969E-08  0.93827000000E+00  0.93827000000E+00 0. -1.
     999902    2    1    2    0    0  0.12813752792E-01  0.49795513399E-02  0.20988639995E-01  0.10188399382E+01  0.10185309561E+01 0.  0.
     999903    2    3    3    0    0  0.10823087856E+00 -0.47642651223E-01  0.54220724270E-01  0.13149677149E+00  0.19177296009E-01 0.  0.
         14    1    1    2    0    0 -0.12813752792E-01 -0.49795513399E-02 -0.20988639995E-01  0.25090061797E-01  0.00000000000E+00 0.  1.
     999901    1    3    3    0    0 -0.95417125766E-01  0.52622202563E-01 -0.33232084275E-01  0.88734316672E+00  0.88000000000E+00 0.  1.
        -11    1    4    4    0    0  0.21421916281E-01 -0.31168341968E-02  0.15018411174E-01  0.26351981856E-01  0.51100000000E-03 0.  1.
         11    1    4    4    0    0  0.86808962277E-01 -0.44525817027E-01  0.39202313096E-01  0.10514478963E+00  0.51100000000E-03 0. -1.
</event>
<event>
 8    1  0.1112958E+005  0.1043930E+01  0.7957747E-01            NaN
         13   -1    0    0    0    0  0.00000000000E+00  0.00000000000E+00  0.74505805969E-08  0.10566000000E+00  0.10566000000E+00 0. -1.
     999900   -1    0    0    0    0 -0.00000000000E+00 -0.00000000000E+00 -0.74505805969E-08  0.93827000000E+00  0.93827000000E+00 0. -1.
     999902    2    1    2    0    0  0.18908792845E-01  0.15850976450E-02 -0.13917733590E-01  0.10203979306E+01  0.10201265502E+01 0.  0.
     999903    2    3    3    0    0 -0.12561907148E+00 -0.14780228822E-01 -0.10344237375E-01  0.12845124086E+00  0.19852247982E-01 0.  0.
         14    1    1    2    0    0 -0.18908792845E-01 -0.15850976450E-02  0.13917733590E-01  0.23532069388E-01  0.00000000000E+00 0. -1.
     999901    1    3    3    0    0  0.14452786432E+00  0.16365326467E-01 -0.35734962155E-02  0.89194668975E+00  0.88000000000E+00 0.  1.
        -11    1    4    4    0    0 -0.45474402431E-01 -0.13805030163E-01 -0.84819862113E-02  0.48277379230E-01  0.51100000000E-03 0.  1.
         11    1    4    4    0    0 -0.80144669046E-01 -0.97519865927E-03 -0.18622511635E-02  0.80173861634E-01  0.51100000000E-03 0. -1.
</event>
<event>
 8    1  0.1112958E+005  0.1043930E+01  0.7957747E-01            NaN
         13   -1    0    0    0    0  0.00000000000E+00  0.00000000000E+00  0.74505805969E-08  0.10566000000E+00  0.10566000000E+00 0. -1.
     999900   -1    0    0    0    0 -0.00000000000E+00 -0.00000000000E+00 -0.74505805969E-08  0.93827000000E+00  0.93827000000E+00 0. -1.
     999902    2    1    2    0    0 -0.18725211267E-01 -0.15017455127E-01  0.23371665936E-02  0.10198132041E+01  0.10195280043E+01 0.  0.
     999903    2    3    3    0    0 -0.84440287919E-01 -0.82693401922E-01 -0.57309422158E-01  0.13276403941E+00  0.19327683446E-01 0.  0.
         14    1    1    2    0    0  0.18725211267E-01  0.15017455127E-01 -0.23371665936E-02  0.24116795873E-01  0.00000000000E+00 0. -1.
     999901    1    3    3    0    0  0.65715076651E-01  0.67675946795E-01  0.59646588751E-01  0.88704916472E+00  0.88000000000E+00 0.  1.
        -11    1    4    4    0    0 -0.59359197222E-01 -0.45107643280E-01 -0.34698059550E-01  0.82233996831E-01  0.51100000000E-03 0. -1.
         11    1    4    4    0    0 -0.25081090697E-01 -0.37585758641E-01 -0.22611362607E-01  0.50530042580E-01  0.51100000000E-03 0.  1.
</event>
<event>
 8    1  0.1112958E+005  0.1043930E+01  0.7957747E-01            NaN
         13   -1    0    0    0    0  0.00000000000E+00  0.00000000000E+00  0.74505805969E-08  0.10566000000E+00  0.10566000000E+00 0.  1.
     999900   -1    0    0    0    0 -0.00000000000E+00 -0.00000000000E+00 -0.74505805969E-08  0.93827000000E+00  0.93827000000E+00 0.  1.
     999902    2    1    2    0    0 -0.12295101948E-01 -0.16734028691E-01 -0.11897466113E-01  0.10199978679E+01  0.10197170703E+01 0.  0.
     999903    2    3    3    0    0  0.10422540846E+00 -0.74604592884E-01 -0.11486902547E-01  0.13043269314E+00  0.21259291180E-01 0.  0.
         14    1    1    2    0    0  0.12295101948E-01  0.16734028691E-01  0.11897466113E-01  0.23932132125E-01  0.00000000000E+00 0.  1.
     999901    1    3    3    0    0 -0.11652051040E+00  0.57870564193E-01 -0.41056356649E-03  0.88956517474E+00  0.88000000000E+00 0. -1.
        -11    1    4    4    0    0  0.16460040712E-01 -0.21961638166E-01 -0.36605526502E-04  0.27450117526E-01  0.51100000000E-03 0.  1.
         11    1    4    4    0    0  0.87765367743E-01 -0.52642954718E-01 -0.11450297020E-01  0.10298257561E+00  0.51100000000E-03 0. -1.
</event>
<event>
 8    1  0.1112958E+005  0.1043930E+01  0.7957747E-01            NaN
         13   -1    0    0    0    0  0.00000000000E+00  0.00000000000E+00  0.74505805969E-08  0.10566000000E+00  0.10566000000E+00 0. -1.
     999900   -1    0    0    0    0 -0.00000000000E+00 -0.00000000000E+00 -0.74505805969E-08  0.93827000000E+00  0.93827000000E+00 0. -1.
     999902    2    1    2    0    0 -0.60390409825E-02 -0.20891403645E-01 -0.10378169985E-01  0.10198337934E+01  0.10195490861E+01 0.  0.
     999903    2    3    3    0    0  0.12654082953E+00  0.14126375808E-01 -0.76566092477E-02  0.12920981331E+00  0.20601363075E-01 0.  0.
         14    1    1    2    0    0  0.60390409825E-02  0.20891403645E-01  0.10378169985E-01  0.24096206641E-01  0.00000000000E+00 0. -1.
     999901    1    3    3    0    0 -0.13257987051E+00 -0.35017779453E-01 -0.27215607373E-02  0.89062398005E+00  0.88000000000E+00 0.  1.
        -11    1    4    4    0    0  0.43788353239E-01  0.12324354799E-01 -0.92380634554E-02  0.46421035512E-01  0.51100000000E-03 0. -1.
         11    1    4    4    0    0  0.82752476286E-01  0.18020210094E-02  0.15814542077E-02  0.82788777800E-01  0.51100000000E-03 0.  1.
</event>
<event>
 8    1  0.1112958E+005  0.1043930E+01  0.7957747E-01            NaN
         13   -1    0    0    0    0  0.00000000000E+00  0.00000000000E+00  0.74505805969E-08  0.10566000000E+00  0.10566000000E+00 0. -1.
     999900   -1    0    0    0    0 -0.00000000000E+00 -0.00000000000E+00 -0.74505805969E-08  0.93827000000E+00  0.93827000000E+00 0.  1.
     999902    2    1    2    0    0 -0.10371056233E-01  0.13836667167E-01 -0.16447567744E-01  0.10200650749E+01  0.10197858708E+01 0.  0.
     999903    2    3    3    0    0  0.53897560260E-01  0.11613115051E+00 -0.23772219866E-01  0.13178118620E+00  0.20242812966E-01 0.  0.
         14    1    1    2    0    0  0.10371056233E-01 -0.13836667167E-01  0.16447567744E-01  0.23864925107E-01  0.00000000000E+00 0. -1.
     999901    1    3    3    0    0 -0.64268616493E-01 -0.10229448335E+00  0.73246521226E-02  0.88828388870E+00  0.88000000000E+00 0. -1.
        -11    1    4    4    0    0  0.34895443373E-01  0.90778576715E-01 -0.12070113228E-01  0.98001993413E-01  0.51100000000E-03 0.  1.
         11    1    4    4    0    0  0.19002116888E-01  0.25352573797E-01 -0.11702106638E-01  0.33779192784E-01  0.51100000000E-03 0. -1.
</event>
<event>
 8    1  0.1112958E+005  0.1043930E+01  0.7957747E-01            NaN
         13   -1    0    0    0    0  0.00000000000E+00  0.00000000000E+00  0.74505805969E-08  0.10566000000E+00  0.10566000000E+00 0. -1.
     999900   -1    0    0    0    0 -0.00000000000E+00 -0.00000000000E+00 -0.74505805969E-08  0.93827000000E+00  0.93827000000E+00 0. -1.
     999902    2    1    2    0    0  0.23869503800E-01  0.46396586571E-02  0.37578988658E-02  0.10193250930E+01  0.10190280878E+01 0.  0.
     999903    2    3    3    0    0 -0.56477692001E-01 -0.13662403862E-01  0.11296791202E+00  0.12875366727E+00  0.20961076212E-01 0.  0.
         14    1    1    2    0    0 -0.23869503800E-01 -0.46396586571E-02 -0.37578988658E-02  0.24604906991E-01  0.00000000000E+00 0.  1.
     999901    1    3    3    0    0  0.80347195802E-01  0.18302062519E-01 -0.10921001316E+00  0.89057142574E+00  0.88000000000E+00 0. -1.
        -11    1    4    4    0    0 -0.16950940878E-01 -0.10897282607E-01  0.54626401830E-01  0.58227056106E-01  0.51100000000E-03 0. -1.
         11    1    4    4    0    0 -0.39526751124E-01 -0.27651212551E-02  0.58341510193E-01  0.70526611166E-01  0.51100000000E-03 0.  1.
</event>
<event>
 8    1  0.1112958E+005  0.1043930E+01  0.7957747E-01            NaN
         13   -1    0    0    0    0  0.00000000000E+00  0.00000000000E+00  0.74505805969E-08  0.10566000000E+00  0.10566000000E+00 0.  1.
     999900   -1    0    0    0    0 -0.00000000000E+00 -0.00000000000E+00 -0.74505805969E-08  0.93827000000E+00  0.93827000000E+00 0. -1.
     999902    2    1    2    0    0  0.15754857768E-01  0.89454942256E-02  0.17070351658E-01  0.10190375450E+01  0.10187334704E+01 0.  0.
     999903    2    3    3    0    0  0.12627870700E+00  0.11625646751E-01  0.34674647211E-01  0.13194531998E+00  0.11214669057E-01 0.  0.
         14    1    1    2    0    0 -0.15754857768E-01 -0.89454942256E-02 -0.17070351658E-01  0.24892455001E-01  0.00000000000E+00 0. -1.
     999901    1    3    3    0    0 -0.11052384923E+00 -0.26801525252E-02 -0.17604295553E-01  0.88709222502E+00  0.88000000000E+00 0.  1.
        -11    1    4    4    0    0  0.10507094275E+00  0.60912383614E-02  0.30969966440E-01  0.10971055618E+00  0.51100000000E-03 0.  1.
         11    1    4    4    0    0  0.21207764247E-01  0.55344083894E-02  0.37046807709E-02  0.22234763798E-01  0.51100000000E-03 0. -1.
</event>
<event>
 8    1  0.1112958E+005  0.1043930E+01  0.7957747E-01            NaN
         13   -1    0    0    0    0  0.00000000000E+00  0.00000000000E+00  0.74505805969E-08  0.10566000000E+00  0.10566000000E+00 0. -1.
     999900   -1    0    0    0    0 -0.00000000000E+00 -0.00000000000E+00 -0.74505805969E-08  0.93827000000E+00  0.93827000000E+00 0. -1.
     999902    2    1    2    0    0  0.16739754971E-01  0.14611151039E-01 -0.87033175823E-02  0.10200667884E+01  0.10197876249E+01 0.  0.
     999903    2    3    3    0    0 -0.10598587567E+00  0.66200112175E-03  0.68925975452E-01  0.12805643737E+00  0.20352321074E-01 0.  0.
         14    1    1    2    0    0 -0.16739754971E-01 -0.14611151039E-01  0.87033175823E-02  0.23863211606E-01  0.00000000000E+00 0. -1.
     999901    1    3    3    0    0  0.12272563064E+00  0.13949149918E-01 -0.77629293034E-01  0.89201035103E+00  0.88000000000E+00 0.  1.
        -11    1    4    4    0    0 -0.52586152242E-01  0.68503198459E-02  0.24984834271E-01  0.58623658656E-01  0.51100000000E-03 0. -1.
         11    1    4    4    0    0 -0.53399723425E-01 -0.61883187241E-02  0.43941141181E-01  0.69432778713E-01  0.51100000000E-03 0.  1.
</event>
<event>
 8    1  0.1112958E+005  0.1043930E+01  0.7957747E-01            NaN
         13   -1    0    0    0    0  0.00000000000E+00  0.00000000000E+00  0.74505805969E-08  0.10566000000E+00  0.10566000000E+00 0.  1.
     999900   -1    0    0    0    0 -0.00000000000E+00 -0.00000000000E+00 -0.74505805969E-08  0.93827000000E+00  0.93827000000E+00 0. -1.
     999902    2    1    2    0    0 -0.11730427815E-01 -0.17276366138E-01 -0.14480867732E-01  0.10185179695E+01  0.10182009050E+01 0.  0.
     999903    2    3    3    0    0  0.39136322243E-01  0.11665932900E+00  0.18764349065E-01  0.12631202852E+00  0.21484342932E-01 0.  0.
         14    1    1    2    0    0  0.11730427815E-01  0.17276366138E-01  0.14480867732E-01  0.25412030496E-01  0.00000000000E+00 0. -1.
     999901    1    3    3    0    0 -0.50866750057E-01 -0.13393569514E+00 -0.33245216797E-01  0.89220594099E+00  0.88000000000E+00 0. -1.
        -11    1    4    4    0    0  0.10461362657E-01  0.54576287453E-01  0.16164277105E-01  0.57875350851E-01  0.51100000000E-03 0.  1.
         11    1    4    4    0    0  0.28674959586E-01  0.62083041544E-01  0.26000719600E-02  0.68436677665E-01  0.51100000000E-03 0. -1.
</event>
<event>
 8    1  0.1112958E+005  0.1043930E+01  0.7957747E-01            NaN
         13   -1    0    0    0    0  0.00000000000E+00  0.00000000000E+00  0.74505805969E-08  0.10566000000E+00  0.10566000000E+00 0.  1.
     999900   -1    0    0    0    0 -0.00000000000E+00 -0.00000000000E+00 -0.74505805969E-08  0.93827000000E+00  0.93827000000E+00 0. -1.
     999902    2    1    2    0    0  0.10629252466E-01 -0.16720261903E-01  0.13286400810E-01  0.10200746733E+01  0.10197956964E+01 0.  0.
     999903    2    3    3    0    0  0.29064672057E-01  0.50706788073E-01 -0.11256817353E+00  0.12837649248E+00  0.19824142137E-01 0.  0.
         14    1    1    2    0    0 -0.10629252466E-01  0.16720261903E-01 -0.13286400810E-01  0.23855326713E-01  0.00000000000E+00 0. -1.
     999901    1    3    3    0    0 -0.18435419591E-01 -0.67427049975E-01  0.12585457434E+00  0.89169818080E+00  0.88000000000E+00 0.  1.
        -11    1    4    4    0    0  0.11411948738E-01  0.18276888707E-01 -0.23131644394E-01  0.31616630563E-01  0.51100000000E-03 0. -1.
         11    1    4    4    0    0  0.17652723320E-01  0.32429899366E-01 -0.89436529140E-01  0.96759861922E-01  0.51100000000E-03 0.  1.
</event>
<event>
 8    1  0.1112958E+005  0.1043930E+01  0.7957747E-01            NaN
         13   -1    0    0    0    0  0.00000000000E+00  0.00000000000E+00  0.74505805969E-08  0.10566000000E+00  0.10566000000E+00 0.  1.
     999900   -1    0    0    0    0 -0.00000000000E+00 -0.00000000000E+00 -0.74505805969E-08  0.93827000000E+00  0.93827000000E+00 0. -1.
     999902    2    1    2    0    0 -0.79556290415E-02 -0.15283913719E-01 -0.12492781448E-01  0.10226471515E+01  0.10224256632E+01 0.  0.
     999903    2    3    3    0    0  0.72891267544E-01  0.76872772902E-01  0.72560286133E-01  0.13008729363E+00  0.20860219124E-01 0.  0.
         14    1    1    2    0    0  0.79556290415E-02  0.15283913719E-01  0.12492781448E-01  0.21282848501E-01  0.00000000000E+00 0.  1.
     999901    1    3    3    0    0 -0.80846896586E-01 -0.92156686622E-01 -0.85053067581E-01  0.89255985787E+00  0.88000000000E+00 0. -1.
        -11    1    4    4    0    0  0.10077263657E-01  0.23359984643E-01  0.17648295991E-01  0.30967137383E-01  0.51100000000E-03 0.  1.
         11    1    4    4    0    0  0.62814003887E-01  0.53512788260E-01  0.54911990142E-01  0.99120156245E-01  0.51100000000E-03 0. -1.
</event>
<event>
 8    1  0.1112958E+005  0.1043930E+01  0.7957747E-01            NaN
         13   -1    0    0    0    0  0.00000000000E+00  0.00000000000E+00  0.74505805969E-08  0.10566000000E+00  0.10566000000E+00 0.  1.
     999900   -1    0    0    0    0 -0.00000000000E+00 -0.00000000000E+00 -0.74505805969E-08  0.93827000000E+00  0.93827000000E+00 0. -1.
     999902    2    1    2    0    0  0.16128780303E-01 -0.14511240638E-01 -0.99814661808E-02  0.10200481381E+01  0.10197685329E+01 0.  0.
     999903    2    3    3    0    0 -0.43958744014E-01 -0.46389949044E-01  0.11053044853E+00  0.12923396884E+00  0.20001002521E-01 0.  0.
         14    1    1    2    0    0 -0.16128780303E-01  0.14511240638E-01  0.99814661808E-02  0.23881861863E-01  0.00000000000E+00 0.  1.
     999901    1    3    3    0    0  0.60087524317E-01  0.31878708406E-01 -0.12051191471E+00  0.89081416929E+00  0.88000000000E+00 0. -1.
        -11    1    4    4    0    0 -0.36732679019E-01 -0.37925070012E-01  0.10312459765E+00  0.11585570510E+00  0.51100000000E-03 0. -1.
         11    1    4    4    0    0 -0.72260649952E-02 -0.84648790320E-02  0.74058508820E-02  0.13378263737E-01  0.51100000000E-03 0.  1.
</event>
<event>
 8    1  0.1112958E+005  0.1043930E+01  0.7957747E-01            NaN
         13   -1    0    0    0    0  0.00000000000E+00  0.00000000000E+00  0.74505805969E-08  0.10566000000E+00  0.10566000000E+00 0.  1.
     999900   -1    0    0    0    0 -0.00000000000E+00 -0.00000000000E+00 -0.74505805969E-08  0.93827000000E+00  0.93827000000E+00 0. -1.
     999902    2    1    2    0    0  0.90306361540E-02  0.14070807167E-01  0.16915043652E-01  0.10201464194E+01  0.10198691379E+01 0.  0.
     999903    2    3    3    0    0  0.57876413478E-01 -0.98625429443E-01 -0.55431928136E-01  0.12867547988E+00  0.20199650881E-01 0.  0.
         14    1    1    2    0    0 -0.90306361540E-02 -0.14070807167E-01 -0.16915043652E-01  0.23783580585E-01  0.00000000000E+00 0. -1.
     999901    1    3    3    0    0 -0.48845777324E-01  0.11269623661E+00  0.72346971787E-01  0.89147093953E+00  0.88000000000E+00 0.  1.
        -11    1    4    4    0    0  0.45534767443E-01 -0.80157830790E-01 -0.35375345597E-01  0.98743957183E-01  0.51100000000E-03 0.  1.
         11    1    4    4    0    0  0.12341646035E-01 -0.18467598653E-01 -0.20056582538E-01  0.29931522697E-01  0.51100000000E-03 0. -1.
</event>
<event>
 8    1  0.1112958E+005  0.1043930E+01  0.7957747E-01            NaN
         13   -1    0    0    0    0  0.00000000000E+00  0.00000000000E+00  0.74505805969E-08  0.10566000000E+00  0.10566000000E+00 0. -1.
     999900   -1    0    0    0    0 -0.00000000000E+00 -0.00000000000E+00 -0.74505805969E-08  0.93827000000E+00  0.93827000000E+00 0. -1.
     999902    2    1    2    0    0 -0.13698815483E-01  0.10944667842E-01 -0.16249975331E-01  0.10200238293E+01  0.10197436478E+01 0.  0.
     999903    2    3    3    0    0 -0.94009830572E-01 -0.80290961021E-01 -0.39156597188E-01  0.13137400374E+00  0.21009595188E-01 0.  0.
         14    1    1    2    0    0  0.13698815483E-01 -0.10944667842E-01  0.16249975331E-01  0.23906170712E-01  0.00000000000E+00 0. -1.
     999901    1    3    3    0    0  0.80311015089E-01  0.91235628864E-01  0.22906621857E-01  0.88864982555E+00  0.88000000000E+00 0.  1.
        -11    1    4    4    0    0 -0.42546497486E-01 -0.41153941352E-01 -0.84468613969E-02  0.59795166407E-01  0.51100000000E-03 0. -1.
         11    1    4    4    0    0 -0.51463333086E-01 -0.39137019669E-01 -0.30709735791E-01  0.71578837335E-01  0.51100000000E-03 0.  1.
</event>
<event>
 8    1  0.1112958E+005  0.1043930E+01  0.7957747E-01            NaN
         13   -1    0    0    0    0  0.00000000000E+00  0.00000000000E+00  0.74505805969E-08  0.10566000000E+00  0.10566000000E+00 0. -1.
     999900   -1    0    0    0    0 -0.00000000000E+00 -0.00000000000E+00 -0.74505805969E-08  0.93827000000E+00  0.93827000000E+00 0.  1.
     999902    2    1    2    0    0 -0.22987853429E-01  0.23978455152E-02 -0.28224053010E-02  0.10206457341E+01  0.10203801044E+01 0.  0.
     999903    2    3    3    0    0  0.80349665970E-01 -0.98281859849E-01  0.74470219413E-02  0.12883829570E+00  0.20699166810E-01 0.  0.
         14    1    1    2    0    0  0.22987853429E-01 -0.23978455152E-02  0.28224053010E-02  0.23284265933E-01  0.00000000000E+00 0. -1.
     999901    1    3    3    0    0 -0.10333751940E+00  0.10067970536E+00 -0.10269427242E-01  0.89180743837E+00  0.88000000000E+00 0.  1.
        -11    1    4    4    0    0  0.44681154328E-01 -0.53070754343E-01 -0.62013107489E-02  0.69653628008E-01  0.51100000000E-03 0. -1.
         11    1    4    4    0    0  0.35668511642E-01 -0.45211105506E-01  0.13648332690E-01  0.59184667694E-01  0.51100000000E-03 0.  1.
</event>
<event>
 8    1  0.1112958E+005  0.1043930E+01  0.7957747E-01            NaN
         13   -1    0    0    0    0  0.00000000000E+00  0.00000000000E+00  0.74505805969E-08  0.10566000000E+00  0.10566000000E+00 0.  1.
     999900   -1    0    0    0    0 -0.00000000000E+00 -0.00000000000E+00 -0.74505805969E-08  0.93827000000E+00  0.93827000000E+00 0. -1.
     999902    2    1    2    0    0 -0.75909877003E-02 -0.13223010984E-01 -0.28001761170E-01  0.10120463091E+01  0.10115439497E+01 0.  0.
     999903    2    3    3    0    0  0.11804524732E-02 -0.12092848637E+00  0.19111058095E-01  0.12418538235E+00  0.20777015284E-01 0.  0.
         14    1    1    2    0    0  0.75909877003E-02  0.13223010984E-01  0.28001761170E-01  0.31883690852E-01  0.00000000000E+00 0.  1.
     999901    1    3    3    0    0 -0.87714401735E-02  0.10770547539E+00 -0.47112819265E-01  0.88786092680E+00  0.88000000000E+00 0.  1.
        -11    1    4    4    0    0  0.35591585371E-02 -0.15601490251E-01  0.89479319145E-02  0.18341229896E-01  0.51100000000E-03 0. -1.
         11    1    4    4    0    0 -0.23787060638E-02 -0.10532699612E+00  0.10163126180E-01  0.10584415246E+00  0.51100000000E-03 0.  1.
</event>
<event>
 8    1  0.1112958E+005  0.1043930E+01  0.7957747E-01            NaN
         13   -1    0    0    0    0  0.00000000000E+00  0.00000000000E+00  0.74505805969E-08  0.10566000000E+00  0.10566000000E+00 0. -1.
     999900   -1    0    0    0    0 -0.00000000000E+00 -0.00000000000E+00 -0.74505805969E-08  0.93827000000E+00  0.93827000000E+00 0. -1.
     999902    2    1    2    0    0  0.13254063553E-01 -0.20259151111E-01  0.75376132317E-04  0.10197203101E+01  0.10194328824E+01 0.  0.
     999903    2    3    3    0    0 -0.18596523618E-01 -0.86437655152E-01  0.94283270231E-01  0.13164982774E+00  0.25000863560E-01 0.  0.
         14    1    1    2    0    0 -0.13254063553E-01  0.20259151111E-01 -0.75376132317E-04  0.24209689919E-01  0.00000000000E+00 0.  1.
     999901    1    3    3    0    0  0.31850587171E-01  0.66178504041E-01 -0.94207894099E-01  0.88807048234E+00  0.88000000000E+00 0. -1.
        -11    1    4    4    0    0 -0.22225396955E-01 -0.44145743988E-01  0.51359513763E-01  0.71280262044E-01  0.51100000000E-03 0.  1.
         11    1    4    4    0    0  0.36288733367E-02 -0.42291911164E-01  0.42923756468E-01  0.60369565693E-01  0.51100000000E-03 0. -1.
</event>
<event>
 8    1  0.1112958E+005  0.1043930E+01  0.7957747E-01            NaN
         13   -1    0    0    0    0  0.00000000000E+00  0.00000000000E+00  0.74505805969E-08  0.10566000000E+00  0.10566000000E+00 0. -1.
     999900   -1    0    0    0    0 -0.00000000000E+00 -0.00000000000E+00 -0.74505805969E-08  0.93827000000E+00  0.93827000000E+00 0.  1.
     999902    2    1    2    0    0 -0.16528976497E-01 -0.54081796997E-02  0.19274335356E-01  0.10179693476E+01  0.10176382644E+01 0.  0.
     999903    2    3    3    0    0 -0.44771730817E-01 -0.48294313805E-01  0.11256533526E+00  0.13154953487E+00  0.17247515604E-01 0.  0.
         14    1    1    2    0    0  0.16528976497E-01  0.54081796997E-02 -0.19274335356E-01  0.25960652440E-01  0.00000000000E+00 0.  1.
     999901    1    3    3    0    0  0.28242754320E-01  0.42886134105E-01 -0.93290999908E-01  0.88641981269E+00  0.88000000000E+00 0.  1.
        -11    1    4    4    0    0 -0.41184339249E-01 -0.34511227543E-01  0.91630736736E-01  0.10622442121E+00  0.51100000000E-03 0. -1.
         11    1    4    4    0    0 -0.35873915675E-02 -0.13783086261E-01  0.20934598528E-01  0.25325113656E-01  0.51100000000E-03 0.  1.
</event>
<event>
 8    1  0.1112958E+005  0.1043930E+01  0.7957747E-01            NaN
         13   -1    0    0    0    0  0.00000000000E+00  0.00000000000E+00  0.74505805969E-08  0.10566000000E+00  0.10566000000E+00 0.  1.
     999900   -1    0    0    0    0 -0.00000000000E+00 -0.00000000000E+00 -0.74505805969E-08  0.93827000000E+00  0.93827000000E+00 0.  1.
     999902    2    1    2    0    0 -0.23310136188E-01 -0.19708482868E-02 -0.37919498119E-02  0.10202313592E+01  0.10199560778E+01 0.  0.
     999903    2    3    3    0    0  0.41784970944E-02  0.11759052746E+00 -0.52750923419E-01  0.13037320836E+00  0.19222943316E-01 0.  0.
         14    1    1    2    0    0  0.23310136188E-01  0.19708482868E-02  0.37919498119E-02  0.23698640793E-01  0.00000000000E+00 0.  1.
     999901    1    3    3    0    0 -0.27488633283E-01 -0.11956137575E+00  0.48958973607E-01  0.88985815085E+00  0.88000000000E+00 0. -1.
        -11    1    4    4    0    0 -0.16013386534E-02  0.10128488208E+00 -0.40153610207E-01  0.10896680760E+00  0.51100000000E-03 0.  1.
         11    1    4    4    0    0  0.57798357477E-02  0.16305645380E-01 -0.12597313213E-01  0.21406400765E-01  0.51100000000E-03 0. -1.
</event>
<event>
 8    1  0.1112958E+005  0.1043930E+01  0.7957747E-01            NaN
         13   -1    0    0    0    0  0.00000000000E+00  0.00000000000E+00  0.74505805969E-08  0.10566000000E+00  0.10566000000E+00 0. -1.
     999900   -1    0    0    0    0 -0.00000000000E+00 -0.00000000000E+00 -0.74505805969E-08  0.93827000000E+00  0.93827000000E+00 0.  1.
     999902    2    1    2    0    0  0.88519439413E-02  0.42006633140E-03  0.20075024084E-01  0.10219859812E+01  0.10217503638E+01 0.  0.
     999903    2    3    3    0    0  0.60185214244E-01 -0.49177219764E-01 -0.10299104334E+00  0.13056001551E+00  0.19952535792E-01 0.  0.
         14    1    1    2    0    0 -0.88519439413E-02 -0.42006633140E-03 -0.20075024084E-01  0.21944018758E-01  0.00000000000E+00 0.  1.
     999901    1    3    3    0    0 -0.51333270303E-01  0.49597286095E-01  0.12306606743E+00  0.89142596573E+00  0.88000000000E+00 0. -1.
        -11    1    4    4    0    0  0.43010206993E-01 -0.44957247794E-01 -0.75040940050E-01  0.97480438239E-01  0.51100000000E-03 0. -1.
         11    1    4    4    0    0  0.17175007251E-01 -0.42199719701E-02 -0.27950103292E-01  0.33079577272E-01  0.51100000000E-03 0.  1.
</event>
<event>
 8    1  0.1112958E+005  0.1043930E+01  0.7957747E-01            NaN
         13   -1    0    0    0    0  0.00000000000E+00  0.00000000000E+00  0.74505805969E-08  0.10566000000E+00  0.10566000000E+00 0. -1.
     999900   -1    0    0    0    0 -0.00000000000E+00 -0.00000000000E+00 -0.74505805969E-08  0.93827000000E+00  0.93827000000E+00 0.  1.
     999902    2    1    2    0    0  0.42845925450E-02 -0.50424288401E-02  0.22544072402E-01  0.10204349149E+01  0.10201643968E+01 0.  0.
     999903    2    3    3    0    0 -0.12611825035E+00  0.25458021165E-01 -0.22563112038E-03  0.13001162330E+00  0.18682809474E-01 0.  0.
         14    1    1    2    0    0 -0.42845925450E-02  0.50424288401E-02 -0.22544072402E-01  0.23495085068E-01  0.00000000000E+00 0.  1.
     999901    1    3    3    0    0  0.13040284290E+00 -0.30500450005E-01  0.22769703522E-01  0.89042329163E+00  0.88000000000E+00 0.  1.
        -11    1    4    4    0    0 -0.40564574930E-01  0.96911862337E-03  0.48943229241E-02  0.40873456521E-01  0.51100000000E-03 0. -1.
         11    1    4    4    0    0 -0.85553675422E-01  0.24488902541E-01 -0.51199540444E-02  0.89138166776E-01  0.51100000000E-03 0.  1.
</event>
<event>
 8    1  0.1112958E+005  0.1043930E+01  0.7957747E-01            NaN
         13   -1    0    0    0    0  0.00000000000E+00  0.00000000000E+00  0.74505805969E-08  0.10566000000E+00  0.10566000000E+00 0. -1.
     999900   -1    0    0    0    0 -0.00000000000E+00 -0.00000000000E+00 -0.74505805969E-08  0.93827000000E+00  0.93827000000E+00 0. -1.
     999902    2    1    2    0    0 -0.18773905513E-01 -0.10978296929E-01 -0.88023436110E-02  0.10204680354E+01  0.10201982883E+01 0.  0.
     999903    2    3    3    0    0 -0.99691388058E-02  0.12454526747E+00 -0.27761365332E-01  0.12984824840E+00  0.21885310815E-01 0.  0.
         14    1    1    2    0    0  0.18773905513E-01  0.10978296929E-01  0.88023436110E-02  0.23461964639E-01  0.00000000000E+00 0.  1.
     999901    1    3    3    0    0 -0.88047667077E-02 -0.13552356440E+00  0.18959021721E-01  0.89061978696E+00  0.88000000000E+00 0. -1.
        -11    1    4    4    0    0 -0.47983548080E-02  0.20855580804E-01  0.28840604889E-02  0.21599962626E-01  0.51100000000E-03 0.  1.
         11    1    4    4    0    0 -0.51707839978E-02  0.10368968667E+00 -0.30645425820E-01  0.10824828577E+00  0.51100000000E-03 0. -1.
</event>
<event>
 8    1  0.1112958E+005  0.1043930E+01  0.7957747E-01            NaN
         13   -1    0    0    0    0  0.00000000000E+00  0.00000000000E+00  0.74505805969E-08  0.10566000000E+00  0.10566000000E+00 0. -1.
     999900   -1    0    0    0    0 -0.00000000000E+00 -0.00000000000E+00 -0.74505805969E-08  0.93827000000E+00  0.93827000000E+00 0. -1.
     999902    2    1    2    0    0  0.15544302379E-01 -0.82625634446E-02  0.15678287230E-01  0.10203566256E+01  0.10200842805E+01 0.  0.
     999903    2    3    3    0    0  0.88200513972E-01 -0.73021315778E-01  0.65786866917E-01  0.13357396289E+00  0.20066102784E-01 0.  0.
         14    1    1    2    0    0 -0.15544302379E-01  0.82625634446E-02 -0.15678287230E-01  0.23573374421E-01  0.00000000000E+00 0.  1.
     999901    1    3    3    0    0 -0.72656211593E-01  0.64758752333E-01 -0.50108579687E-01  0.88678266269E+00  0.88000000000E+00 0.  1.
        -11    1    4    4    0    0  0.42780150153E-01 -0.45653317778E-01  0.28535592483E-01  0.68767054834E-01  0.51100000000E-03 0. -1.
         11    1    4    4    0    0  0.45420363819E-01 -0.27367998000E-01  0.37251274433E-01  0.64806908057E-01  0.51100000000E-03 0.  1.
</event>
<event>
 8    1  0.1112958E+005  0.1043930E+01  0.7957747E-01            NaN
         13   -1    0    0    0    0  0.00000000000E+00  0.00000000000E+00  0.74505805969E-08  0.10566000000E+00  0.10566000000E+00 0. -1.
     999900   -1    0    0    0    0 -0.00000000000E+00 -0.00000000000E+00 -0.74505805969E-08  0.93827000000E+00  0.93827000000E+00 0.  1.
     999902    2    1    2    0    0 -0.13548916524E-01  0.12634848759E-01  0.15943108408E-01  0.10194883297E+01  0.10191952998E+01 0.  0.
     999903    2    3    3    0    0 -0.89986510312E-01 -0.62895798587E-01 -0.65429918824E-01  0.12922479904E+00  0.19092430217E-01 0.  0.
         14    1    1    2    0    0  0.13548916524E-01 -0.12634848759E-01 -0.15943108408E-01  0.24441670316E-01  0.00000000000E+00 0.  1.
     999901    1    3    3    0    0  0.76437593789E-01  0.75530647346E-01  0.81373027232E-01  0.89026353064E+00  0.88000000000E+00 0. -1.
        -11    1    4    4    0    0 -0.35885110163E-01 -0.28886071025E-01 -0.17253236124E-01  0.49194323945E-01  0.51100000000E-03 0.  1.
         11    1    4    4    0    0 -0.54101400149E-01 -0.34009727562E-01 -0.48176682700E-01  0.80030475095E-01  0.51100000000E-03 0. -1.
</event>
<event>
 8    1  0.1112958E+005  0.1043930E+01  0.7957747E-01            NaN
         13   -1    0    0    0    0  0.00000000000E+00  0.00000000000E+00  0.74505805969E-08  0.10566000000E+00  0.10566000000E+00 0. -1.
     999900   -1    0    0    0    0 -0.00000000000E+00 -0.00000000000E+00 -0.74505805969E-08  0.93827000000E+00  0.93827000000E+00 0.  1.
     999902    2    1    2    0    0 -0.21068282657E-01 -0.85085427565E-02 -0.68846445478E-02  0.10201883454E+01  0.10199120520E+01 0.  0.
     999903    2    3    3    0    0 -0.12172445090E+00  0.41547010212E-01 -0.25374322993E-01  0.13284450514E+00  0.21466491914E-01 0.  0.
         14    1    1    2    0    0  0.21068282657E-01  0.85085427565E-02  0.68846445478E-02  0.23741654629E-01  0.00000000000E+00 0. -1.
     999901    1    3    3    0    0  0.10065616824E+00 -0.50055552969E-01  0.18489678446E-01  0.88734384023E+00  0.88000000000E+00 0.  1.
        -11    1    4    4    0    0 -0.32752503395E-01  0.20712999292E-01 -0.37218313956E-02  0.38934149127E-01  0.51100000000E-03 0. -1.
         11    1    4    4    0    0 -0.88971947500E-01  0.20834010920E-01 -0.21652491598E-01  0.93910356013E-01  0.51100000000E-03 0.  1.
</event>
<event>
 8    1  0.1112958E+005  0.1043930E+01  0.7957747E-01            NaN
         13   -1    0    0    0    0  0.00000000000E+00  0.00000000000E+00  0.74505805969E-08  0.10566000000E+00  0.10566000000E+00 0. -1.
     999900   -1    0    0    0    0 -0.00000000000E+00 -0.00000000000E+00 -0.74505805969E-08  0.93827000000E+00  0.93827000000E+00 0.  1.
     999902    2    1    2    0    0  0.11051710202E-01 -0.97286197393E-02  0.18896474621E-01  0.10199745603E+01  0.10196932090E+01 0.  0.
     999903    2    3    3    0    0  0.16716694507E-01  0.10297658981E+00  0.74516246514E-01  0.13102680288E+00  0.27050437223E-01 0.  0.
         14    1    1    2    0    0 -0.11051710202E-01  0.97286197393E-02 -0.18896474621E-01  0.23955439748E-01  0.00000000000E+00 0.  1.
     999901    1    3    3    0    0 -0.56649843053E-02 -0.11270520955E+00 -0.55619771893E-01  0.88894775737E+00  0.88000000000E+00 0. -1.
        -11    1    4    4    0    0  0.17097801101E-01  0.49367960715E-01  0.49087874974E-01  0.71689685019E-01  0.51100000000E-03 0. -1.
         11    1    4    4    0    0 -0.38110659387E-03  0.53608629099E-01  0.25428371540E-01  0.59337117863E-01  0.51100000000E-03 0.  1.
</event>
<event>
 8    1  0.1112958E+005  0.1043930E+01  0.7957747E-01            NaN
         13   -1    0    0    0    0  0.00000000000E+00  0.00000000000E+00  0.74505805969E-08  0.10566000000E+00  0.10566000000E+00 0.  1.
     999900   -1    0    0    0    0 -0.00000000000E+00 -0.00000000000E+00 -0.74505805969E-08  0.93827000000E+00  0.93827000000E+00 0. -1.
     999902    2    1    2    0    0 -0.14389298842E-01  0.18986639921E-01 -0.12227139940E-02  0.10200754523E+01  0.10197964939E+01 0.  0.
     999903    2    3    3    0    0 -0.26207626234E-01  0.12652646542E+00 -0.24807363610E-01  0.13313649012E+00  0.20350272407E-01 0.  0.
         14    1    1    2    0    0  0.14389298842E-01 -0.18986639921E-01  0.12227139940E-02  0.23854547704E-01  0.00000000000E+00 0. -1.
     999901    1    3    3    0    0  0.11818327392E-01 -0.10753982550E+00  0.23584649616E-01  0.88693896218E+00  0.88000000000E+00 0.  1.
        -11    1    4    4    0    0 -0.21551158560E-01  0.58751196121E-01 -0.16297850765E-01  0.64668667386E-01  0.51100000000E-03 0. -1.
         11    1    4    4    0    0 -0.46564676746E-02  0.67775269300E-01 -0.85095128450E-02  0.68467822732E-01  0.51100000000E-03 0.  1.
</event>
<event>
 8    1  0.1112958E+005  0.1043930E+01  0.7957747E-01            NaN
         13   -1    0    0    0    0  0.00000000000E+00  0.00000000000E+00  0.74505805969E-08  0.10566000000E+00  0.10566000000E+00 0.  1.
     999900   -1    0    0    0    0 -0.00000000000E+00 -0.00000000000E+00 -0.74505805969E-08  0.93827000000E+00  0.93827000000E+00 0. -1.
     999902    2    1    2    0    0  0.19386315799E-01  0.15870434844E-02 -0.13401595153E-01  0.10203090199E+01  0.10200355609E+01 0.  0.
     999903    2    3    3    0    0  0.66110075969E-01  0.13431843243E-01  0.10982255230E+00  0.13041711662E+00  0.19916695410E-01 0.  0.
         14    1    1    2    0    0 -0.19386315799E-01 -0.15870434844E-02  0.13401595153E-01  0.23620980079E-01  0.00000000000E+00 0.  1.
     999901    1    3    3    0    0 -0.46723760171E-01 -0.11844799759E-01 -0.12322414745E+00  0.88989190330E+00  0.88000000000E+00 0. -1.
        -11    1    4    4    0    0  0.55613141610E-01  0.15513800305E-01  0.79479725331E-01  0.98238421095E-01  0.51100000000E-03 0. -1.
         11    1    4    4    0    0  0.10496934359E-01 -0.20819570617E-02  0.30342826969E-01  0.32178695524E-01  0.51100000000E-03 0.  1.
</event>
<event>
 8    1  0.1112958E+005  0.1043930E+01  0.7957747E-01            NaN
         13   -1    0    0    0    0  0.00000000000E+00  0.00000000000E+00  0.74505805969E-08  0.10566000000E+00  0.10566000000E+00 0.  1.
     999900   -1    0    0    0    0 -0.00000000000E+00 -0.00000000000E+00 -0.74505805969E-08  0.93827000000E+00  0.93827000000E+00 0. -1.
     999902    2    1    2    0    0  0.56072790030E-02  0.84194715191E-03  0.21959750486E-01  0.10212500288E+01  0.10209981588E+01 0.  0.
     999903    2    3    3    0    0 -0.50812563300E-01  0.11370208062E+00  0.38894496528E-01  0.13208896691E+00  0.20606639546E-01 0.  0.
         14    1    1    2    0    0 -0.56072790030E-02 -0.84194715191E-03 -0.21959750486E-01  0.22679971214E-01  0.00000000000E+00 0. -1.
     999901    1    3    3    0    0  0.56419842303E-01 -0.11286013347E+00 -0.16934746042E-01  0.88916106188E+00  0.88000000000E+00 0. -1.
        -11    1    4    4    0    0 -0.46738184739E-01  0.89056045197E-01  0.36474036101E-01  0.10698623056E+00  0.51100000000E-03 0.  1.
         11    1    4    4    0    0 -0.40743785612E-02  0.24646035421E-01  0.24204604265E-02  0.25102736351E-01  0.51100000000E-03 0. -1.
</event>
<event>
 8    1  0.1112958E+005  0.1043930E+01  0.7957747E-01            NaN
         13   -1    0    0    0    0  0.00000000000E+00  0.00000000000E+00  0.74505805969E-08  0.10566000000E+00  0.10566000000E+00 0. -1.
     999900   -1    0    0    0    0 -0.00000000000E+00 -0.00000000000E+00 -0.74505805969E-08  0.93827000000E+00  0.93827000000E+00 0. -1.
     999902    2    1    2    0    0 -0.19348280001E-01 -0.17736557287E-02 -0.12945581424E-01  0.10205828402E+01  0.10203157569E+01 0.  0.
     999903    2    3    3    0    0  0.61051868557E-01 -0.30677950856E-02 -0.11426490391E+00  0.13112712807E+00  0.20027816390E-01 0.  0.
         14    1    1    2    0    0  0.19348280001E-01  0.17736557287E-02  0.12945581424E-01  0.23347159828E-01  0.00000000000E+00 0.  1.
     999901    1    3    3    0    0 -0.80400148558E-01  0.12941393569E-02  0.10131932248E+00  0.88945571210E+00  0.88000000000E+00 0.  1.
        -11    1    4    4    0    0  0.56695191535E-01 -0.63398025919E-02 -0.92448377662E-01  0.10863471588E+00  0.51100000000E-03 0. -1.
         11    1    4    4    0    0  0.43566770225E-02  0.32720075063E-02 -0.21816526246E-01  0.22492412193E-01  0.51100000000E-03 0.  1.
</event>
<event>
 8    1  0.1112958E+005  0.1043930E+01  0.7957747E-01            NaN
         13   -1    0    0    0    0  0.00000000000E+00  0.00000000000E+00  0.74505805969E-08  0.10566000000E+00  0.10566000000E+00 0.  1.
     999900   -1    0    0    0    0 -0.00000000000E+00 -0.00000000000E+00 -0.74505805969E-08  0.93827000000E+00  0.93827000000E+00 0. -1.
     999902    2    1    2    0    0 -0.52909420902E-02  0.16533807169E-01 -0.21319948186E-02  0.10264398242E+01  0.10262908001E+01 0.  0.
     999903    2    3    3    0    0  0.67889839719E-02 -0.61536204727E-01 -0.11907977280E+00  0.13519483310E+00  0.16274391280E-01 0.  0.
         14    1    1    2    0    0  0.52909420902E-02 -0.16533807169E-01  0.21319948186E-02  0.17490175803E-01  0.00000000000E+00 0.  1.
     999901    1    3    3    0    0 -0.12079926062E-01  0.78070011896E-01  0.11694777799E+00  0.89124499109E+00  0.88000000000E+00 0.  1.
        -11    1    4    4    0    0 -0.10525598444E-02 -0.21308787079E-02 -0.14174981321E-01  0.14381924167E-01  0.51100000000E-03 0. -1.
         11    1    4    4    0    0  0.78415438163E-02 -0.59405326019E-01 -0.10490479148E+00  0.12081290894E+00  0.51100000000E-03 0.  1.
</event>
<event>
 8    1  0.1112958E+005  0.1043930E+01  0.7957747E-01            NaN
         13   -1    0    0    0    0  0.00000000000E+00  0.00000000000E+00  0.74505805969E-08  0.10566000000E+00  0.10566000000E+00 0.  1.
     999900   -1    0    0    0    0 -0.00000000000E+00 -0.00000000000E+00 -0.74505805969E-08  0.93827000000E+00  0.93827000000E+00 0.  1.
     999902    2    1    2    0    0 -0.68990460358E-02 -0.16924885799E-01  0.15163136727E-01  0.10201819620E+01  0.10199055183E+01 0.  0.
     999903    2    3    3    0    0  0.43700550406E-01 -0.60719481410E-01 -0.10394842942E+00  0.12963951437E+00  0.20113035063E-01 0.  0.
         14    1    1    2    0    0  0.68990460358E-02  0.16924885799E-01 -0.15163136727E-01  0.23748038043E-01  0.00000000000E+00 0. -1.
     999901    1    3    3    0    0 -0.50599596442E-01  0.43794595612E-01  0.11911156614E+00  0.89054244759E+00  0.88000000000E+00 0. -1.
        -11    1    4    4    0    0  0.14157238909E-01 -0.12351961341E-01 -0.14468794272E-01  0.23719306296E-01  0.51100000000E-03 0. -1.
         11    1    4    4    0    0  0.29543311498E-01 -0.48367520070E-01 -0.89479635143E-01  0.10592020807E+00  0.51100000000E-03 0.  1.
</event>
<event>
 8    1  0.1112958E+005  0.1043930E+01  0.7957747E-01            NaN
         13   -1    0    0    0    0  0.00000000000E+00  0.00000000000E+00  0.74505805969E-08  0.10566000000E+00  0.10566000000E+00 0. -1.
     999900   -1    0    0    0    0 -0.00000000000E+00 -0.00000000000E+00 -0.74505805969E-08  0.93827000000E+00  0.93827000000E+00 0. -1.
     999902    2    1    2    0    0  0.28812507667E-01 -0.65241835577E-02 -0.11491273657E-01  0.10122318149E+01  0.10117353765E+01 0.  0.
     999903    2    3    3    0    0 -0.81327239045E-01  0.78012783081E-01 -0.39110278295E-01  0.12091813725E+00  0.19785548054E-01 0.  0.
         14    1    1    2    0    0 -0.28812507667E-01  0.65241835577E-02  0.11491273657E-01  0.31698185112E-01  0.00000000000E+00 0. -1.
     999901    1    3    3    0    0  0.11013974671E+00 -0.84536966639E-01  0.27619004639E-01  0.89131367764E+00  0.88000000000E+00 0. -1.
        -11    1    4    4    0    0 -0.17612483304E-01  0.25423367932E-01 -0.17426839210E-01  0.35503563920E-01  0.51100000000E-03 0. -1.
         11    1    4    4    0    0 -0.63714755741E-01  0.52589415150E-01 -0.21683439085E-01  0.85414573326E-01  0.51100000000E-03 0.  1.
</event>
<event>
 8    1  0.1112958E+005  0.1043930E+01  0.7957747E-01            NaN
         13   -1    0    0    0    0  0.00000000000E+00  0.00000000000E+00  0.74505805969E-08  0.10566000000E+00  0.10566000000E+00 0. -1.
     999900   -1    0    0    0    0 -0.00000000000E+00 -0.00000000000E+00 -0.74505805969E-08  0.93827000000E+00  0.93827000000E+00 0.  1.
     999902    2    1    2    0    0 -0.56081375717E-02  0.11167523505E-01  0.20778331358E-01  0.10196832715E+01  0.10193949531E+01 0.  0.
     999903    2    3    3    0    0 -0.46820072440E-01 -0.72431692099E-01  0.97188172648E-01  0.13146836719E+00  0.19998036508E-01 0.  0.
         14    1    1    2    0    0  0.56081375717E-02 -0.11167523505E-01 -0.20778331358E-01  0.24246728486E-01  0.00000000000E+00 0.  1.
     999901    1    3    3    0    0  0.41211934868E-01  0.83599215605E-01 -0.76409841290E-01  0.88821490433E+00  0.88000000000E+00 0.  1.
        -11    1    4    4    0    0 -0.37362735519E-01 -0.39955518976E-01  0.60208119976E-01  0.81349224545E-01  0.51100000000E-03 0.  1.
         11    1    4    4    0    0 -0.94573369209E-02 -0.32476173124E-01  0.36980052672E-01  0.50119142640E-01  0.51100000000E-03 0. -1.
</event>
<event>
 8    1  0.1112958E+005  0.1043930E+01  0.7957747E-01            NaN
         13   -1    0    0    0    0  0.00000000000E+00  0.00000000000E+00  0.74505805969E-08  0.10566000000E+00  0.10566000000E+00 0. -1.
     999900   -1    0    0    0    0 -0.00000000000E+00 -0.00000000000E+00 -0.74505805969E-08  0.93827000000E+00  0.93827000000E+00 0.  1.
     999902    2    1    2    0    0 -0.93808182405E-02 -0.21111687033E-01 -0.43253381312E-02  0.10204265613E+01  0.10201558486E+01 0.  0.
     999903    2    3    3    0    0 -0.68971660130E-01  0.39397346340E-02 -0.11038019641E+00  0.13170485283E+00  0.19742570497E-01 0.  0.
         14    1    1    2    0    0  0.93808182405E-02  0.21111687033E-01  0.43253381312E-02  0.23503438689E-01  0.00000000000E+00 0.  1.
     999901    1    3    3    0    0  0.59590841890E-01 -0.25051421667E-01  0.10605485827E+00  0.88872170848E+00  0.88000000000E+00 0. -1.
        -11    1    4    4    0    0 -0.86111919717E-02 -0.57871626861E-02 -0.20777497607E-01  0.23229494333E-01  0.51100000000E-03 0.  1.
         11    1    4    4    0    0 -0.60360468159E-01  0.97268973201E-02 -0.89602698799E-01  0.10847535850E+00  0.51100000000E-03 0. -1.
</event>
<event>
 8    1  0.1112958E+005  0.1043930E+01  0.7957747E-01            NaN
         13   -1    0    0    0    0  0.00000000000E+00  0.00000000000E+00  0.74505805969E-08  0.10566000000E+00  0.10566000000E+00 0. -1.
     999900   -1    0    0    0    0 -0.00000000000E+00 -0.00000000000E+00 -0.74505805969E-08  0.93827000000E+00  0.93827000000E+00 0. -1.
     999902    2    1    2    0    0  0.15817068972E-01  0.53541476538E-02  0.16730225857E-01  0.10202921696E+01  0.10200183157E+01 0.  0.
     999903    2    3    3    0    0 -0.12671274738E+00  0.77313587086E-02 -0.40767558131E-02  0.12857846547E+00  0.19997689589E-01 0.  0.
         14    1    1    2    0    0 -0.15817068972E-01 -0.53541476538E-02 -0.16730225857E-01  0.23637830383E-01  0.00000000000E+00 0.  1.
     999901    1    3    3    0    0  0.14252981635E+00 -0.23772110548E-02  0.20806981670E-01  0.89171370415E+00  0.88000000000E+00 0.  1.
        -11    1    4    4    0    0 -0.46385433451E-01 -0.36045341685E-02 -0.86479450085E-02  0.47324931874E-01  0.51100000000E-03 0. -1.
         11    1    4    4    0    0 -0.80327313925E-01  0.11335892877E-01  0.45711891955E-02  0.81253533594E-01  0.51100000000E-03 0.  1.
</event>
<event>
 8    1  0.1112958E+005  0.1043930E+01  0.7957747E-01            NaN
         13   -1    0    0    0    0  0.00000000000E+00  0.00000000000E+00  0.74505805969E-08  0.10566000000E+00  0.10566000000E+00 0.  1.
     999900   -1    0    0    0    0 -0.00000000000E+00 -0.00000000000E+00 -0.74505805969E-08  0.93827000000E+00  0.93827000000E+00 0.  1.
     999902    2    1    2    0    0  0.20966808334E-01  0.31915575743E-02  0.11200122586E-01  0.10199459253E+01  0.10196638930E+01 0.  0.
     999903    2    3    3    0    0 -0.11870718828E+00 -0.41856979410E-01  0.11480929894E-01  0.12779219707E+00  0.18858170797E-01 0.  0.
         14    1    1    2    0    0 -0.20966808334E-01 -0.31915575743E-02 -0.11200122586E-01  0.23984074662E-01  0.00000000000E+00 0. -1.
     999901    1    3    3    0    0  0.13967399661E+00  0.45048536984E-01 -0.28080730842E-03  0.89215372827E+00  0.88000000000E+00 0. -1.
        -11    1    4    4    0    0 -0.84765624487E-01 -0.21833330979E-01  0.36452359163E-02  0.87609670141E-01  0.51100000000E-03 0. -1.
         11    1    4    4    0    0 -0.33941563791E-01 -0.20023648431E-01  0.78356939782E-02  0.40182526926E-01  0.51100000000E-03 0.  1.
</event>
<event>
 7    1  0.1873747E+005  0.1043930E+01  0.7957747E-01            NaN
         13   -1    0    0    0    0  0.00000000000E+00  0.00000000000E+00  0.74505805969E-08  0.10566000000E+00  0.10566000000E+00 0. -1.
     999900   -1    0    0    0    0 -0.00000000000E+00 -0.00000000000E+00 -0.74505805969E-08  0.93827000000E+00  0.93827000000E+00 0.  1.
     999903    2    1    2    0    0 -0.61343273771E-01  0.70890319922E-02  0.86456364150E-01  0.10817535344E+00  0.20345824580E-01 0.  0.
         14    1    1    2    0    0  0.23800180422E-01 -0.91016865399E-02 -0.47724146212E-01  0.54100678533E-01  0.00000000000E+00 0.  1.
     999901    1    1    2    0    0  0.37543093348E-01  0.20126545477E-02 -0.38732217937E-01  0.88165396803E+00  0.88000000000E+00 0. -1.
        -11    1    3    3    0    0 -0.32063801412E-01  0.68776644372E-02  0.61502439372E-01  0.69700794822E-01  0.51100000000E-03 0.  1.
         11    1    3    3    0    0 -0.29279472358E-01  0.21136755504E-03  0.24953924777E-01  0.38474558615E-01  0.51100000000E-03 0. -1.
</event>
<event>
 8    1  0.1112958E+005  0.1043930E+01  0.7957747E-01            NaN
         13   -1    0    0    0    0  0.00000000000E+00  0.00000000000E+00  0.74505805969E-08  0.10566000000E+00  0.10566000000E+00 0. -1.
     999900   -1    0    0    0    0 -0.00000000000E+00 -0.00000000000E+00 -0.74505805969E-08  0.93827000000E+00  0.93827000000E+00 0.  1.
     999902    2    1    2    0    0  0.10899743830E-01  0.22550613729E-01  0.26619945104E-01  0.10073792671E+01  0.10067159638E+01 0.  0.
     999903    2    3    3    0    0  0.10487211592E+00 -0.52262233706E-01  0.62995592212E-02  0.11898707507E+00  0.19716435221E-01 0.  0.
         14    1    1    2    0    0 -0.10899743830E-01 -0.22550613729E-01 -0.26619945104E-01  0.36550732857E-01  0.00000000000E+00 0. -1.
     999901    1    3    3    0    0 -0.93972372088E-01  0.74812847434E-01  0.20320385883E-01  0.88839219207E+00  0.88000000000E+00 0. -1.
        -11    1    4    4    0    0  0.56097426676E-01 -0.17387734677E-01  0.38425457949E-03  0.58733834963E-01  0.51100000000E-03 0. -1.
         11    1    4    4    0    0  0.48774689242E-01 -0.34874499029E-01  0.59153046417E-02  0.60253240105E-01  0.51100000000E-03 0.  1.
</event>
<event>
 8    1  0.1112958E+005  0.1043930E+01  0.7957747E-01            NaN
         13   -1    0    0    0    0  0.00000000000E+00  0.00000000000E+00  0.74505805969E-08  0.10566000000E+00  0.10566000000E+00 0. -1.
     999900   -1    0    0    0    0 -0.00000000000E+00 -0.00000000000E+00 -0.74505805969E-08  0.93827000000E+00  0.93827000000E+00 0. -1.
     999902    2    1    2    0    0 -0.10205582883E-02  0.23492349969E-01  0.61568525572E-02  0.10196228225E+01  0.10193330472E+01 0.  0.
     999903    2    3    3    0    0  0.10574642185E-01 -0.37035804141E-02 -0.12703671736E+00  0.12910915364E+00  0.20132223647E-01 0.  0.
         14    1    1    2    0    0  0.10205582883E-02 -0.23492349969E-01 -0.61568525572E-02  0.24307177535E-01  0.00000000000E+00 0. -1.
     999901    1    3    3    0    0 -0.11595200474E-01  0.27195930383E-01  0.13319356992E+00  0.89051366883E+00  0.88000000000E+00 0.  1.
        -11    1    4    4    0    0  0.12738193536E-01  0.38065294726E-02 -0.10231502789E+00  0.10317643769E+00  0.51100000000E-03 0.  1.
         11    1    4    4    0    0 -0.21635513505E-02 -0.75101098867E-02 -0.24721689475E-01  0.25932715948E-01  0.51100000000E-03 0. -1.
</event>
<event>
 8    1  0.1112958E+005  0.1043930E+01  0.7957747E-01            NaN
         13   -1    0    0    0    0  0.00000000000E+00  0.00000000000E+00  0.74505805969E-08  0.10566000000E+00  0.10566000000E+00 0.  1.
     999900   -1    0    0    0    0 -0.00000000000E+00 -0.00000000000E+00 -0.74505805969E-08  0.93827000000E+00  0.93827000000E+00 0.  1.
     999902    2    1    2    0    0  0.21518841850E-01 -0.54997570045E-02  0.52774206427E-02  0.10211010918E+01  0.10208458652E+01 0.  0.
     999903    2    3    3    0    0  0.82678055381E-01 -0.95975246642E-01  0.37955038137E-01  0.13374879968E+00  0.20031167845E-01 0.  0.
         14    1    1    2    0    0 -0.21518841850E-01  0.54997570045E-02 -0.52774206427E-02  0.22828908216E-01  0.00000000000E+00 0.  1.
     999901    1    3    3    0    0 -0.61159213531E-01  0.90475489637E-01 -0.32677617495E-01  0.88735229211E+00  0.88000000000E+00 0. -1.
        -11    1    4    4    0    0  0.42651412835E-01 -0.53683507968E-01  0.30491280078E-01  0.75040264701E-01  0.51100000000E-03 0. -1.
         11    1    4    4    0    0  0.40026642546E-01 -0.42291738673E-01  0.74637580592E-02  0.58708534975E-01  0.51100000000E-03 0.  1.
</event>
<event>
 8    1  0.1112958E+005  0.1043930E+01  0.7957747E-01            NaN
         13   -1    0    0    0    0  0.00000000000E+00  0.00000000000E+00  0.74505805969E-08  0.10566000000E+00  0.10566000000E+00 0. -1.
     999900   -1    0    0    0    0 -0.00000000000E+00 -0.00000000000E+00 -0.74505805969E-08  0.93827000000E+00  0.93827000000E+00 0.  1.
     999902    2    1    2    0    0  0.14505513975E-01 -0.16878586890E-01 -0.82676557513E-02  0.10201886697E+01  0.10199123840E+01 0.  0.
     999903    2    3    3    0    0  0.54098992814E-01  0.62883053016E-01 -0.99398671171E-01  0.13101240783E+00  0.20079237901E-01 0.  0.
         14    1    1    2    0    0 -0.14505513975E-01  0.16878586890E-01  0.82676557513E-02  0.23741330264E-01  0.00000000000E+00 0.  1.
     999901    1    3    3    0    0 -0.39593478839E-01 -0.79761639906E-01  0.91131015420E-01  0.88917626191E+00  0.88000000000E+00 0. -1.
        -11    1    4    4    0    0  0.35671154256E-01  0.45003544773E-01 -0.53868920799E-01  0.78739266171E-01  0.51100000000E-03 0. -1.
         11    1    4    4    0    0  0.18427838558E-01  0.17879508242E-01 -0.45529750372E-01  0.52273141658E-01  0.51100000000E-03 0.  1.
</event>
<event>
 8    1  0.1112958E+005  0.1043930E+01  0.7957747E-01            NaN
         13   -1    0    0    0    0  0.00000000000E+00  0.00000000000E+00  0.74505805969E-08  0.10566000000E+00  0.10566000000E+00 0.  1.
     999900   -1    0    0    0    0 -0.00000000000E+00 -0.00000000000E+00 -0.74505805969E-08  0.93827000000E+00  0.93827000000E+00 0.  1.
     999902    2    1    2    0    0 -0.13680692982E-01  0.11223687752E-01 -0.14390555706E-01  0.10211216546E+01  0.10208668928E+01 0.  0.
     999903    2    3    3    0    0 -0.12142489172E+00  0.15784469036E-01 -0.49994304562E-01  0.13382393678E+00  0.20402494312E-01 0.  0.
         14    1    1    2    0    0  0.13680692982E-01 -0.11223687752E-01  0.14390555706E-01  0.22808345418E-01  0.00000000000E+00 0.  1.
     999901    1    3    3    0    0  0.10774419874E+00 -0.45607812846E-02  0.35603748856E-01  0.88729771780E+00  0.88000000000E+00 0. -1.
        -11    1    4    4    0    0 -0.74586669967E-01  0.53539768568E-02 -0.20666860593E-01  0.77583610722E-01  0.51100000000E-03 0. -1.
         11    1    4    4    0    0 -0.46838221753E-01  0.10430492179E-01 -0.29327443969E-01  0.56240326056E-01  0.51100000000E-03 0.  1.
</event>
<event>
 8    1  0.1112958E+005  0.1043930E+01  0.7957747E-01            NaN
         13   -1    0    0    0    0  0.00000000000E+00  0.00000000000E+00  0.74505805969E-08  0.10566000000E+00  0.10566000000E+00 0.  1.
     999900   -1    0    0    0    0 -0.00000000000E+00 -0.00000000000E+00 -0.74505805969E-08  0.93827000000E+00  0.93827000000E+00 0. -1.
     999902    2    1    2    0    0  0.12845424074E-01  0.86733454418E-02  0.20962272772E-01  0.10178599267E+01  0.10175260103E+01 0.  0.
     999903    2    3    3    0    0  0.83530996993E-01  0.68039726479E-01  0.73568343192E-01  0.13146937169E+00  0.16280747331E-01 0.  0.
         14    1    1    2    0    0 -0.12845424074E-01 -0.86733454418E-02 -0.20962272772E-01  0.26070073275E-01  0.00000000000E+00 0. -1.
     999901    1    3    3    0    0 -0.70685572919E-01 -0.59366381038E-01 -0.52606070420E-01  0.88639055504E+00  0.88000000000E+00 0. -1.
        -11    1    4    4    0    0  0.77969747084E-01  0.66373958056E-01  0.72693568735E-01  0.12557627095E+00  0.51100000000E-03 0. -1.
         11    1    4    4    0    0  0.55612499085E-02  0.16657684236E-02  0.87477445743E-03  0.58931007404E-02  0.51100000000E-03 0.  1.
</event>
<event>
 8    1  0.1112958E+005  0.1043930E+01  0.7957747E-01            NaN
         13   -1    0    0    0    0  0.00000000000E+00  0.00000000000E+00  0.74505805969E-08  0.10566000000E+00  0.10566000000E+00 0. -1.
     999900   -1    0    0    0    0 -0.00000000000E+00 -0.00000000000E+00 -0.74505805969E-08  0.93827000000E+00  0.93827000000E+00 0.  1.
     999902    2    1    2    0    0  0.14789830228E-01 -0.17290026559E-01  0.55605624449E-02  0.10205077040E+01  0.10202388788E+01 0.  0.
     999903    2    3    3    0    0 -0.10658164340E+00  0.66362954982E-01 -0.15244488185E-01  0.12800464736E+00  0.19725790762E-01 0.  0.
         14    1    1    2    0    0 -0.14789830228E-01  0.17290026559E-01 -0.55605624449E-02  0.23422296030E-01  0.00000000000E+00 0. -1.
     999901    1    3    3    0    0  0.12137147363E+00 -0.83652981541E-01  0.20805050630E-01  0.89250305661E+00  0.88000000000E+00 0. -1.
        -11    1    4    4    0    0 -0.51132911973E-01  0.20344050327E-01 -0.64347915301E-02  0.55408688250E-01  0.51100000000E-03 0.  1.
         11    1    4    4    0    0 -0.55448731427E-01  0.46018904655E-01 -0.88096966553E-02  0.72595959107E-01  0.51100000000E-03 0. -1.
</event>
<event>
 8    1  0.1112958E+005  0.1043930E+01  0.7957747E-01            NaN
         13   -1    0    0    0    0  0.00000000000E+00  0.00000000000E+00  0.74505805969E-08  0.10566000000E+00  0.10566000000E+00 0. -1.
     999900   -1    0    0    0    0 -0.00000000000E+00 -0.00000000000E+00 -0.74505805969E-08  0.93827000000E+00  0.93827000000E+00 0. -1.
     999902    2    1    2    0    0  0.12523040633E-01 -0.36585544315E-02  0.19333276059E-01  0.10206064683E+01  0.10203399316E+01 0.  0.
     999903    2    3    3    0    0  0.32574163487E-01 -0.28501341673E-01 -0.11996663842E+00  0.12907762538E+00  0.19890611728E-01 0.  0.
         14    1    1    2    0    0 -0.12523040633E-01  0.36585544315E-02 -0.19333276059E-01  0.23323531688E-01  0.00000000000E+00 0.  1.
     999901    1    3    3    0    0 -0.20051122854E-01  0.24842787241E-01  0.13929991448E+00  0.89152884293E+00  0.88000000000E+00 0.  1.
        -11    1    4    4    0    0  0.47966781744E-02 -0.83365113996E-02 -0.52535120798E-01  0.53410725347E-01  0.51100000000E-03 0.  1.
         11    1    4    4    0    0  0.27777485313E-01 -0.20164830273E-01 -0.67431517625E-01  0.75666900032E-01  0.51100000000E-03 0. -1.
</event>
<event>
 8    1  0.1112958E+005  0.1043930E+01  0.7957747E-01            NaN
         13   -1    0    0    0    0  0.00000000000E+00  0.00000000000E+00  0.74505805969E-08  0.10566000000E+00  0.10566000000E+00 0. -1.
     999900   -1    0    0    0    0 -0.00000000000E+00 -0.00000000000E+00 -0.74505805969E-08  0.93827000000E+00  0.93827000000E+00 0. -1.
     999902    2    1    2    0    0 -0.57153220495E-03 -0.41532968782E-02 -0.22696009387E-01  0.10208500224E+01  0.10205890862E+01 0.  0.
     999903    2    3    3    0    0 -0.11804738656E+00 -0.65536028804E-02  0.50417983366E-01  0.13003466905E+00  0.19720723208E-01 0.  0.
         14    1    1    2    0    0  0.57153220495E-03  0.41532968782E-02  0.22696009387E-01  0.23079977602E-01  0.00000000000E+00 0. -1.
     999901    1    3    3    0    0  0.11747585435E+00  0.24003060021E-02 -0.73113992753E-01  0.89081535335E+00  0.88000000000E+00 0.  1.
        -11    1    4    4    0    0 -0.40091930757E-01 -0.38746702906E-02  0.74006572842E-02  0.40956157423E-01  0.51100000000E-03 0. -1.
         11    1    4    4    0    0 -0.77955455803E-01 -0.26789325898E-02  0.43017326082E-01  0.89078511626E-01  0.51100000000E-03 0.  1.
</event>
<event>
 8    1  0.1112958E+005  0.1043930E+01  0.7957747E-01            NaN
         13   -1    0    0    0    0  0.00000000000E+00  0.00000000000E+00  0.74505805969E-08  0.10566000000E+00  0.10566000000E+00 0. -1.
     999900   -1    0    0    0    0 -0.00000000000E+00 -0.00000000000E+00 -0.74505805969E-08  0.93827000000E+00  0.93827000000E+00 0. -1.
     999902    2    1    2    0    0  0.12262532626E-01  0.33235010235E-02  0.21559467474E-01  0.10189054919E+01  0.10185981423E+01 0.  0.
     999903    2    3    3    0    0 -0.75776440068E-01  0.10154104634E+00 -0.78223310048E-02  0.12859047073E+00  0.20534540132E-01 0.  0.
         14    1    1    2    0    0 -0.12262532626E-01 -0.33235010235E-02 -0.21559467474E-01  0.25024508052E-01  0.00000000000E+00 0.  1.
     999901    1    3    3    0    0  0.88038972694E-01 -0.98217545321E-01  0.29381798479E-01  0.89031502122E+00  0.88000000000E+00 0. -1.
        -11    1    4    4    0    0 -0.59823047532E-01  0.67357079361E-01 -0.10861378320E-01  0.90741411803E-01  0.51100000000E-03 0. -1.
         11    1    4    4    0    0 -0.15953392536E-01  0.34183966984E-01  0.30390473152E-02  0.37849058928E-01  0.51100000000E-03 0.  1.
</event>
<event>
 8    1  0.1112958E+005  0.1043930E+01  0.7957747E-01            NaN
         13   -1    0    0    0    0  0.00000000000E+00  0.00000000000E+00  0.74505805969E-08  0.10566000000E+00  0.10566000000E+00 0. -1.
     999900   -1    0    0    0    0 -0.00000000000E+00 -0.00000000000E+00 -0.74505805969E-08  0.93827000000E+00  0.93827000000E+00 0. -1.
     999902    2    1    2    0    0 -0.62736303709E-02 -0.22555691598E-01 -0.10214804807E-02  0.10204958138E+01  0.10202267125E+01 0.  0.
     999903    2    3    3    0    0  0.76763497756E-01 -0.10859758553E-02 -0.10334826634E+00  0.13042453324E+00  0.20877758115E-01 0.  0.
         14    1    1    2    0    0  0.62736303709E-02  0.22555691598E-01  0.10214804807E-02  0.23434186222E-01  0.00000000000E+00 0. -1.
     999901    1    3    3    0    0 -0.83037128127E-01 -0.21469715743E-01  0.10232678586E+00  0.89007128054E+00  0.88000000000E+00 0. -1.
        -11    1    4    4    0    0  0.27156728612E-01  0.45196409058E-02 -0.23235262008E-01  0.36028510716E-01  0.51100000000E-03 0. -1.
         11    1    4    4    0    0  0.49606769144E-01 -0.56056167611E-02 -0.80113004328E-01  0.94396022521E-01  0.51100000000E-03 0.  1.
</event>
<event>
 8    1  0.1112958E+005  0.1043930E+01  0.7957747E-01            NaN
         13   -1    0    0    0    0  0.00000000000E+00  0.00000000000E+00  0.74505805969E-08  0.10566000000E+00  0.10566000000E+00 0. -1.
     999900   -1    0    0    0    0 -0.00000000000E+00 -0.00000000000E+00 -0.74505805969E-08  0.93827000000E+00  0.93827000000E+00 0. -1.
     999902    2    1    2    0    0 -0.96378253364E-02 -0.22170514762E-01 -0.46162118445E-02  0.10193184415E+01  0.10190212737E+01 0.  0.
     999903    2    3    3    0    0 -0.93761573751E-01  0.66290382506E-01  0.54920500240E-01  0.12889901474E+00  0.20323560939E-01 0.  0.
         14    1    1    2    0    0  0.96378253364E-02  0.22170514762E-01  0.46162118445E-02  0.24611558541E-01  0.00000000000E+00 0.  1.
     999901    1    3    3    0    0  0.84123748415E-01 -0.88460897268E-01 -0.59536712085E-01  0.89041942672E+00  0.88000000000E+00 0. -1.
        -11    1    4    4    0    0 -0.18124041368E-01  0.39535680711E-02  0.75208190552E-02  0.20023371751E-01  0.51100000000E-03 0.  1.
         11    1    4    4    0    0 -0.75637532383E-01  0.62336814435E-01  0.47399681185E-01  0.10887564299E+00  0.51100000000E-03 0. -1.
</event>
<event>
 8    1  0.1112958E+005  0.1043930E+01  0.7957747E-01            NaN
         13   -1    0    0    0    0  0.00000000000E+00  0.00000000000E+00  0.74505805969E-08  0.10566000000E+00  0.10566000000E+00 0. -1.
     999900   -1    0    0    0    0 -0.00000000000E+00 -0.00000000000E+00 -0.74505805969E-08  0.93827000000E+00  0.93827000000E+00 0.  1.
     999902    2    1    2    0    0 -0.10157003874E-01 -0.21822154580E-01  0.69365359413E-02  0.10188803156E+01  0.10185723395E+01 0.  0.
     999903    2    3    3    0    0  0.50704208453E-01 -0.10274716228E+00  0.61091356019E-01  0.13142006939E+00  0.20277690871E-01 0.  0.
         14    1    1    2    0    0  0.10157003874E-01  0.21822154580E-01 -0.69365359413E-02  0.25049684411E-01  0.00000000000E+00 0. -1.
     999901    1    3    3    0    0 -0.60861212327E-01  0.80925007705E-01 -0.54154820078E-01  0.88746024619E+00  0.88000000000E+00 0.  1.
        -11    1    4    4    0    0  0.85828412032E-02 -0.35961575318E-01  0.24776875948E-01  0.44509041388E-01  0.51100000000E-03 0. -1.
         11    1    4    4    0    0  0.42121367250E-01 -0.66785586966E-01  0.36314480071E-01  0.86911028007E-01  0.51100000000E-03 0.  1.
</event>
<event>
 8    1  0.1112958E+005  0.1043930E+01  0.7957747E-01            NaN
         13   -1    0    0    0    0  0.00000000000E+00  0.00000000000E+00  0.74505805969E-08  0.10566000000E+00  0.10566000000E+00 0.  1.
     999900   -1    0    0    0    0 -0.00000000000E+00 -0.00000000000E+00 -0.74505805969E-08  0.93827000000E+00  0.93827000000E+00 0. -1.
     999902    2    1    2    0    0  0.25022911771E-02  0.23344560928E-01  0.40341601211E-02  0.10201076484E+01  0.10198294514E+01 0.  0.
     999903    2    3    3    0    0  0.11157983191E+00  0.67623058356E-01  0.80459911582E-02  0.13225935621E+00  0.20121193287E-01 0.  0.
         14    1    1    2    0    0 -0.25022911771E-02 -0.23344560928E-01 -0.40341601211E-02  0.23822351562E-01  0.00000000000E+00 0.  1.
     999901    1    3    3    0    0 -0.10907754074E+00 -0.44278497428E-01 -0.40118310371E-02  0.88784829223E+00  0.88000000000E+00 0.  1.
        -11    1    4    4    0    0  0.71293957510E-01  0.40529940480E-01  0.14493469776E-01  0.83281608053E-01  0.51100000000E-03 0. -1.
         11    1    4    4    0    0  0.40285874405E-01  0.27093117876E-01 -0.64474786182E-02  0.48977748155E-01  0.51100000000E-03 0.  1.
</event>
<event>
 8    1  0.1112958E+005  0.1043930E+01  0.7957747E-01            NaN
         13   -1    0    0    0    0  0.00000000000E+00  0.00000000000E+00  0.74505805969E-08  0.10566000000E+00  0.10566000000E+00 0.  1.
     999900   -1    0    0    0    0 -0.00000000000E+00 -0.00000000000E+00 -0.74505805969E-08  0.93827000000E+00  0.93827000000E+00 0. -1.
     999902    2    1    2    0    0  0.18360667211E-01 -0.83970264972E-02 -0.12870173501E-01  0.10199870361E+01  0.10197059813E+01 0.  0.
     999903    2    3    3    0    0  0.27933732148E-01  0.88459382978E-01  0.87363157587E-01  0.12896541555E+00  0.19859538645E-01 0.  0.
         14    1    1    2    0    0 -0.18360667211E-01  0.83970264972E-02  0.12870173501E-01  0.23942963901E-01  0.00000000000E+00 0.  1.
     999901    1    3    3    0    0 -0.95730649370E-02 -0.96856409475E-01 -0.10023333109E+00  0.89102162055E+00  0.88000000000E+00 0. -1.
        -11    1    4    4    0    0  0.14529169175E-01  0.18947870139E-01  0.18575366408E-01  0.30255972930E-01  0.51100000000E-03 0. -1.
         11    1    4    4    0    0  0.13404562973E-01  0.69511512839E-01  0.68787791179E-01  0.98709442618E-01  0.51100000000E-03 0.  1.
</event>
<event>
 8    1  0.1112958E+005  0.1043930E+01  0.7957747E-01            NaN
         13   -1    0    0    0    0  0.00000000000E+00  0.00000000000E+00  0.74505805969E-08  0.10566000000E+00  0.10566000000E+00 0.  1.
     999900   -1    0    0    0    0 -0.00000000000E+00 -0.00000000000E+00 -0.74505805969E-08  0.93827000000E+00  0.93827000000E+00 0. -1.
     999902    2    1    2    0    0  0.10881976742E-01  0.11564300219E-01  0.17162945350E-01  0.10205480165E+01  0.10202801267E+01 0.  0.
     999903    2    3    3    0    0 -0.23170545131E-01  0.68602630273E-01 -0.10556249657E+00  0.12955167568E+00  0.19924882586E-01 0.  0.
         14    1    1    2    0    0 -0.10881976742E-01 -0.11564300219E-01 -0.17162945350E-01  0.23381983458E-01  0.00000000000E+00 0. -1.
     999901    1    3    3    0    0  0.34052521872E-01 -0.57038330054E-01  0.12272544192E+00  0.89099634087E+00  0.88000000000E+00 0.  1.
        -11    1    4    4    0    0 -0.52664569008E-02  0.38919476905E-01 -0.67266949481E-01  0.77894575320E-01  0.51100000000E-03 0.  1.
         11    1    4    4    0    0 -0.17904088230E-01  0.29683153368E-01 -0.38295547091E-01  0.51657100356E-01  0.51100000000E-03 0. -1.
</event>
<event>
 8    1  0.1112958E+005  0.1043930E+01  0.7957747E-01            NaN
         13   -1    0    0    0    0  0.00000000000E+00  0.00000000000E+00  0.74505805969E-08  0.10566000000E+00  0.10566000000E+00 0.  1.
     999900   -1    0    0    0    0 -0.00000000000E+00 -0.00000000000E+00 -0.74505805969E-08  0.93827000000E+00  0.93827000000E+00 0. -1.
     999902    2    1    2    0    0  0.15325977298E-01 -0.11285197592E-01  0.15282997056E-01  0.10195207545E+01  0.10192285110E+01 0.  0.
     999903    2    3    3    0    0 -0.39189424576E-01 -0.10239996486E+00 -0.65759570461E-01  0.12944113585E+00  0.20226782765E-01 0.  0.
         14    1    1    2    0    0 -0.15325977298E-01  0.11285197592E-01 -0.15282997056E-01  0.24409245458E-01  0.00000000000E+00 0. -1.
     999901    1    3    3    0    0  0.54515401874E-01  0.91114767271E-01  0.81042567517E-01  0.89007961869E+00  0.88000000000E+00 0.  1.
        -11    1    4    4    0    0 -0.17346698300E-01 -0.42457903973E-01 -0.16166140426E-01  0.48633185881E-01  0.51100000000E-03 0.  1.
         11    1    4    4    0    0 -0.21842726277E-01 -0.59942060890E-01 -0.49593430035E-01  0.80807949971E-01  0.51100000000E-03 0. -1.
</event>
<event>
 8    1  0.1112958E+005  0.1043930E+01  0.7957747E-01            NaN
         13   -1    0    0    0    0  0.00000000000E+00  0.00000000000E+00  0.74505805969E-08  0.10566000000E+00  0.10566000000E+00 0.  1.
     999900   -1    0    0    0    0 -0.00000000000E+00 -0.00000000000E+00 -0.74505805969E-08  0.93827000000E+00  0.93827000000E+00 0.  1.
     999902    2    1    2    0    0  0.19750403216E-01  0.89452440632E-02 -0.26758424981E-02  0.10220838115E+01  0.10218503128E+01 0.  0.
     999903    2    3    3    0    0 -0.37104485223E-01  0.12305012966E+00 -0.25441927906E-01  0.13260604456E+00  0.20469345961E-01 0.  0.
         14    1    1    2    0    0 -0.19750403216E-01 -0.89452440632E-02  0.26758424981E-02  0.21846188492E-01  0.00000000000E+00 0.  1.
     999901    1    3    3    0    0  0.56854888440E-01 -0.11410488560E+00  0.22766085408E-01  0.88947776695E+00  0.88000000000E+00 0. -1.
        -11    1    4    4    0    0  0.55854297335E-03  0.26355732158E-01 -0.55820634146E-02  0.26951013725E-01  0.51100000000E-03 0.  1.
         11    1    4    4    0    0 -0.37663028197E-01  0.96694397503E-01 -0.19859864491E-01  0.10565503083E+00  0.51100000000E-03 0. -1.
</event>
<event>
 8    1  0.1112958E+005  0.1043930E+01  0.7957747E-01            NaN
         13   -1    0    0    0    0  0.00000000000E+00  0.00000000000E+00  0.74505805969E-08  0.10566000000E+00  0.10566000000E+00 0. -1.
     999900   -1    0    0    0    0 -0.00000000000E+00 -0.00000000000E+00 -0.74505805969E-08  0.93827000000E+00  0.93827000000E+00 0.  1.
     999902    2    1    2    0    0 -0.14372675070E-01 -0.11445548449E-01  0.14762682664E-01  0.10203607156E+01  0.10200884661E+01 0.  0.
     999903    2    3    3    0    0 -0.36184528766E-01  0.21503807239E-01  0.12418482536E+00  0.13270389998E+00  0.20413730000E-01 0.  0.
         14    1    1    2    0    0  0.14372675070E-01  0.11445548449E-01 -0.14762682664E-01  0.23569284405E-01  0.00000000000E+00 0.  1.
     999901    1    3    3    0    0  0.21811853697E-01 -0.32949355688E-01 -0.10942214269E+00  0.88765681562E+00  0.88000000000E+00 0.  1.
        -11    1    4    4    0    0 -0.11402618205E-01 -0.15182644316E-02  0.19040654060E-01  0.22251572008E-01  0.51100000000E-03 0.  1.
         11    1    4    4    0    0 -0.24781910561E-01  0.23022071670E-01  0.10514417130E+00  0.11045232797E+00  0.51100000000E-03 0. -1.
</event>
<event>
 8    1  0.1112958E+005  0.1043930E+01  0.7957747E-01            NaN
         13   -1    0    0    0    0  0.00000000000E+00  0.00000000000E+00  0.74505805969E-08  0.10566000000E+00  0.10566000000E+00 0.  1.
     999900   -1    0    0    0    0 -0.00000000000E+00 -0.00000000000E+00 -0.74505805969E-08  0.93827000000E+00  0.93827000000E+00 0.  1.
     999902    2    1    2    0    0 -0.11975009234E-01  0.12838683422E-01  0.30854951431E-01  0.10084298498E+01  0.10078047932E+01 0.  0.
     999903    2    3    3    0    0  0.83615970436E-01 -0.11490178723E-01 -0.77469254035E-01  0.11631793840E+00  0.20117722386E-01 0.  0.
         14    1    1    2    0    0  0.11975009234E-01 -0.12838683422E-01 -0.30854951431E-01  0.35500150224E-01  0.00000000000E+00 0. -1.
     999901    1    3    3    0    0 -0.95590979670E-01  0.24328862145E-01  0.10832420547E+00  0.89211191138E+00  0.88000000000E+00 0. -1.
        -11    1    4    4    0    0  0.37511955776E-01 -0.14886952369E-01 -0.39783480256E-01  0.56672344219E-01  0.51100000000E-03 0.  1.
         11    1    4    4    0    0  0.46104014660E-01  0.33967736463E-02 -0.37685773779E-01  0.59645594182E-01  0.51100000000E-03 0. -1.
</event>
<event>
 8    1  0.1112958E+005  0.1043930E+01  0.7957747E-01            NaN
         13   -1    0    0    0    0  0.00000000000E+00  0.00000000000E+00  0.74505805969E-08  0.10566000000E+00  0.10566000000E+00 0. -1.
     999900   -1    0    0    0    0 -0.00000000000E+00 -0.00000000000E+00 -0.74505805969E-08  0.93827000000E+00  0.93827000000E+00 0. -1.
     999902    2    1    2    0    0  0.91601030843E-02  0.22556662608E-01 -0.10329581950E-01  0.10174836244E+01  0.10171398700E+01 0.  0.
     999903    2    3    3    0    0  0.82958525837E-01 -0.90770523299E-01  0.22182963832E-01  0.12655920347E+00  0.20093361818E-01 0.  0.
         14    1    1    2    0    0 -0.91601030843E-02 -0.22556662608E-01  0.10329581950E-01  0.26446375551E-01  0.00000000000E+00 0. -1.
     999901    1    3    3    0    0 -0.73798422752E-01  0.11332718591E+00 -0.32512545783E-01  0.89092442098E+00  0.88000000000E+00 0.  1.
        -11    1    4    4    0    0  0.71904999251E-01 -0.86927812380E-01  0.21344936439E-01  0.11481568236E+00  0.51100000000E-03 0.  1.
         11    1    4    4    0    0  0.11053526586E-01 -0.38427109194E-02  0.83802739326E-03  0.11743521112E-01  0.51100000000E-03 0. -1.
</event>
<event>
 8    1  0.1112958E+005  0.1043930E+01  0.7957747E-01            NaN
         13   -1    0    0    0    0  0.00000000000E+00  0.00000000000E+00  0.74505805969E-08  0.10566000000E+00  0.10566000000E+00 0. -1.
     999900   -1    0    0    0    0 -0.00000000000E+00 -0.00000000000E+00 -0.74505805969E-08  0.93827000000E+00  0.93827000000E+00 0. -1.
     999902    2    1    2    0    0 -0.18998297327E-01 -0.11241235102E-01  0.76901575916E-02  0.10205539612E+01  0.10202862091E+01 0.  0.
     999903    2    3    3    0    0 -0.11003699658E-01  0.50590517399E-02  0.12981977225E+00  0.13193410109E+00  0.20168251089E-01 0.  0.
         14    1    1    2    0    0  0.18998297327E-01  0.11241235102E-01 -0.76901575916E-02  0.23376038838E-01  0.00000000000E+00 0.  1.
     999901    1    3    3    0    0 -0.79945976698E-02 -0.16300286842E-01 -0.12212961466E+00  0.88861986007E+00  0.88000000000E+00 0. -1.
        -11    1    4    4    0    0 -0.18775014656E-03  0.93948815641E-02  0.88521721448E-01  0.89020533242E-01  0.51100000000E-03 0.  1.
         11    1    4    4    0    0 -0.10815949511E-01 -0.43358298243E-02  0.41298050802E-01  0.42913567845E-01  0.51100000000E-03 0. -1.
</event>
<event>
 8    1  0.1112958E+005  0.1043930E+01  0.7957747E-01            NaN
         13   -1    0    0    0    0  0.00000000000E+00  0.00000000000E+00  0.74505805969E-08  0.10566000000E+00  0.10566000000E+00 0.  1.
     999900   -1    0    0    0    0 -0.00000000000E+00 -0.00000000000E+00 -0.74505805969E-08  0.93827000000E+00  0.93827000000E+00 0.  1.
     999902    2    1    2    0    0 -0.10288291539E-01  0.23577589638E-01  0.82543352466E-02  0.10169136026E+01  0.10165546663E+01 0.  0.
     999903    2    3    3    0    0 -0.63366011008E-01 -0.36887477438E-01 -0.10112616539E+00  0.12649945037E+00  0.19991805204E-01 0.  0.
         14    1    1    2    0    0  0.10288291539E-01 -0.23577589638E-01 -0.82543352466E-02  0.27016397360E-01  0.00000000000E+00 0. -1.
     999901    1    3    3    0    0  0.53077719470E-01  0.60465067076E-01  0.10938050064E+00  0.89041415227E+00  0.88000000000E+00 0. -1.
        -11    1    4    4    0    0 -0.21761302854E-01 -0.18075756906E-01 -0.53490790670E-01  0.60512916779E-01  0.51100000000E-03 0.  1.
         11    1    4    4    0    0 -0.41604708154E-01 -0.18811720532E-01 -0.47635374719E-01  0.65986533593E-01  0.51100000000E-03 0. -1.
</event>
<event>
 8    1  0.1112958E+005  0.1043930E+01  0.7957747E-01            NaN
         13   -1    0    0    0    0  0.00000000000E+00  0.00000000000E+00  0.74505805969E-08  0.10566000000E+00  0.10566000000E+00 0.  1.
     999900   -1    0    0    0    0 -0.00000000000E+00 -0.00000000000E+00 -0.74505805969E-08  0.93827000000E+00  0.93827000000E+00 0.  1.
     999902    2    1    2    0    0 -0.18651741584E-01 -0.83068148589E-02 -0.10542524189E-01  0.10209509780E+01  0.10206923454E+01 0.  0.
     999903    2    3    3    0    0 -0.30276427438E-01 -0.11275444637E+00  0.58425050759E-01  0.13201849041E+00  0.19625697928E-01 0.  0.
         14    1    1    2    0    0  0.18651741584E-01  0.83068148589E-02  0.10542524189E-01  0.22979022031E-01  0.00000000000E+00 0.  1.
     999901    1    3    3    0    0  0.11624685854E-01  0.10444763151E+00 -0.68967574947E-01  0.88893248756E+00  0.88000000000E+00 0.  1.
        -11    1    4    4    0    0 -0.30624155517E-01 -0.81024311979E-01  0.44077208055E-01  0.97189708425E-01  0.51100000000E-03 0. -1.
         11    1    4    4    0    0  0.34772807816E-03 -0.31730134389E-01  0.14347842704E-01  0.34828781983E-01  0.51100000000E-03 0.  1.
</event>
<event>
 8    1  0.1112958E+005  0.1043930E+01  0.7957747E-01            NaN
         13   -1    0    0    0    0  0.00000000000E+00  0.00000000000E+00  0.74505805969E-08  0.10566000000E+00  0.10566000000E+00 0. -1.
     999900   -1    0    0    0    0 -0.00000000000E+00 -0.00000000000E+00 -0.74505805969E-08  0.93827000000E+00  0.93827000000E+00 0. -1.
     999902    2    1    2    0    0 -0.60006452096E-02 -0.66496763121E-02 -0.20166234321E-01  0.10218641226E+01  0.10216258523E+01 0.  0.
     999903    2    3    3    0    0  0.48708964515E-01  0.67911449859E-01  0.96683848667E-01  0.12933600271E+00  0.19887351699E-01 0.  0.
         14    1    1    2    0    0  0.60006452096E-02  0.66496763121E-02  0.20166234321E-01  0.22065877383E-01  0.00000000000E+00 0. -1.
     999901    1    3    3    0    0 -0.54709609725E-01 -0.74561126171E-01 -0.11685008299E+00  0.89252811991E+00  0.88000000000E+00 0. -1.
        -11    1    4    4    0    0  0.22504082337E-01  0.47918098184E-01  0.59745909546E-01  0.79827393066E-01  0.51100000000E-03 0.  1.
         11    1    4    4    0    0  0.26204882179E-01  0.19993351675E-01  0.36937939122E-01  0.49508609643E-01  0.51100000000E-03 0. -1.
</event>
<event>
 8    1  0.1112958E+005  0.1043930E+01  0.7957747E-01            NaN
         13   -1    0    0    0    0  0.00000000000E+00  0.00000000000E+00  0.74505805969E-08  0.10566000000E+00  0.10566000000E+00 0. -1.
     999900   -1    0    0    0    0 -0.00000000000E+00 -0.00000000000E+00 -0.74505805969E-08  0.93827000000E+00  0.93827000000E+00 0. -1.
     999902    2    1    2    0    0 -0.34975703983E-02  0.10347532572E-01 -0.20736368449E-01  0.10204928200E+01  0.10202236492E+01 0.  0.
     999903    2    3    3    0    0 -0.25606220103E-01 -0.12093291490E+00  0.28641557796E-01  0.12911101188E+00  0.23850914922E-01 0.  0.
         14    1    1    2    0    0  0.34975703983E-02 -0.10347532572E-01  0.20736368449E-01  0.23437179981E-01  0.00000000000E+00 0. -1.
     999901    1    3    3    0    0  0.22108649705E-01  0.13128044747E+00 -0.49377926245E-01  0.89138180814E+00  0.88000000000E+00 0. -1.
        -11    1    4    4    0    0 -0.26916920429E-01 -0.77623989664E-01  0.23628772675E-01  0.85490259070E-01  0.51100000000E-03 0.  1.
         11    1    4    4    0    0  0.13107003258E-02 -0.43308925232E-01  0.50127851215E-02  0.43620752811E-01  0.51100000000E-03 0. -1.
</event>
<event>
 8    1  0.1112958E+005  0.1043930E+01  0.7957747E-01            NaN
         13   -1    0    0    0    0  0.00000000000E+00  0.00000000000E+00  0.74505805969E-08  0.10566000000E+00  0.10566000000E+00 0.  1.
     999900   -1    0    0    0    0 -0.00000000000E+00 -0.00000000000E+00 -0.74505805969E-08  0.93827000000E+00  0.93827000000E+00 0.  1.
     999902    2    1    2    0    0  0.17006495827E-02  0.11213880972E-01  0.20594207900E-01  0.10204190508E+01  0.10201481630E+01 0.  0.
     999903    2    3    3    0    0  0.33558513168E-01 -0.90139778864E-01  0.87921697755E-01  0.13147558870E+00  0.17442819399E-01 0.  0.
         14    1    1    2    0    0 -0.17006495827E-02 -0.11213880972E-01 -0.20594207900E-01  0.23510949247E-01  0.00000000000E+00 0.  1.
     999901    1    3    3    0    0 -0.31857863585E-01  0.10135365984E+00 -0.67327489855E-01  0.88894346205E+00  0.88000000000E+00 0.  1.
        -11    1    4    4    0    0  0.29849510023E-01 -0.58624750772E-01  0.55035210518E-01  0.85772898806E-01  0.51100000000E-03 0. -1.
         11    1    4    4    0    0  0.37090031450E-02 -0.31515028091E-01  0.32886487237E-01  0.45702689896E-01  0.51100000000E-03 0.  1.
</event>
<event>
 8    1  0.1112958E+005  0.1043930E+01  0.7957747E-01            NaN
         13   -1    0    0    0    0  0.00000000000E+00  0.00000000000E+00  0.74505805969E-08  0.10566000000E+00  0.10566000000E+00 0. -1.
     999900   -1    0    0    0    0 -0.00000000000E+00 -0.00000000000E+00 -0.74505805969E-08  0.93827000000E+00  0.93827000000E+00 0.  1.
     999902    2    1    2    0    0  0.12600756099E-01 -0.18059402504E-01  0.83591823271E-02  0.10203758708E+01  0.10201039754E+01 0.  0.
     999903    2    3    3    0    0  0.11856455206E+00  0.12308669528E-01  0.53958447441E-01  0.13232753944E+00  0.19748602346E-01 0.  0.
         14    1    1    2    0    0 -0.12600756099E-01  0.18059402504E-01 -0.83591823271E-02  0.23554129198E-01  0.00000000000E+00 0.  1.
     999901    1    3    3    0    0 -0.10596379596E+00 -0.30368072032E-01 -0.45599265114E-01  0.88804833136E+00  0.88000000000E+00 0.  1.
        -11    1    4    4    0    0  0.45667940546E-01 -0.43122596919E-02  0.24075962971E-01  0.51808006055E-01  0.51100000000E-03 0. -1.
         11    1    4    4    0    0  0.72896611510E-01  0.16620929220E-01  0.29882484470E-01  0.80519533388E-01  0.51100000000E-03 0.  1.
</event>
<event>
 8    1  0.1112958E+005  0.1043930E+01  0.7957747E-01            NaN
         13   -1    0    0    0    0  0.00000000000E+00  0.00000000000E+00  0.74505805969E-08  0.10566000000E+00  0.10566000000E+00 0. -1.
     999900   -1    0    0    0    0 -0.00000000000E+00 -0.00000000000E+00 -0.74505805969E-08  0.93827000000E+00  0.93827000000E+00 0.  1.
     999902    2    1    2    0    0  0.12761052214E-02 -0.22778982085E-01 -0.66535235599E-02  0.10201649028E+01  0.10198880571E+01 0.  0.
     999903    2    3    3    0    0 -0.34977654273E-01 -0.54665602109E-01  0.11190036196E+00  0.13090334657E+00  0.20055692049E-01 0.  0.
         14    1    1    2    0    0 -0.12761052214E-02  0.22778982085E-01  0.66535235599E-02  0.23765097205E-01  0.00000000000E+00 0. -1.
     999901    1    3    3    0    0  0.36253759494E-01  0.31886620023E-01 -0.11855388552E+00  0.88926155623E+00  0.88000000000E+00 0.  1.
        -11    1    4    4    0    0 -0.15253702337E-01 -0.27843984658E-01  0.35890581211E-01  0.47920328226E-01  0.51100000000E-03 0. -1.
         11    1    4    4    0    0 -0.19723951936E-01 -0.26821617450E-01  0.76009780748E-01  0.82983018341E-01  0.51100000000E-03 0.  1.
</event>
<event>
 8    1  0.1112958E+005  0.1043930E+01  0.7957747E-01            NaN
         13   -1    0    0    0    0  0.00000000000E+00  0.00000000000E+00  0.74505805969E-08  0.10566000000E+00  0.10566000000E+00 0. -1.
     999900   -1    0    0    0    0 -0.00000000000E+00 -0.00000000000E+00 -0.74505805969E-08  0.93827000000E+00  0.93827000000E+00 0. -1.
     999902    2    1    2    0    0  0.17681975278E-01  0.11397413147E-01 -0.11178317698E-01  0.10201075723E+01  0.10198293734E+01 0.  0.
     999903    2    3    3    0    0  0.81046594064E-01 -0.68117420903E-01  0.73213157816E-01  0.13024263596E+00  0.19860621944E-01 0.  0.
         14    1    1    2    0    0 -0.17681975278E-01 -0.11397413147E-01  0.11178317698E-01  0.23822427725E-01  0.00000000000E+00 0. -1.
     999901    1    3    3    0    0 -0.63364618787E-01  0.79514834049E-01 -0.84391475514E-01  0.88986493632E+00  0.88000000000E+00 0. -1.
        -11    1    4    4    0    0  0.51488144444E-01 -0.30401711465E-01  0.40680266557E-01  0.72321769105E-01  0.51100000000E-03 0.  1.
         11    1    4    4    0    0  0.29558449620E-01 -0.37715709438E-01  0.32532891259E-01  0.57920866853E-01  0.51100000000E-03 0. -1.
</event>
<event>
 8    1  0.1112958E+005  0.1043930E+01  0.7957747E-01            NaN
         13   -1    0    0    0    0  0.00000000000E+00  0.00000000000E+00  0.74505805969E-08  0.10566000000E+00  0.10566000000E+00 0.  1.
     999900   -1    0    0    0    0 -0.00000000000E+00 -0.00000000000E+00 -0.74505805969E-08  0.93827000000E+00  0.93827000000E+00 0. -1.
     999902    2    1    2    0    0 -0.15445328602E-01  0.69125596281E-02  0.16144402359E-01  0.10205423241E+01  0.10202743023E+01 0.  0.
     999903    2    3    3    0    0  0.55535650413E-01  0.11392698537E+00 -0.23505743526E-01  0.13033868405E+00  0.19289533922E-01 0.  0.
         14    1    1    2    0    0  0.15445328602E-01 -0.69125596281E-02 -0.16144402359E-01  0.23387675895E-01  0.00000000000E+00 0. -1.
     999901    1    3    3    0    0 -0.70980979015E-01 -0.10701442574E+00  0.39650145885E-01  0.89020364006E+00  0.88000000000E+00 0.  1.
        -11    1    4    4    0    0  0.11056848950E-01  0.10334818538E-01  0.15441315928E-03  0.15144218280E-01  0.51100000000E-03 0.  1.
         11    1    4    4    0    0  0.44478801464E-01  0.10359216683E+00 -0.23660156685E-01  0.11519446577E+00  0.51100000000E-03 0. -1.
</event>
<event>
 8    1  0.1112958E+005  0.1043930E+01  0.7957747E-01            NaN
         13   -1    0    0    0    0  0.00000000000E+00  0.00000000000E+00  0.74505805969E-08  0.10566000000E+00  0.10566000000E+00 0. -1.
     999900   -1    0    0    0    0 -0.00000000000E+00 -0.00000000000E+00 -0.74505805969E-08  0.93827000000E+00  0.93827000000E+00 0.  1.
     999902    2    1    2    0    0  0.18625476432E-01  0.64998923992E-02 -0.90505948123E-02  0.10222258474E+01  0.10219954075E+01 0.  0.
     999903    2    3    3    0    0 -0.48026492336E-01  0.11456388549E+00  0.39617690649E-01  0.13178274784E+00  0.19123372942E-01 0.  0.
         14    1    1    2    0    0 -0.18625476432E-01 -0.64998923992E-02  0.90505948123E-02  0.21704152598E-01  0.00000000000E+00 0. -1.
     999901    1    3    3    0    0  0.66651968768E-01 -0.10806399309E+00 -0.48668285461E-01  0.89044309956E+00  0.88000000000E+00 0.  1.
        -11    1    4    4    0    0 -0.16256073476E-01  0.19968742340E-01  0.56102557854E-02  0.26358047850E-01  0.51100000000E-03 0. -1.
         11    1    4    4    0    0 -0.31770418860E-01  0.94595143147E-01  0.34007434864E-01  0.10542469999E+00  0.51100000000E-03 0.  1.
</event>
<event>
 8    1  0.1112958E+005  0.1043930E+01  0.7957747E-01            NaN
         13   -1    0    0    0    0  0.00000000000E+00  0.00000000000E+00  0.74505805969E-08  0.10566000000E+00  0.10566000000E+00 0.  1.
     999900   -1    0    0    0    0 -0.00000000000E+00 -0.00000000000E+00 -0.74505805969E-08  0.93827000000E+00  0.93827000000E+00 0. -1.
     999902    2    1    2    0    0 -0.10246740319E-01 -0.75695875782E-02  0.11355940321E-01  0.10268639013E+01  0.10267220754E+01 0.  0.
     999903    2    3    3    0    0  0.61833450527E-01  0.77405126745E-01 -0.88320453588E-01  0.13425444614E+00  0.20219409889E-01 0.  0.
         14    1    1    2    0    0  0.10246740319E-01  0.75695875782E-02 -0.11355940321E-01  0.17066098671E-01  0.00000000000E+00 0. -1.
     999901    1    3    3    0    0 -0.72080190846E-01 -0.84974714324E-01  0.99676393909E-01  0.89260945519E+00  0.88000000000E+00 0.  1.
        -11    1    4    4    0    0  0.13310314243E-01  0.18621891365E-01 -0.32593559449E-01  0.39831401454E-01  0.51100000000E-03 0.  1.
         11    1    4    4    0    0  0.48523136285E-01  0.58783235381E-01 -0.55726894139E-01  0.94423044688E-01  0.51100000000E-03 0. -1.
</event>
<event>
 8    1  0.1112958E+005  0.1043930E+01  0.7957747E-01            NaN
         13   -1    0    0    0    0  0.00000000000E+00  0.00000000000E+00  0.74505805969E-08  0.10566000000E+00  0.10566000000E+00 0.  1.
     999900   -1    0    0    0    0 -0.00000000000E+00 -0.00000000000E+00 -0.74505805969E-08  0.93827000000E+00  0.93827000000E+00 0.  1.
     999902    2    1    2    0    0 -0.51598399457E-02 -0.21884106458E-01  0.46695707623E-02  0.10209660510E+01  0.10207077615E+01 0.  0.
     999903    2    3    3    0    0  0.30234854535E-01 -0.66057183467E-01  0.10947269997E+00  0.13294142236E+00  0.20284275314E-01 0.  0.
         14    1    1    2    0    0  0.51598399457E-02  0.21884106458E-01 -0.46695707623E-02  0.22963949025E-01  0.00000000000E+00 0. -1.
     999901    1    3    3    0    0 -0.35394694481E-01  0.44173077009E-01 -0.10480312921E+00  0.88802462861E+00  0.88000000000E+00 0.  1.
        -11    1    4    4    0    0  0.25926027055E-01 -0.32705685238E-01  0.58076529312E-01  0.71518984218E-01  0.51100000000E-03 0. -1.
         11    1    4    4    0    0  0.43088274798E-02 -0.33351498229E-01  0.51396170657E-01  0.61422438144E-01  0.51100000000E-03 0.  1.
</event>
<event>
 8    1  0.1112958E+005  0.1043930E+01  0.7957747E-01            NaN
         13   -1    0    0    0    0  0.00000000000E+00  0.00000000000E+00  0.74505805969E-08  0.10566000000E+00  0.10566000000E+00 0. -1.
     999900   -1    0    0    0    0 -0.00000000000E+00 -0.00000000000E+00 -0.74505805969E-08  0.93827000000E+00  0.93827000000E+00 0. -1.
     999902    2    1    2    0    0  0.21399459058E-01 -0.14781037522E-02  0.49195175827E-02  0.10219226537E+01  0.10216856595E+01 0.  0.
     999903    2    3    3    0    0 -0.20948367796E-02 -0.11996042956E+00  0.52187377519E-01  0.13241475937E+00  0.20377760570E-01 0.  0.
         14    1    1    2    0    0 -0.21399459058E-01  0.14781037522E-02 -0.49195175827E-02  0.22007346317E-01  0.00000000000E+00 0. -1.
     999901    1    3    3    0    0  0.23494295838E-01  0.11848232580E+00 -0.47267859936E-01  0.88950789431E+00  0.88000000000E+00 0. -1.
        -11    1    4    4    0    0 -0.52018387712E-02 -0.49730607839E-01  0.11946269218E-01  0.51411739436E-01  0.51100000000E-03 0.  1.
         11    1    4    4    0    0  0.31070019916E-02 -0.70229821717E-01  0.40241108301E-01  0.81003019932E-01  0.51100000000E-03 0. -1.
</event>
<event>
 8    1  0.1112958E+005  0.1043930E+01  0.7957747E-01            NaN
         13   -1    0    0    0    0  0.00000000000E+00  0.00000000000E+00  0.74505805969E-08  0.10566000000E+00  0.10566000000E+00 0. -1.
     999900   -1    0    0    0    0 -0.00000000000E+00 -0.00000000000E+00 -0.74505805969E-08  0.93827000000E+00  0.93827000000E+00 0.  1.
     999902    2    1    2    0    0  0.48427977473E-02  0.21321723481E-01 -0.57607700595E-02  0.10213190501E+01  0.10210687279E+01 0.  0.
     999903    2    3    3    0    0 -0.43982915153E-01  0.12431798032E-01  0.12101186431E+00  0.13085047582E+00  0.19721290301E-01 0.  0.
         14    1    1    2    0    0 -0.48427977473E-02 -0.21321723481E-01  0.57607700595E-02  0.22610949867E-01  0.00000000000E+00 0. -1.
     999901    1    3    3    0    0  0.48825712901E-01  0.88899254492E-02 -0.12677263437E+00  0.89046857431E+00  0.88000000000E+00 0.  1.
        -11    1    4    4    0    0 -0.58682565001E-02  0.85670614083E-02  0.16136494066E-01  0.19195794781E-01  0.51100000000E-03 0.  1.
         11    1    4    4    0    0 -0.38114658653E-01  0.38647366237E-02  0.10487537024E+00  0.11165468104E+00  0.51100000000E-03 0. -1.
</event>
<event>
 8    1  0.1112958E+005  0.1043930E+01  0.7957747E-01            NaN
         13   -1    0    0    0    0  0.00000000000E+00  0.00000000000E+00  0.74505805969E-08  0.10566000000E+00  0.10566000000E+00 0. -1.
     999900   -1    0    0    0    0 -0.00000000000E+00 -0.00000000000E+00 -0.74505805969E-08  0.93827000000E+00  0.93827000000E+00 0. -1.
     999902    2    1    2    0    0 -0.15037392542E-01  0.10129397593E-01 -0.15211041002E-01  0.10202634912E+01  0.10199889646E+01 0.  0.
     999903    2    3    3    0    0  0.62757977027E-01 -0.10898683345E+00  0.17869146606E-01  0.12822364073E+00  0.17472896053E-01 0.  0.
         14    1    1    2    0    0  0.15037392542E-01 -0.10129397593E-01  0.15211041002E-01  0.23666508793E-01  0.00000000000E+00 0. -1.
     999901    1    3    3    0    0 -0.77795369569E-01  0.11911623104E+00 -0.33080187608E-01  0.89203985048E+00  0.88000000000E+00 0.  1.
        -11    1    4    4    0    0  0.43750745621E-01 -0.85964754451E-01  0.19132347832E-01  0.98338062849E-01  0.51100000000E-03 0. -1.
         11    1    4    4    0    0  0.19007231406E-01 -0.23022078997E-01 -0.12632012259E-02  0.29885577883E-01  0.51100000000E-03 0.  1.
</event>
<event>
 8    1  0.1112958E+005  0.1043930E+01  0.7957747E-01            NaN
         13   -1    0    0    0    0  0.00000000000E+00  0.00000000000E+00  0.74505805969E-08  0.10566000000E+00  0.10566000000E+00 0.  1.
     999900   -1    0    0    0    0 -0.00000000000E+00 -0.00000000000E+00 -0.74505805969E-08  0.93827000000E+00  0.93827000000E+00 0. -1.
     999902    2    1    2    0    0  0.17889064386E-01  0.83868544343E-02  0.24678059446E-01  0.10123172720E+01  0.10118235492E+01 0.  0.
     999903    2    3    3    0    0 -0.52513952551E-01  0.58736160734E-01 -0.89302469102E-01  0.12075504855E+00  0.19979964280E-01 0.  0.
         14    1    1    2    0    0 -0.17889064386E-01 -0.83868544343E-02 -0.24678059446E-01  0.31612727974E-01  0.00000000000E+00 0. -1.
     999901    1    3    3    0    0  0.70403016938E-01 -0.50349306300E-01  0.11398052855E+00  0.89156222347E+00  0.88000000000E+00 0.  1.
        -11    1    4    4    0    0 -0.43697575680E-01  0.57712106127E-01 -0.79312538073E-01  0.10738205218E+00  0.51100000000E-03 0.  1.
         11    1    4    4    0    0 -0.88163768717E-02  0.10240546074E-02 -0.99899310289E-02  0.13372996371E-01  0.51100000000E-03 0. -1.
</event>
<event>
 8    1  0.1112958E+005  0.1043930E+01  0.7957747E-01            NaN
         13   -1    0    0    0    0  0.00000000000E+00  0.00000000000E+00  0.74505805969E-08  0.10566000000E+00  0.10566000000E+00 0.  1.
     999900   -1    0    0    0    0 -0.00000000000E+00 -0.00000000000E+00 -0.74505805969E-08  0.93827000000E+00  0.93827000000E+00 0. -1.
     999902    2    1    2    0    0  0.69064846927E-03 -0.15685566468E-01 -0.17802796723E-01  0.10201928232E+01  0.10199166353E+01 0.  0.
     999903    2    3    3    0    0  0.49434512040E-01  0.36070076024E-01 -0.11518717437E+00  0.13197081956E+00  0.20084588885E-01 0.  0.
         14    1    1    2    0    0 -0.69064846927E-03  0.15685566468E-01  0.17802796723E-01  0.23737176789E-01  0.00000000000E+00 0.  1.
     999901    1    3    3    0    0 -0.48743863571E-01 -0.51755642492E-01  0.97384377645E-01  0.88822200365E+00  0.88000000000E+00 0.  1.
        -11    1    4    4    0    0  0.40563396802E-01  0.29914164398E-01 -0.75059205616E-01  0.90412343519E-01  0.51100000000E-03 0. -1.
         11    1    4    4    0    0  0.88711152378E-02  0.61559116256E-02 -0.40127968752E-01  0.41558476039E-01  0.51100000000E-03 0.  1.
</event>
<event>
 8    1  0.1112958E+005  0.1043930E+01  0.7957747E-01            NaN
         13   -1    0    0    0    0  0.00000000000E+00  0.00000000000E+00  0.74505805969E-08  0.10566000000E+00  0.10566000000E+00 0.  1.
     999900   -1    0    0    0    0 -0.00000000000E+00 -0.00000000000E+00 -0.74505805969E-08  0.93827000000E+00  0.93827000000E+00 0. -1.
     999902    2    1    2    0    0 -0.22617753546E-01 -0.11327679801E-01 -0.38006462695E-03  0.10186313132E+01  0.10183171061E+01 0.  0.
     999903    2    3    3    0    0 -0.36588700619E-02  0.10894794746E+00 -0.63681560349E-01  0.12799516687E+00  0.21080299480E-01 0.  0.
         14    1    1    2    0    0  0.22617753546E-01  0.11327679801E-01  0.38006462695E-03  0.25298686809E-01  0.00000000000E+00 0.  1.
     999901    1    3    3    0    0 -0.18958883484E-01 -0.12027562726E+00  0.63301495722E-01  0.89063614632E+00  0.88000000000E+00 0.  1.
        -11    1    4    4    0    0  0.10008616290E-02  0.42261092114E-01 -0.36414658726E-01  0.55796864803E-01  0.51100000000E-03 0.  1.
         11    1    4    4    0    0 -0.46597316909E-02  0.66686855350E-01 -0.27266901623E-01  0.72198302065E-01  0.51100000000E-03 0. -1.
</event>
<event>
 8    1  0.1112958E+005  0.1043930E+01  0.7957747E-01            NaN
         13   -1    0    0    0    0  0.00000000000E+00  0.00000000000E+00  0.74505805969E-08  0.10566000000E+00  0.10566000000E+00 0. -1.
     999900   -1    0    0    0    0 -0.00000000000E+00 -0.00000000000E+00 -0.74505805969E-08  0.93827000000E+00  0.93827000000E+00 0.  1.
     999902    2    1    2    0    0  0.13506960101E-01  0.40619527502E-02  0.19564555713E-01  0.10198113501E+01  0.10195261059E+01 0.  0.
     999903    2    3    3    0    0  0.93506167863E-01 -0.70942798420E-01  0.57523307980E-01  0.13219293391E+00  0.19742257685E-01 0.  0.
         14    1    1    2    0    0 -0.13506960101E-01 -0.40619527502E-02 -0.19564555713E-01  0.24118649870E-01  0.00000000000E+00 0.  1.
     999901    1    3    3    0    0 -0.79999207763E-01  0.75004751170E-01 -0.37958752267E-01  0.88761841622E+00  0.88000000000E+00 0.  1.
        -11    1    4    4    0    0  0.31387278646E-01 -0.29791751743E-01  0.12150230705E-01  0.44951072956E-01  0.51100000000E-03 0.  1.
         11    1    4    4    0    0  0.62118889217E-01 -0.41151046677E-01  0.45373077275E-01  0.87241860953E-01  0.51100000000E-03 0. -1.
</event>
<event>
 8    1  0.1112958E+005  0.1043930E+01  0.7957747E-01            NaN
         13   -1    0    0    0    0  0.00000000000E+00  0.00000000000E+00  0.74505805969E-08  0.10566000000E+00  0.10566000000E+00 0.  1.
     999900   -1    0    0    0    0 -0.00000000000E+00 -0.00000000000E+00 -0.74505805969E-08  0.93827000000E+00  0.93827000000E+00 0. -1.
     999902    2    1    2    0    0  0.28711556093E-01 -0.14601300237E-01  0.52988869512E-02  0.10112860170E+01  0.10107590111E+01 0.  0.
     999903    2    3    3    0    0  0.85557863354E-01  0.65285309365E-01  0.58647085682E-01  0.12423505831E+00  0.20311313429E-01 0.  0.
         14    1    1    2    0    0 -0.28711556093E-01  0.14601300237E-01 -0.52988869512E-02  0.32643982980E-01  0.00000000000E+00 0.  1.
     999901    1    3    3    0    0 -0.56846307261E-01 -0.79886609602E-01 -0.53348198731E-01  0.88705095871E+00  0.88000000000E+00 0.  1.
        -11    1    4    4    0    0  0.24173216997E-01  0.24507229371E-01  0.28177783512E-01  0.44488170518E-01  0.51100000000E-03 0.  1.
         11    1    4    4    0    0  0.61384646358E-01  0.40778079994E-01  0.30469302170E-01  0.79746887790E-01  0.51100000000E-03 0. -1.
</event>
<event>
 8    1  0.1112958E+005  0.1043930E+01  0.7957747E-01            NaN
         13   -1    0    0    0    0  0.00000000000E+00  0.00000000000E+00  0.74505805969E-08  0.10566000000E+00  0.10566000000E+00 0. -1.
     999900   -1    0    0    0    0 -0.00000000000E+00 -0.00000000000E+00 -0.74505805969E-08  0.93827000000E+00  0.93827000000E+00 0. -1.
     999902    2    1    2    0    0 -0.81560840174E-02 -0.23958377377E-01  0.74925725645E-02  0.10175356029E+01  0.10171932162E+01 0.  0.
     999903    2    3    3    0    0 -0.32152420023E-01 -0.89576804154E-01 -0.85970050170E-01  0.12983246341E+00  0.20194976404E-01 0.  0.
         14    1    1    2    0    0  0.81560840174E-02  0.23958377377E-01 -0.74925725645E-02  0.26394397069E-01  0.00000000000E+00 0.  1.
     999901    1    3    3    0    0  0.23996336005E-01  0.65618426777E-01  0.93462622735E-01  0.88770313953E+00  0.88000000000E+00 0.  1.
        -11    1    4    4    0    0 -0.29663521433E-01 -0.56758979795E-01 -0.51627722458E-01  0.82262926877E-01  0.51100000000E-03 0.  1.
         11    1    4    4    0    0 -0.24888985895E-02 -0.32817824359E-01 -0.34342327712E-01  0.47569536528E-01  0.51100000000E-03 0. -1.
</event>
<event>
 8    1  0.1112958E+005  0.1043930E+01  0.7957747E-01            NaN
         13   -1    0    0    0    0  0.00000000000E+00  0.00000000000E+00  0.74505805969E-08  0.10566000000E+00  0.10566000000E+00 0. -1.
     999900   -1    0    0    0    0 -0.00000000000E+00 -0.00000000000E+00 -0.74505805969E-08  0.93827000000E+00  0.93827000000E+00 0. -1.
     999902    2    1    2    0    0 -0.17592925220E-01 -0.14028947908E-01  0.91309959319E-02  0.10196463124E+01  0.10193571037E+01 0.  0.
     999903    2    3    3    0    0 -0.38132882662E-01  0.11591085313E+00 -0.35722833415E-01  0.12873772687E+00  0.20195021148E-01 0.  0.
         14    1    1    2    0    0  0.17592925220E-01  0.14028947908E-01 -0.91309959319E-02  0.24283687609E-01  0.00000000000E+00 0.  1.
     999901    1    3    3    0    0  0.20539957443E-01 -0.12993980104E+00  0.44853829347E-01  0.89090858552E+00  0.88000000000E+00 0.  1.
        -11    1    4    4    0    0 -0.31492316219E-01  0.73709061421E-01 -0.16258437818E-01  0.81788688935E-01  0.51100000000E-03 0.  1.
         11    1    4    4    0    0 -0.66405664432E-02  0.42201791710E-01 -0.19464395597E-01  0.46949037937E-01  0.51100000000E-03 0. -1.
</event>
<event>
 8    1  0.1112958E+005  0.1043930E+01  0.7957747E-01            NaN
         13   -1    0    0    0    0  0.00000000000E+00  0.00000000000E+00  0.74505805969E-08  0.10566000000E+00  0.10566000000E+00 0.  1.
     999900   -1    0    0    0    0 -0.00000000000E+00 -0.00000000000E+00 -0.74505805969E-08  0.93827000000E+00  0.93827000000E+00 0.  1.
     999902    2    1    2    0    0  0.17379311941E-01 -0.13282300793E-01 -0.11072432658E-01  0.10194135002E+01  0.10191186514E+01 0.  0.
     999903    2    3    3    0    0 -0.11428571765E+00 -0.52651413178E-01 -0.18099717998E-01  0.12871995594E+00  0.20194818597E-01 0.  0.
         14    1    1    2    0    0 -0.17379311941E-01  0.13282300793E-01  0.11072432658E-01  0.24516499809E-01  0.00000000000E+00 0.  1.
     999901    1    3    3    0    0  0.13166502959E+00  0.39369112385E-01  0.70272853398E-02  0.89069354425E+00  0.88000000000E+00 0.  1.
        -11    1    4    4    0    0 -0.58242214277E-01 -0.29785111096E-01 -0.19203896277E-01  0.68178875908E-01  0.51100000000E-03 0.  1.
         11    1    4    4    0    0 -0.56043503371E-01 -0.22866302082E-01  0.11041782793E-02  0.60541080034E-01  0.51100000000E-03 0. -1.
</event>
<event>
 8    1  0.1112958E+005  0.1043930E+01  0.7957747E-01            NaN
         13   -1    0    0    0    0  0.00000000000E+00  0.00000000000E+00  0.74505805969E-08  0.10566000000E+00  0.10566000000E+00 0. -1.
     999900   -1    0    0    0    0 -0.00000000000E+00 -0.00000000000E+00 -0.74505805969E-08  0.93827000000E+00  0.93827000000E+00 0. -1.
     999902    2    1    2    0    0 -0.42072671384E-02 -0.98769278031E-03  0.15108524492E-01  0.10282155434E+01  0.10280954525E+01 0.  0.
     999903    2    3    3    0    0 -0.85012236214E-01  0.10603927635E+00 -0.10076647003E-01  0.13769967717E+00  0.19704158037E-01 0.  0.
         14    1    1    2    0    0  0.42072671384E-02  0.98769278031E-03 -0.15108524492E-01  0.15714456596E-01  0.00000000000E+00 0.  1.
     999901    1    3    3    0    0  0.80804969076E-01 -0.10702696913E+00  0.25185171495E-01  0.89051586623E+00  0.88000000000E+00 0. -1.
        -11    1    4    4    0    0 -0.28335161311E-01  0.27096125596E-01 -0.10209584538E-01  0.40516393303E-01  0.51100000000E-03 0. -1.
         11    1    4    4    0    0 -0.56677074903E-01  0.78943150751E-01  0.13293753490E-03  0.97183283869E-01  0.51100000000E-03 0.  1.
</event>
<event>
 8    1  0.1112958E+005  0.1043930E+01  0.7957747E-01            NaN
         13   -1    0    0    0    0  0.00000000000E+00  0.00000000000E+00  0.74505805969E-08  0.10566000000E+00  0.10566000000E+00 0.  1.
     999900   -1    0    0    0    0 -0.00000000000E+00 -0.00000000000E+00 -0.74505805969E-08  0.93827000000E+00  0.93827000000E+00 0.  1.
     999902    2    1    2    0    0 -0.19071940213E-01 -0.11210884547E-01 -0.55604231849E-02  0.10211190127E+01  0.10208641912E+01 0.  0.
     999903    2    3    3    0    0  0.38530598995E-01 -0.10951402082E+00 -0.59763555243E-01  0.13211983460E+00  0.20150442776E-01 0.  0.
         14    1    1    2    0    0  0.19071940213E-01  0.11210884547E-01  0.55604231849E-02  0.22810987305E-01  0.00000000000E+00 0.  1.
     999901    1    3    3    0    0 -0.57602539208E-01  0.98303136276E-01  0.54203132058E-01  0.88899917809E+00  0.88000000000E+00 0. -1.
        -11    1    4    4    0    0  0.17193378953E-01 -0.29800958761E-01 -0.25214378687E-01  0.42658357170E-01  0.51100000000E-03 0.  1.
         11    1    4    4    0    0  0.21337220042E-01 -0.79713062063E-01 -0.34549176556E-01  0.89461477431E-01  0.51100000000E-03 0. -1.
</event>
<event>
 8    1  0.1112958E+005  0.1043930E+01  0.7957747E-01            NaN
         13   -1    0    0    0    0  0.00000000000E+00  0.00000000000E+00  0.74505805969E-08  0.10566000000E+00  0.10566000000E+00 0.  1.
     999900   -1    0    0    0    0 -0.00000000000E+00 -0.00000000000E+00 -0.74505805969E-08  0.93827000000E+00  0.93827000000E+00 0. -1.
     999902    2    1    2    0    0 -0.17261865575E-02  0.65403709189E-02  0.22061665557E-01  0.10208546179E+01  0.10205937868E+01 0.  0.
     999903    2    3    3    0    0  0.14266130373E-01  0.57439002278E-01  0.11834842985E+00  0.13399636212E+00  0.21116646361E-01 0.  0.
         14    1    1    2    0    0  0.17261865575E-02 -0.65403709189E-02 -0.22061665557E-01  0.23075382097E-01  0.00000000000E+00 0. -1.
     999901    1    3    3    0    0 -0.15992316931E-01 -0.50898631359E-01 -0.96286764296E-01  0.88685825578E+00  0.88000000000E+00 0. -1.
        -11    1    4    4    0    0  0.19455056901E-01  0.38882083663E-01  0.78776700246E-01  0.89979693774E-01  0.51100000000E-03 0.  1.
         11    1    4    4    0    0 -0.51889265275E-02  0.18556918615E-01  0.39571729607E-01  0.44016668344E-01  0.51100000000E-03 0. -1.
</event>
<event>
 8    1  0.1112958E+005  0.1043930E+01  0.7957747E-01            NaN
         13   -1    0    0    0    0  0.00000000000E+00  0.00000000000E+00  0.74505805969E-08  0.10566000000E+00  0.10566000000E+00 0. -1.
     999900   -1    0    0    0    0 -0.00000000000E+00 -0.00000000000E+00 -0.74505805969E-08  0.93827000000E+00  0.93827000000E+00 0. -1.
     999902    2    1    2    0    0 -0.15318225080E-01 -0.92091277854E-02 -0.14341879774E-01  0.10210139452E+01  0.10207567441E+01 0.  0.
     999903    2    3    3    0    0 -0.92891305695E-01 -0.82573006151E-01  0.42290322947E-01  0.13275325827E+00  0.19694165319E-01 0.  0.
         14    1    1    2    0    0  0.15318225080E-01  0.92091277854E-02  0.14341879774E-01  0.22916054844E-01  0.00000000000E+00 0. -1.
     999901    1    3    3    0    0  0.77573080615E-01  0.73363878365E-01 -0.56632202720E-01  0.88826068689E+00  0.88000000000E+00 0.  1.
        -11    1    4    4    0    0 -0.77032291917E-01 -0.60496741905E-01  0.38753539961E-01  0.10533720976E+00  0.51100000000E-03 0.  1.
         11    1    4    4    0    0 -0.15859013777E-01 -0.22076264246E-01  0.35367829852E-02  0.27416048510E-01  0.51100000000E-03 0. -1.
</event>
<event>
 8    1  0.1112958E+005  0.1043930E+01  0.7957747E-01            NaN
         13   -1    0    0    0    0  0.00000000000E+00  0.00000000000E+00  0.74505805969E-08  0.10566000000E+00  0.10566000000E+00 0. -1.
     999900   -1    0    0    0    0 -0.00000000000E+00 -0.00000000000E+00 -0.74505805969E-08  0.93827000000E+00  0.93827000000E+00 0. -1.
     999902    2    1    2    0    0  0.21589591944E-01 -0.26048146864E-02 -0.90882126791E-02  0.10203611403E+01  0.10200889007E+01 0.  0.
     999903    2    3    3    0    0  0.10122356948E+00 -0.83267455296E-01 -0.13416308122E-01  0.13308059591E+00  0.18728789464E-01 0.  0.
         14    1    1    2    0    0 -0.21589591944E-01  0.26048146864E-02  0.90882126791E-02  0.23568859743E-01  0.00000000000E+00 0. -1.
     999901    1    3    3    0    0 -0.79633977533E-01  0.80662640610E-01  0.43280954434E-02  0.88728054435E+00  0.88000000000E+00 0. -1.
        -11    1    4    4    0    0  0.24101243328E-01 -0.21453330105E-01 -0.11388734711E-01  0.34221041799E-01  0.51100000000E-03 0. -1.
         11    1    4    4    0    0  0.77122326149E-01 -0.61814125192E-01 -0.20275734113E-02  0.98859554110E-01  0.51100000000E-03 0.  1.
</event>
<event>
 8    1  0.1112958E+005  0.1043930E+01  0.7957747E-01            NaN
         13   -1    0    0    0    0  0.00000000000E+00  0.00000000000E+00  0.74505805969E-08  0.10566000000E+00  0.10566000000E+00 0. -1.
     999900   -1    0    0    0    0 -0.00000000000E+00 -0.00000000000E+00 -0.74505805969E-08  0.93827000000E+00  0.93827000000E+00 0.  1.
     999902    2    1    2    0    0 -0.14641043724E-01 -0.26171041572E-02  0.18547670538E-01  0.10201555289E+01  0.10198784622E+01 0.  0.
     999903    2    3    3    0    0 -0.22376852131E-01  0.81877248837E-01 -0.93858658850E-01  0.12895727858E+00  0.24817825632E-01 0.  0.
         14    1    1    2    0    0  0.14641043724E-01  0.26171041572E-02 -0.18547670538E-01  0.23774471138E-01  0.00000000000E+00 0.  1.
     999901    1    3    3    0    0  0.77358084071E-02 -0.84494352994E-01  0.11240632939E+00  0.89119825028E+00  0.88000000000E+00 0. -1.
        -11    1    4    4    0    0 -0.77256248875E-02  0.35128023217E-01 -0.57975945605E-01  0.68228547433E-01  0.51100000000E-03 0.  1.
         11    1    4    4    0    0 -0.14651227244E-01  0.46749225620E-01 -0.35882713245E-01  0.60728731146E-01  0.51100000000E-03 0. -1.
</event>
<event>
 8    1  0.1112958E+005  0.1043930E+01  0.7957747E-01            NaN
         13   -1    0    0    0    0  0.00000000000E+00  0.00000000000E+00  0.74505805969E-08  0.10566000000E+00  0.10566000000E+00 0.  1.
     999900   -1    0    0    0    0 -0.00000000000E+00 -0.00000000000E+00 -0.74505805969E-08  0.93827000000E+00  0.93827000000E+00 0.  1.
     999902    2    1    2    0    0  0.91072273804E-03 -0.14755809250E-01 -0.18659278128E-01  0.10201238667E+01  0.10198460528E+01 0.  0.
     999903    2    3    3    0    0 -0.12356589065E+00  0.22677818291E-01 -0.29102541613E-01  0.13051453362E+00  0.20106535827E-01 0.  0.
         14    1    1    2    0    0 -0.91072273804E-03  0.14755809250E-01  0.18659278128E-01  0.23806133302E-01  0.00000000000E+00 0.  1.
     999901    1    3    3    0    0  0.12447661339E+00 -0.37433627541E-01  0.10443263484E-01  0.88960933308E+00  0.88000000000E+00 0.  1.
        -11    1    4    4    0    0 -0.63739953023E-01  0.92240543399E-02 -0.24889195503E-01  0.69047794777E-01  0.51100000000E-03 0. -1.
         11    1    4    4    0    0 -0.59825937625E-01  0.13453763951E-01 -0.42133461096E-02  0.61466738840E-01  0.51100000000E-03 0.  1.
</event>
<event>
 8    1  0.1112958E+005  0.1043930E+01  0.7957747E-01            NaN
         13   -1    0    0    0    0  0.00000000000E+00  0.00000000000E+00  0.74505805969E-08  0.10566000000E+00  0.10566000000E+00 0. -1.
     999900   -1    0    0    0    0 -0.00000000000E+00 -0.00000000000E+00 -0.74505805969E-08  0.93827000000E+00  0.93827000000E+00 0. -1.
     999902    2    1    2    0    0 -0.87024154475E-02 -0.18409525362E-01 -0.78969659482E-02  0.10220895621E+01  0.10218561876E+01 0.  0.
     999903    2    3    3    0    0 -0.94722873300E-02 -0.13132705965E+00  0.18714639074E-01  0.13447526531E+00  0.19920804222E-01 0.  0.
         14    1    1    2    0    0  0.87024154475E-02  0.18409525362E-01  0.78969659482E-02  0.21840437950E-01  0.00000000000E+00 0. -1.
     999901    1    3    3    0    0  0.76987188252E-03  0.11291753429E+00 -0.26611605022E-01  0.88761429674E+00  0.88000000000E+00 0.  1.
        -11    1    4    4    0    0  0.19078743255E-02 -0.95692488193E-01  0.11922531219E-01  0.96452579814E-01  0.51100000000E-03 0. -1.
         11    1    4    4    0    0 -0.11380161655E-01 -0.35634571459E-01  0.67921078552E-02  0.38022685498E-01  0.51100000000E-03 0.  1.
</event>
<event>
 8    1  0.1112958E+005  0.1043930E+01  0.7957747E-01            NaN
         13   -1    0    0    0    0  0.00000000000E+00  0.00000000000E+00  0.74505805969E-08  0.10566000000E+00  0.10566000000E+00 0.  1.
     999900   -1    0    0    0    0 -0.00000000000E+00 -0.00000000000E+00 -0.74505805969E-08  0.93827000000E+00  0.93827000000E+00 0. -1.
     999902    2    1    2    0    0 -0.31710572500E-02 -0.15450636065E-01  0.16763179297E-01  0.10209130076E+01  0.10206535098E+01 0.  0.
     999903    2    3    3    0    0 -0.12232573373E+00  0.20118781142E-01  0.40428654204E-01  0.13185559941E+00  0.19572238697E-01 0.  0.
         14    1    1    2    0    0  0.31710572500E-02  0.15450636065E-01 -0.16763179297E-01  0.23016992398E-01  0.00000000000E+00 0. -1.
     999901    1    3    3    0    0  0.11915467648E+00 -0.35569417208E-01 -0.23665474907E-01  0.88905740820E+00  0.88000000000E+00 0. -1.
        -11    1    4    4    0    0 -0.36721930500E-01  0.11146568021E-01  0.47225556756E-02  0.38669235981E-01  0.51100000000E-03 0.  1.
         11    1    4    4    0    0 -0.85603803226E-01  0.89722131207E-02  0.35706098528E-01  0.93186363424E-01  0.51100000000E-03 0. -1.
</event>
<event>
 8    1  0.1112958E+005  0.1043930E+01  0.7957747E-01            NaN
         13   -1    0    0    0    0  0.00000000000E+00  0.00000000000E+00  0.74505805969E-08  0.10566000000E+00  0.10566000000E+00 0. -1.
     999900   -1    0    0    0    0 -0.00000000000E+00 -0.00000000000E+00 -0.74505805969E-08  0.93827000000E+00  0.93827000000E+00 0. -1.
     999902    2    1    2    0    0 -0.13182078335E-01 -0.20012676582E-01 -0.55501919375E-02  0.10193316455E+01  0.10190348004E+01 0.  0.
     999903    2    3    3    0    0 -0.31271829827E-01 -0.12012677172E+00  0.40935967229E-01  0.13225158478E+00  0.20158363999E-01 0.  0.
         14    1    1    2    0    0  0.13182078335E-01  0.20012676582E-01  0.55501919375E-02  0.24598354493E-01  0.00000000000E+00 0. -1.
     999901    1    3    3    0    0  0.18089751492E-01  0.10011409513E+00 -0.46486159167E-01  0.88708006073E+00  0.88000000000E+00 0.  1.
        -11    1    4    4    0    0 -0.15362768345E-01 -0.67707529426E-01  0.12564387577E-01  0.70558126026E-01  0.51100000000E-03 0. -1.
         11    1    4    4    0    0 -0.15909061483E-01 -0.52419242290E-01  0.28371579652E-01  0.61693458749E-01  0.51100000000E-03 0.  1.
</event>
<event>
 8    1  0.1112958E+005  0.1043930E+01  0.7957747E-01            NaN
         13   -1    0    0    0    0  0.00000000000E+00  0.00000000000E+00  0.74505805969E-08  0.10566000000E+00  0.10566000000E+00 0. -1.
     999900   -1    0    0    0    0 -0.00000000000E+00 -0.00000000000E+00 -0.74505805969E-08  0.93827000000E+00  0.93827000000E+00 0. -1.
     999902    2    1    2    0    0  0.18623604133E-01  0.13916329963E-01 -0.17993503715E-02  0.10206117554E+01  0.10203453409E+01 0.  0.
     999903    2    3    3    0    0  0.74742939118E-01 -0.80039748106E-01 -0.69984186086E-01  0.13121516432E+00  0.18076637407E-01 0.  0.
         14    1    1    2    0    0 -0.18623604133E-01 -0.13916329963E-01  0.17993503715E-02  0.23318244623E-01  0.00000000000E+00 0.  1.
     999901    1    3    3    0    0 -0.56119334985E-01  0.93956078069E-01  0.68184835715E-01  0.88939659106E+00  0.88000000000E+00 0.  1.
        -11    1    4    4    0    0  0.17506410702E-01 -0.30746615787E-01 -0.20165119373E-01  0.40727410406E-01  0.51100000000E-03 0. -1.
         11    1    4    4    0    0  0.57236528416E-01 -0.49293132319E-01 -0.49819066713E-01  0.90487753912E-01  0.51100000000E-03 0.  1.
</event>
<event>
 8    1  0.1112958E+005  0.1043930E+01  0.7957747E-01            NaN
         13   -1    0    0    0    0  0.00000000000E+00  0.00000000000E+00  0.74505805969E-08  0.10566000000E+00  0.10566000000E+00 0. -1.
     999900   -1    0    0    0    0 -0.00000000000E+00 -0.00000000000E+00 -0.74505805969E-08  0.93827000000E+00  0.93827000000E+00 0.  1.
     999902    2    1    2    0    0  0.21850598017E-01 -0.47642917611E-02  0.85725237630E-03  0.10215496070E+01  0.10213044196E+01 0.  0.
     999903    2    3    3    0    0 -0.10395412951E-01 -0.43803784080E-01 -0.12211157179E+00  0.13155791102E+00  0.19220090425E-01 0.  0.
         14    1    1    2    0    0 -0.21850598017E-01  0.47642917611E-02 -0.85725237630E-03  0.22380393011E-01  0.00000000000E+00 0. -1.
     999901    1    3    3    0    0  0.32246010968E-01  0.39039492319E-01  0.12296882417E+00  0.88999169597E+00  0.88000000000E+00 0. -1.
        -11    1    4    4    0    0 -0.77952687458E-02 -0.42645862536E-01 -0.96603196824E-01  0.10588613962E+00  0.51100000000E-03 0.  1.
         11    1    4    4    0    0 -0.26001442050E-02 -0.11579215440E-02 -0.25508374966E-01  0.25671771395E-01  0.51100000000E-03 0. -1.
</event>
<event>
 8    1  0.1112958E+005  0.1043930E+01  0.7957747E-01            NaN
         13   -1    0    0    0    0  0.00000000000E+00  0.00000000000E+00  0.74505805969E-08  0.10566000000E+00  0.10566000000E+00 0.  1.
     999900   -1    0    0    0    0 -0.00000000000E+00 -0.00000000000E+00 -0.74505805969E-08  0.93827000000E+00  0.93827000000E+00 0.  1.
     999902    2    1    2    0    0  0.14698253366E-01  0.31845541406E-02 -0.26098316394E-01  0.10138085433E+01  0.10133609723E+01 0.  0.
     999903    2    3    3    0    0  0.59042277918E-01 -0.55489305091E-01  0.90503118349E-01  0.12307575008E+00  0.19793237897E-01 0.  0.
         14    1    1    2    0    0 -0.14698253366E-01 -0.31845541406E-02  0.26098316394E-01  0.30121456732E-01  0.00000000000E+00 0.  1.
     999901    1    3    3    0    0 -0.44344024551E-01  0.58673859232E-01 -0.11660143474E+00  0.89073279318E+00  0.88000000000E+00 0.  1.
        -11    1    4    4    0    0  0.31586392807E-01 -0.41855551220E-01  0.51909661319E-01  0.73786593889E-01  0.51100000000E-03 0.  1.
         11    1    4    4    0    0  0.27455885110E-01 -0.13633753871E-01  0.38593457029E-01  0.49289156194E-01  0.51100000000E-03 0. -1.
</event>
<event>
 8    1  0.1112958E+005  0.1043930E+01  0.7957747E-01            NaN
         13   -1    0    0    0    0  0.00000000000E+00  0.00000000000E+00  0.74505805969E-08  0.10566000000E+00  0.10566000000E+00 0.  1.
     999900   -1    0    0    0    0 -0.00000000000E+00 -0.00000000000E+00 -0.74505805969E-08  0.93827000000E+00  0.93827000000E+00 0.  1.
     999902    2    1    2    0    0 -0.31162826549E-04 -0.24561557382E-01  0.45821389845E-02  0.10189446629E+01  0.10186382866E+01 0.  0.
     999903    2    3    3    0    0  0.52260559963E-01  0.63034525602E-01  0.94076908902E-01  0.12854205067E+00  0.31113927053E-01 0.  0.
         14    1    1    2    0    0  0.31162826549E-04  0.24561557382E-01 -0.45821389845E-02  0.24985337096E-01  0.00000000000E+00 0. -1.
     999901    1    3    3    0    0 -0.52291722790E-01 -0.87596082984E-01 -0.89494769918E-01  0.89040261223E+00  0.88000000000E+00 0. -1.
        -11    1    4    4    0    0  0.17277778679E-01  0.25274238699E-01  0.58304679947E-01  0.65855945841E-01  0.51100000000E-03 0. -1.
         11    1    4    4    0    0  0.34982781285E-01  0.37760286903E-01  0.35772228955E-01  0.62686104831E-01  0.51100000000E-03 0.  1.
</event>
<event>
 8    1  0.1112958E+005  0.1043930E+01  0.7957747E-01            NaN
         13   -1    0    0    0    0  0.00000000000E+00  0.00000000000E+00  0.74505805969E-08  0.10566000000E+00  0.10566000000E+00 0.  1.
     999900   -1    0    0    0    0 -0.00000000000E+00 -0.00000000000E+00 -0.74505805969E-08  0.93827000000E+00  0.93827000000E+00 0.  1.
     999902    2    1    2    0    0  0.26421130918E-01  0.59745191781E-02 -0.22211953177E-01  0.10088994148E+01  0.10082910727E+01 0.  0.
     999903    2    3    3    0    0  0.43595940515E-01 -0.58997812250E-01 -0.96911419901E-01  0.12318140757E+00  0.20012195865E-01 0.  0.
         14    1    1    2    0    0 -0.26421130918E-01 -0.59745191781E-02  0.22211953177E-01  0.35030585241E-01  0.00000000000E+00 0.  1.
     999901    1    3    3    0    0 -0.17174809597E-01  0.64972331428E-01  0.74699466724E-01  0.88571800719E+00  0.88000000000E+00 0. -1.
        -11    1    4    4    0    0  0.63027674484E-02 -0.18145429390E-03 -0.67050325973E-02  0.92182637357E-02  0.51100000000E-03 0. -1.
         11    1    4    4    0    0  0.37293173067E-01 -0.58816357956E-01 -0.90206387304E-01  0.11396314383E+00  0.51100000000E-03 0.  1.
</event>
<event>
 8    1  0.1112958E+005  0.1043930E+01  0.7957747E-01            NaN
         13   -1    0    0    0    0  0.00000000000E+00  0.00000000000E+00  0.74505805969E-08  0.10566000000E+00  0.10566000000E+00 0.  1.
     999900   -1    0    0    0    0 -0.00000000000E+00 -0.00000000000E+00 -0.74505805969E-08  0.93827000000E+00  0.93827000000E+00 0. -1.
     999902    2    1    2    0    0 -0.16732132661E-01 -0.15891854838E-01  0.45097325275E-02  0.10204171737E+01  0.10201462421E+01 0.  0.
     999903    2    3    3    0    0 -0.69619311840E-01  0.69893523892E-01  0.81531937432E-01  0.13132291267E+00  0.29432928985E-01 0.  0.
         14    1    1    2    0    0  0.16732132661E-01  0.15891854838E-01 -0.45097325275E-02  0.23512826309E-01  0.00000000000E+00 0.  1.
     999901    1    3    3    0    0  0.52887179179E-01 -0.85785378730E-01 -0.77022204905E-01  0.88909426102E+00  0.88000000000E+00 0.  1.
        -11    1    4    4    0    0 -0.27872032643E-01  0.48728009727E-01  0.44640018131E-01  0.71723507133E-01  0.51100000000E-03 0.  1.
         11    1    4    4    0    0 -0.41747279196E-01  0.21165514165E-01  0.36891919301E-01  0.59599405541E-01  0.51100000000E-03 0. -1.
</event>
<event>
 8    1  0.1112958E+005  0.1043930E+01  0.7957747E-01            NaN
         13   -1    0    0    0    0  0.00000000000E+00  0.00000000000E+00  0.74505805969E-08  0.10566000000E+00  0.10566000000E+00 0. -1.
     999900   -1    0    0    0    0 -0.00000000000E+00 -0.00000000000E+00 -0.74505805969E-08  0.93827000000E+00  0.93827000000E+00 0.  1.
     999902    2    1    2    0    0 -0.50040229357E-02  0.10213716959E-02  0.25352262444E-01  0.10180684328E+01  0.10177399045E+01 0.  0.
     999903    2    3    3    0    0 -0.17013604317E-01  0.48996705722E-01  0.11932682721E+00  0.13168415863E+00  0.20290047738E-01 0.  0.
         14    1    1    2    0    0  0.50040229357E-02 -0.10213716959E-02 -0.25352262444E-01  0.25861567174E-01  0.00000000000E+00 0.  1.
     999901    1    3    3    0    0  0.12009581381E-01 -0.47975334027E-01 -0.93974564771E-01  0.88638427420E+00  0.88000000000E+00 0.  1.
        -11    1    4    4    0    0 -0.20744496076E-01  0.38315490078E-01  0.10275311945E+00  0.11161037396E+00  0.51100000000E-03 0.  1.
         11    1    4    4    0    0  0.37308917588E-02  0.10681215644E-01  0.16573707768E-01  0.20073784673E-01  0.51100000000E-03 0. -1.
</event>
<event>
 8    1  0.1112958E+005  0.1043930E+01  0.7957747E-01            NaN
         13   -1    0    0    0    0  0.00000000000E+00  0.00000000000E+00  0.74505805969E-08  0.10566000000E+00  0.10566000000E+00 0. -1.
     999900   -1    0    0    0    0 -0.00000000000E+00 -0.00000000000E+00 -0.74505805969E-08  0.93827000000E+00  0.93827000000E+00 0. -1.
     999902    2    1    2    0    0 -0.17957377575E-01  0.46688394781E-02  0.15737335515E-01  0.10196004048E+01  0.10193100884E+01 0.  0.
     999903    2    3    3    0    0  0.12045068371E+00 -0.23364508415E-01 -0.30277447305E-01  0.12715431669E+00  0.14043823478E-01 0.  0.
         14    1    1    2    0    0  0.17957377575E-01 -0.46688394781E-02 -0.15737335515E-01  0.24329595158E-01  0.00000000000E+00 0.  1.
     999901    1    3    3    0    0 -0.13840806128E+00  0.28033347893E-01  0.46014782820E-01  0.89244608815E+00  0.88000000000E+00 0.  1.
        -11    1    4    4    0    0  0.10333765540E+00 -0.16766778112E-01 -0.21769311781E-01  0.10692969619E+00  0.51100000000E-03 0. -1.
         11    1    4    4    0    0  0.17113028309E-01 -0.65977303032E-02 -0.85081355234E-02  0.20224620495E-01  0.51100000000E-03 0.  1.
</event>
<event>
 8    1  0.1112958E+005  0.1043930E+01  0.7957747E-01            NaN
         13   -1    0    0    0    0  0.00000000000E+00  0.00000000000E+00  0.74505805969E-08  0.10566000000E+00  0.10566000000E+00 0.  1.
     999900   -1    0    0    0    0 -0.00000000000E+00 -0.00000000000E+00 -0.74505805969E-08  0.93827000000E+00  0.93827000000E+00 0. -1.
     999902    2    1    2    0    0 -0.36705792013E-02  0.35863580826E-02  0.23824203548E-01  0.10195593662E+01  0.10192680577E+01 0.  0.
     999903    2    3    3    0    0  0.97680453675E-01  0.82867149057E-01  0.14596706824E-01  0.13015359697E+00  0.17845434479E-01 0.  0.
         14    1    1    2    0    0  0.36705792013E-02 -0.35863580826E-02 -0.23824203548E-01  0.24370633776E-01  0.00000000000E+00 0. -1.
     999901    1    3    3    0    0 -0.10135103288E+00 -0.79280790974E-01  0.92274967242E-02  0.88940576925E+00  0.88000000000E+00 0. -1.
        -11    1    4    4    0    0  0.22225873181E-01  0.18307401602E-01 -0.41407330800E-02  0.29095655750E-01  0.51100000000E-03 0.  1.
         11    1    4    4    0    0  0.75454580494E-01  0.64559747455E-01  0.18737439904E-01  0.10105794122E+00  0.51100000000E-03 0. -1.
</event>
<event>
 8    1  0.1112958E+005  0.1043930E+01  0.7957747E-01            NaN
         13   -1    0    0    0    0  0.00000000000E+00  0.00000000000E+00  0.74505805969E-08  0.10566000000E+00  0.10566000000E+00 0.  1.
     999900   -1    0    0    0    0 -0.00000000000E+00 -0.00000000000E+00 -0.74505805969E-08  0.93827000000E+00  0.93827000000E+00 0.  1.
     999902    2    1    2    0    0  0.16955936724E-01  0.17158476706E-01  0.65014702801E-02  0.10189462807E+01  0.10186399446E+01 0.  0.
     999903    2    3    3    0    0  0.12577635409E+00 -0.26507062594E-01 -0.10096675350E-01  0.13101381651E+00  0.23245680217E-01 0.  0.
         14    1    1    2    0    0 -0.16955936724E-01 -0.17158476706E-01 -0.65014702801E-02  0.24983719276E-01  0.00000000000E+00 0. -1.
     999901    1    3    3    0    0 -0.10882041737E+00  0.43665539300E-01  0.16598145630E-01  0.88793246421E+00  0.88000000000E+00 0. -1.
        -11    1    4    4    0    0  0.88976775902E-01 -0.27066449949E-01 -0.13793834888E-01  0.94021222948E-01  0.51100000000E-03 0. -1.
         11    1    4    4    0    0  0.36799578189E-01  0.55938735453E-03  0.36971595387E-02  0.36992593567E-01  0.51100000000E-03 0.  1.
</event>
<event>
 8    1  0.1112958E+005  0.1043930E+01  0.7957747E-01            NaN
         13   -1    0    0    0    0  0.00000000000E+00  0.00000000000E+00  0.74505805969E-08  0.10566000000E+00  0.10566000000E+00 0.  1.
     999900   -1    0    0    0    0 -0.00000000000E+00 -0.00000000000E+00 -0.74505805969E-08  0.93827000000E+00  0.93827000000E+00 0. -1.
     999902    2    1    2    0    0 -0.23693366627E-02  0.21051452557E-01  0.89132992314E-02  0.10209468689E+01  0.10206881428E+01 0.  0.
     999903    2    3    3    0    0 -0.31502626008E-01 -0.11183870681E+00 -0.51078315967E-01  0.12847415959E+00  0.19907373900E-01 0.  0.
         14    1    1    2    0    0  0.23693366627E-02 -0.21051452557E-01 -0.89132992314E-02  0.22983131078E-01  0.00000000000E+00 0. -1.
     999901    1    3    3    0    0  0.29133289345E-01  0.13289015936E+00  0.59991615199E-01  0.89247270933E+00  0.88000000000E+00 0.  1.
        -11    1    4    4    0    0 -0.28670725792E-01 -0.71489963406E-01 -0.38500562849E-01  0.86112599810E-01  0.51100000000E-03 0. -1.
         11    1    4    4    0    0 -0.28319002163E-02 -0.40348743400E-01 -0.12577753118E-01  0.42361559783E-01  0.51100000000E-03 0.  1.
</event>
<event>
 8    1  0.1112958E+005  0.1043930E+01  0.7957747E-01            NaN
         13   -1    0    0    0    0  0.00000000000E+00  0.00000000000E+00  0.74505805969E-08  0.10566000000E+00  0.10566000000E+00 0.  1.
     999900   -1    0    0    0    0 -0.00000000000E+00 -0.00000000000E+00 -0.74505805969E-08  0.93827000000E+00  0.93827000000E+00 0. -1.
     999902    2    1    2    0    0  0.18698115169E-01 -0.42298264254E-03  0.13880252315E-01  0.10206392330E+01  0.10203734532E+01 0.  0.
     999903    2    3    3    0    0 -0.42195144956E-01 -0.39900100088E-01 -0.11304191098E+00  0.12857664128E+00  0.19520010237E-01 0.  0.
         14    1    1    2    0    0 -0.18698115169E-01  0.42298264254E-03 -0.13880252315E-01  0.23290767045E-01  0.00000000000E+00 0. -1.
     999901    1    3    3    0    0  0.60893260124E-01  0.39477117446E-01  0.12692216330E+00  0.89206259168E+00  0.88000000000E+00 0.  1.
        -11    1    4    4    0    0 -0.38048828518E-01 -0.37040304070E-01 -0.86069245246E-01  0.10113295000E+00  0.51100000000E-03 0.  1.
         11    1    4    4    0    0 -0.41463164372E-02 -0.28597960177E-02 -0.26972665736E-01  0.27443691282E-01  0.51100000000E-03 0. -1.
</event>
<event>
 8    1  0.1112958E+005  0.1043930E+01  0.7957747E-01            NaN
         13   -1    0    0    0    0  0.00000000000E+00  0.00000000000E+00  0.74505805969E-08  0.10566000000E+00  0.10566000000E+00 0. -1.
     999900   -1    0    0    0    0 -0.00000000000E+00 -0.00000000000E+00 -0.74505805969E-08  0.93827000000E+00  0.93827000000E+00 0. -1.
     999902    2    1    2    0    0  0.24385459822E-02  0.20918835821E-01  0.10429733200E-01  0.10204284355E+01  0.10201577665E+01 0.  0.
     999903    2    3    3    0    0  0.10082145286E+00 -0.72663496241E-01 -0.28531967670E-01  0.12916255859E+00  0.20589908191E-01 0.  0.
         14    1    1    2    0    0 -0.24385459822E-02 -0.20918835821E-01 -0.10429733200E-01  0.23501564485E-01  0.00000000000E+00 0.  1.
     999901    1    3    3    0    0 -0.98382906877E-01  0.93582332063E-01  0.38961700870E-01  0.89126587693E+00  0.88000000000E+00 0.  1.
        -11    1    4    4    0    0  0.11946271913E-01 -0.15472088915E-01 -0.96339081743E-02  0.21798446177E-01  0.51100000000E-03 0.  1.
         11    1    4    4    0    0  0.88875180946E-01 -0.57191407326E-01 -0.18898059495E-01  0.10736411241E+00  0.51100000000E-03 0. -1.
</event>
<event>
 8    1  0.1112958E+005  0.1043930E+01  0.7957747E-01            NaN
         13   -1    0    0    0    0  0.00000000000E+00  0.00000000000E+00  0.74505805969E-08  0.10566000000E+00  0.10566000000E+00 0. -1.
     999900   -1    0    0    0    0 -0.00000000000E+00 -0.00000000000E+00 -0.74505805969E-08  0.93827000000E+00  0.93827000000E+00 0. -1.
     999902    2    1    2    0    0  0.16460859844E-01 -0.61960368819E-02 -0.15693717344E-01  0.10203579075E+01  0.10200855924E+01 0.  0.
     999903    2    3    3    0    0  0.94329504810E-01 -0.73451770465E-01 -0.56247328093E-01  0.13343544478E+00  0.18655775072E-01 0.  0.
         14    1    1    2    0    0 -0.16460859844E-01  0.61960368819E-02  0.15693717344E-01  0.23572092481E-01  0.00000000000E+00 0. -1.
     999901    1    3    3    0    0 -0.77868644966E-01  0.67255733583E-01  0.40553610749E-01  0.88692246274E+00  0.88000000000E+00 0.  1.
        -11    1    4    4    0    0  0.20664078446E-01 -0.23757886281E-01 -0.20933993907E-01  0.37814475012E-01  0.51100000000E-03 0. -1.
         11    1    4    4    0    0  0.73665426364E-01 -0.49693884184E-01 -0.35313334186E-01  0.95620969767E-01  0.51100000000E-03 0.  1.
</event>
<event>
 8    1  0.1112958E+005  0.1043930E+01  0.7957747E-01            NaN
         13   -1    0    0    0    0  0.00000000000E+00  0.00000000000E+00  0.74505805969E-08  0.10566000000E+00  0.10566000000E+00 0. -1.
     999900   -1    0    0    0    0 -0.00000000000E+00 -0.00000000000E+00 -0.74505805969E-08  0.93827000000E+00  0.93827000000E+00 0.  1.
     999902    2    1    2    0    0 -0.11940044284E-01 -0.20793495911E-01 -0.45139716496E-03  0.10199479674E+01  0.10196659837E+01 0.  0.
     999903    2    3    3    0    0 -0.44551925934E-01 -0.78765368825E-01  0.94518888238E-01  0.13234240859E+00  0.19794833815E-01 0.  0.
         14    1    1    2    0    0  0.11940044284E-01  0.20793495911E-01  0.45139716496E-03  0.23982032631E-01  0.00000000000E+00 0. -1.
     999901    1    3    3    0    0  0.32611881649E-01  0.57971872914E-01 -0.94970285403E-01  0.88760555878E+00  0.88000000000E+00 0.  1.
        -11    1    4    4    0    0 -0.22523050220E-01 -0.49563298821E-01  0.68252030726E-01  0.87306409847E-01  0.51100000000E-03 0. -1.
         11    1    4    4    0    0 -0.22028875714E-01 -0.29202070004E-01  0.26266857513E-01  0.45035998738E-01  0.51100000000E-03 0.  1.
</event>
<event>
 8    1  0.1112958E+005  0.1043930E+01  0.7957747E-01            NaN
         13   -1    0    0    0    0  0.00000000000E+00  0.00000000000E+00  0.74505805969E-08  0.10566000000E+00  0.10566000000E+00 0. -1.
     999900   -1    0    0    0    0 -0.00000000000E+00 -0.00000000000E+00 -0.74505805969E-08  0.93827000000E+00  0.93827000000E+00 0. -1.
     999902    2    1    2    0    0  0.69955007311E-02  0.22482106932E-01  0.11291357245E-01  0.10178172271E+01  0.10174822017E+01 0.  0.
     999903    2    3    3    0    0  0.24081973509E-02  0.11265895714E+00  0.64712849330E-01  0.13158544953E+00  0.20715637119E-01 0.  0.
         14    1    1    2    0    0 -0.69955007311E-02 -0.22482106932E-01 -0.11291357245E-01  0.26112772948E-01  0.00000000000E+00 0.  1.
     999901    1    3    3    0    0  0.45873033802E-02 -0.90176850213E-01 -0.53421492085E-01  0.88623177752E+00  0.88000000000E+00 0. -1.
        -11    1    4    4    0    0  0.10113624468E-01  0.77706635846E-01  0.39146086151E-01  0.87597282129E-01  0.51100000000E-03 0.  1.
         11    1    4    4    0    0 -0.77054271174E-02  0.34952321299E-01  0.25566763179E-01  0.43988167405E-01  0.51100000000E-03 0. -1.
</event>
<event>
 8    1  0.1112958E+005  0.1043930E+01  0.7957747E-01            NaN
         13   -1    0    0    0    0  0.00000000000E+00  0.00000000000E+00  0.74505805969E-08  0.10566000000E+00  0.10566000000E+00 0. -1.
     999900   -1    0    0    0    0 -0.00000000000E+00 -0.00000000000E+00 -0.74505805969E-08  0.93827000000E+00  0.93827000000E+00 0.  1.
     999902    2    1    2    0    0 -0.23959336552E-01 -0.43275966208E-03 -0.15849149115E-02  0.10199144000E+01  0.10196316169E+01 0.  0.
     999903    2    3    3    0    0  0.11402723393E+00 -0.34210643975E-01  0.40751383571E-01  0.12751673007E+00  0.20670339709E-01 0.  0.
         14    1    1    2    0    0  0.23959336552E-01  0.43275966208E-03  0.15849149115E-02  0.24015600018E-01  0.00000000000E+00 0. -1.
     999901    1    3    3    0    0 -0.13798657049E+00  0.33777884313E-01 -0.42336298483E-01  0.89239766992E+00  0.88000000000E+00 0. -1.
        -11    1    4    4    0    0  0.34369779305E-01 -0.20276469199E-01  0.15244936619E-01  0.42721026979E-01  0.51100000000E-03 0.  1.
         11    1    4    4    0    0  0.79657454630E-01 -0.13934174776E-01  0.25506446953E-01  0.84795703087E-01  0.51100000000E-03 0. -1.
</event>
<event>
 8    1  0.1112958E+005  0.1043930E+01  0.7957747E-01            NaN
         13   -1    0    0    0    0  0.00000000000E+00  0.00000000000E+00  0.74505805969E-08  0.10566000000E+00  0.10566000000E+00 0. -1.
     999900   -1    0    0    0    0 -0.00000000000E+00 -0.00000000000E+00 -0.74505805969E-08  0.93827000000E+00  0.93827000000E+00 0. -1.
     999902    2    1    2    0    0 -0.23089509660E-01 -0.51812084678E-02  0.23128445555E-02  0.10201535489E+01  0.10198764355E+01 0.  0.
     999903    2    3    3    0    0 -0.62941867649E-01  0.10383263526E+00  0.46159083264E-01  0.13144959300E+00  0.20135532861E-01 0.  0.
         14    1    1    2    0    0  0.23089509660E-01  0.51812084678E-02 -0.23128445555E-02  0.23776451112E-01  0.00000000000E+00 0.  1.
     999901    1    3    3    0    0  0.39852357989E-01 -0.10901384373E+00 -0.43846238708E-01  0.88870395589E+00  0.88000000000E+00 0. -1.
        -11    1    4    4    0    0 -0.28014372637E-01  0.62682713630E-01  0.20299460699E-01  0.71597883265E-01  0.51100000000E-03 0. -1.
         11    1    4    4    0    0 -0.34927495012E-01  0.41149921632E-01  0.25859622564E-01  0.59851709736E-01  0.51100000000E-03 0.  1.
</event>
<event>
 8    1  0.1112958E+005  0.1043930E+01  0.7957747E-01            NaN
         13   -1    0    0    0    0  0.00000000000E+00  0.00000000000E+00  0.74505805969E-08  0.10566000000E+00  0.10566000000E+00 0. -1.
     999900   -1    0    0    0    0 -0.00000000000E+00 -0.00000000000E+00 -0.74505805969E-08  0.93827000000E+00  0.93827000000E+00 0.  1.
     999902    2    1    2    0    0  0.18624140198E-01  0.55015364259E-02  0.12878294308E-01  0.10206281553E+01  0.10203621198E+01 0.  0.
     999903    2    3    3    0    0  0.41460859881E-01  0.11083466906E+00  0.57333960954E-01  0.13293851874E+00  0.19548399361E-01 0.  0.
         14    1    1    2    0    0 -0.18624140198E-01 -0.55015364259E-02 -0.12878294308E-01  0.23301844679E-01  0.00000000000E+00 0.  1.
     999901    1    3    3    0    0 -0.22836719684E-01 -0.10533313264E+00 -0.44455666646E-01  0.88768963658E+00  0.88000000000E+00 0.  1.
        -11    1    4    4    0    0  0.16494499660E-01  0.70417111988E-01  0.31873687034E-01  0.79036897876E-01  0.51100000000E-03 0. -1.
         11    1    4    4    0    0  0.24966360222E-01  0.40417557075E-01  0.25460273920E-01  0.53901620864E-01  0.51100000000E-03 0.  1.
</event>
<event>
 8    1  0.1112958E+005  0.1043930E+01  0.7957747E-01            NaN
         13   -1    0    0    0    0  0.00000000000E+00  0.00000000000E+00  0.74505805969E-08  0.10566000000E+00  0.10566000000E+00 0. -1.
     999900   -1    0    0    0    0 -0.00000000000E+00 -0.00000000000E+00 -0.74505805969E-08  0.93827000000E+00  0.93827000000E+00 0.  1.
     999902    2    1    2    0    0 -0.68608998152E-02  0.16530611516E-01 -0.15488248533E-01  0.10202610561E+01  0.10199864723E+01 0.  0.
     999903    2    3    3    0    0 -0.61024062331E-01  0.27284130271E-01 -0.11349933201E+00  0.13309959456E+00  0.19106118269E-01 0.  0.
         14    1    1    2    0    0  0.68608998152E-02 -0.16530611516E-01  0.15488248533E-01  0.23668943913E-01  0.00000000000E+00 0. -1.
     999901    1    3    3    0    0  0.54163162516E-01 -0.10753518755E-01  0.98011083482E-01  0.88716146153E+00  0.88000000000E+00 0. -1.
        -11    1    4    4    0    0 -0.24619017124E-01  0.49772962996E-02 -0.28595228681E-01  0.38063338095E-01  0.51100000000E-03 0.  1.
         11    1    4    4    0    0 -0.36405045207E-01  0.22306833971E-01 -0.84904103334E-01  0.95036256461E-01  0.51100000000E-03 0. -1.
</event>
<event>
 8    1  0.1112958E+005  0.1043930E+01  0.7957747E-01            NaN
         13   -1    0    0    0    0  0.00000000000E+00  0.00000000000E+00  0.74505805969E-08  0.10566000000E+00  0.10566000000E+00 0. -1.
     999900   -1    0    0    0    0 -0.00000000000E+00 -0.00000000000E+00 -0.74505805969E-08  0.93827000000E+00  0.93827000000E+00 0.  1.
     999902    2    1    2    0    0  0.12322520758E-01  0.51459522967E-02  0.12420727522E-01  0.10256926807E+01  0.10255305336E+01 0.  0.
     999903    2    3    3    0    0 -0.85821959634E-01  0.34008692749E-01 -0.95313256113E-01  0.13323987632E+00  0.12093300384E-01 0.  0.
         14    1    1    2    0    0 -0.12322520758E-01 -0.51459522967E-02 -0.12420727522E-01  0.18237319294E-01  0.00000000000E+00 0.  1.
     999901    1    3    3    0    0  0.98144480392E-01 -0.28862740452E-01  0.10773398364E+00  0.89245280438E+00  0.88000000000E+00 0.  1.
        -11    1    4    4    0    0 -0.27314353105E-01  0.16077254506E-01 -0.36820783016E-01  0.48585833130E-01  0.51100000000E-03 0.  1.
         11    1    4    4    0    0 -0.58507606529E-01  0.17931438243E-01 -0.58492473097E-01  0.84654043195E-01  0.51100000000E-03 0. -1.
</event>
<event>
 8    1  0.1112958E+005  0.1043930E+01  0.7957747E-01            NaN
         13   -1    0    0    0    0  0.00000000000E+00  0.00000000000E+00  0.74505805969E-08  0.10566000000E+00  0.10566000000E+00 0.  1.
     999900   -1    0    0    0    0 -0.00000000000E+00 -0.00000000000E+00 -0.74505805969E-08  0.93827000000E+00  0.93827000000E+00 0. -1.
     999902    2    1    2    0    0 -0.11097017626E-01  0.21168682496E-01 -0.52468023874E-03  0.10200232602E+01  0.10197430653E+01 0.  0.
     999903    2    3    3    0    0 -0.40839367951E-01  0.90559854686E-01 -0.85794086788E-01  0.13268419655E+00  0.19378581731E-01 0.  0.
         14    1    1    2    0    0  0.11097017626E-01 -0.21168682496E-01  0.52468023874E-03  0.23906739806E-01  0.00000000000E+00 0. -1.
     999901    1    3    3    0    0  0.29742350325E-01 -0.69391172190E-01  0.85269406550E-01  0.88733906365E+00  0.88000000000E+00 0.  1.
        -11    1    4    4    0    0 -0.29878387105E-01  0.78421152854E-01 -0.64584946198E-01  0.10589651376E+00  0.51100000000E-03 0. -1.
         11    1    4    4    0    0 -0.10960980846E-01  0.12138701832E-01 -0.21209140590E-01  0.26787682782E-01  0.51100000000E-03 0.  1.
</event>
<event>
 8    1  0.1112958E+005  0.1043930E+01  0.7957747E-01            NaN
         13   -1    0    0    0    0  0.00000000000E+00  0.00000000000E+00  0.74505805969E-08  0.10566000000E+00  0.10566000000E+00 0.  1.
     999900   -1    0    0    0    0 -0.00000000000E+00 -0.00000000000E+00 -0.74505805969E-08  0.93827000000E+00  0.93827000000E+00 0. -1.
     999902    2    1    2    0    0 -0.11883944899E-01 -0.13622313278E-01 -0.96515278826E-02  0.10234373780E+01  0.10232321922E+01 0.  0.
     999903    2    3    3    0    0 -0.11081688454E+00 -0.53000466633E-01 -0.54670054619E-01  0.13587609379E+00  0.19597617939E-01 0.  0.
         14    1    1    2    0    0  0.11883944899E-01  0.13622313278E-01  0.96515278826E-02  0.20492621986E-01  0.00000000000E+00 0. -1.
     999901    1    3    3    0    0  0.98932939640E-01  0.39378153355E-01  0.45018526736E-01  0.88756128423E+00  0.88000000000E+00 0.  1.
        -11    1    4    4    0    0 -0.44117186301E-01 -0.23885209850E-01 -0.12279155870E-01  0.51651410113E-01  0.51100000000E-03 0. -1.
         11    1    4    4    0    0 -0.66699698237E-01 -0.29115256783E-01 -0.42390898749E-01  0.84224683675E-01  0.51100000000E-03 0.  1.
</event>
<event>
 8    1  0.1112958E+005  0.1043930E+01  0.7957747E-01            NaN
         13   -1    0    0    0    0  0.00000000000E+00  0.00000000000E+00  0.74505805969E-08  0.10566000000E+00  0.10566000000E+00 0. -1.
     999900   -1    0    0    0    0 -0.00000000000E+00 -0.00000000000E+00 -0.74505805969E-08  0.93827000000E+00  0.93827000000E+00 0.  1.
     999902    2    1    2    0    0 -0.21980428901E-01  0.48462725210E-02  0.67431662884E-02  0.10204332789E+01  0.10201627227E+01 0.  0.
     999903    2    3    3    0    0  0.62131651649E-01  0.57335221325E-02 -0.11082595497E+00  0.12863838789E+00  0.19293188777E-01 0.  0.
         14    1    1    2    0    0  0.21980428901E-01 -0.48462725210E-02 -0.67431662884E-02  0.23496721125E-01  0.00000000000E+00 0.  1.
     999901    1    3    3    0    0 -0.84112080551E-01 -0.88724961155E-03  0.11756912125E+00  0.89179489098E+00  0.88000000000E+00 0. -1.
        -11    1    4    4    0    0  0.13662974113E-01  0.69131111828E-02 -0.39743685655E-01  0.42594478964E-01  0.51100000000E-03 0. -1.
         11    1    4    4    0    0  0.48468677537E-01 -0.11795890502E-02 -0.71082269311E-01  0.86043908930E-01  0.51100000000E-03 0.  1.
</event>
<event>
 8    1  0.1112958E+005  0.1043930E+01  0.7957747E-01            NaN
         13   -1    0    0    0    0  0.00000000000E+00  0.00000000000E+00  0.74505805969E-08  0.10566000000E+00  0.10566000000E+00 0. -1.
     999900   -1    0    0    0    0 -0.00000000000E+00 -0.00000000000E+00 -0.74505805969E-08  0.93827000000E+00  0.93827000000E+00 0.  1.
     999902    2    1    2    0    0  0.13887568317E-01  0.18284801926E-01 -0.57567323697E-02  0.10202585298E+01  0.10199838867E+01 0.  0.
     999903    2    3    3    0    0  0.10121210025E+00 -0.63434897401E-01 -0.49888754025E-01  0.13107276826E+00  0.20574434550E-01 0.  0.
         14    1    1    2    0    0 -0.13887568317E-01 -0.18284801926E-01  0.57567323697E-02  0.23671470229E-01  0.00000000000E+00 0.  1.
     999901    1    3    3    0    0 -0.87324531929E-01  0.81719699327E-01  0.44132021656E-01  0.88918576151E+00  0.88000000000E+00 0. -1.
        -11    1    4    4    0    0  0.22094394830E-01 -0.47079352380E-02 -0.74931486136E-02  0.23806203693E-01  0.51100000000E-03 0.  1.
         11    1    4    4    0    0  0.79117705416E-01 -0.58726962163E-01 -0.42395605412E-01  0.10726656457E+00  0.51100000000E-03 0. -1.
</event>
<event>
 8    1  0.1112958E+005  0.1043930E+01  0.7957747E-01            NaN
         13   -1    0    0    0    0  0.00000000000E+00  0.00000000000E+00  0.74505805969E-08  0.10566000000E+00  0.10566000000E+00 0.  1.
     999900   -1    0    0    0    0 -0.00000000000E+00 -0.00000000000E+00 -0.74505805969E-08  0.93827000000E+00  0.93827000000E+00 0.  1.
     999902    2    1    2    0    0  0.59996132893E-02 -0.15024851531E-01  0.16920239062E-01  0.10205198310E+01  0.10202512874E+01 0.  0.
     999903    2    3    3    0    0 -0.12302923442E+00  0.51361785846E-02 -0.34401218550E-01  0.12940322656E+00  0.19979448279E-01 0.  0.
         14    1    1    2    0    0 -0.59996132893E-02  0.15024851531E-01 -0.16920239062E-01  0.23410169010E-01  0.00000000000E+00 0. -1.
     999901    1    3    3    0    0  0.12902884771E+00 -0.20161030116E-01  0.51321457612E-01  0.89111660443E+00  0.88000000000E+00 0. -1.
        -11    1    4    4    0    0 -0.20128466034E-01  0.44851467819E-02  0.80254460286E-03  0.20644052058E-01  0.51100000000E-03 0.  1.
         11    1    4    4    0    0 -0.10290076839E+00  0.65103180273E-03 -0.35203763153E-01  0.10875917450E+00  0.51100000000E-03 0. -1.
</event>
<event>
 8    1  0.1112958E+005  0.1043930E+01  0.7957747E-01            NaN
         13   -1    0    0    0    0  0.00000000000E+00  0.00000000000E+00  0.74505805969E-08  0.10566000000E+00  0.10566000000E+00 0. -1.
     999900   -1    0    0    0    0 -0.00000000000E+00 -0.00000000000E+00 -0.74505805969E-08  0.93827000000E+00  0.93827000000E+00 0.  1.
     999902    2    1    2    0    0  0.16721534360E-01 -0.98485379705E-02  0.11530245498E-01  0.10213567864E+01  0.10211073083E+01 0.  0.
     999903    2    3    3    0    0  0.55024625018E-01  0.11750367178E+00  0.27280065054E-02  0.13132128626E+00  0.20075257550E-01 0.  0.
         14    1    1    2    0    0 -0.16721534360E-01  0.98485379705E-02 -0.11530245498E-01  0.22573213612E-01  0.00000000000E+00 0. -1.
     999901    1    3    3    0    0 -0.38303090658E-01 -0.12735220975E+00  0.88022389922E-02  0.89003550013E+00  0.88000000000E+00 0.  1.
        -11    1    4    4    0    0  0.14748349552E-01  0.52302176976E-01  0.55685739854E-02  0.54628762279E-01  0.51100000000E-03 0.  1.
         11    1    4    4    0    0  0.40276275466E-01  0.65201494800E-01 -0.28405674800E-02  0.76692523979E-01  0.51100000000E-03 0. -1.
</event>
<event>
 8    1  0.1112958E+005  0.1043930E+01  0.7957747E-01            NaN
         13   -1    0    0    0    0  0.00000000000E+00  0.00000000000E+00  0.74505805969E-08  0.10566000000E+00  0.10566000000E+00 0. -1.
     999900   -1    0    0    0    0 -0.00000000000E+00 -0.00000000000E+00 -0.74505805969E-08  0.93827000000E+00  0.93827000000E+00 0. -1.
     999902    2    1    2    0    0  0.26395397951E-01  0.28499947036E-02  0.15874112115E-01  0.10129973807E+01  0.10125249954E+01 0.  0.
     999903    2    3    3    0    0 -0.11650251561E-01  0.77455700978E-01  0.95553262530E-01  0.12543766445E+00  0.21657970984E-01 0.  0.
         14    1    1    2    0    0 -0.26395397951E-01 -0.28499947036E-02 -0.15874112115E-01  0.30932619324E-01  0.00000000000E+00 0.  1.
     999901    1    3    3    0    0  0.38045649512E-01 -0.74605706275E-01 -0.79679150415E-01  0.88755971623E+00  0.88000000000E+00 0. -1.
        -11    1    4    4    0    0  0.14992337948E-02  0.49858170535E-01  0.67587230983E-01  0.84002260589E-01  0.51100000000E-03 0. -1.
         11    1    4    4    0    0 -0.13149485356E-01  0.27597530443E-01  0.27966031548E-01  0.41435403862E-01  0.51100000000E-03 0.  1.
</event>
<event>
 8    1  0.1112958E+005  0.1043930E+01  0.7957747E-01            NaN
         13   -1    0    0    0    0  0.00000000000E+00  0.00000000000E+00  0.74505805969E-08  0.10566000000E+00  0.10566000000E+00 0.  1.
     999900   -1    0    0    0    0 -0.00000000000E+00 -0.00000000000E+00 -0.74505805969E-08  0.93827000000E+00  0.93827000000E+00 0.  1.
     999902    2    1    2    0    0  0.10094771345E-01  0.65089712355E-02 -0.19999753053E-01  0.10206005929E+01  0.10203339203E+01 0.  0.
     999903    2    3    3    0    0 -0.66334597943E-01  0.41790215536E-02  0.10768668813E+00  0.12810369964E+00  0.19909594577E-01 0.  0.
         14    1    1    2    0    0 -0.10094771345E-01 -0.65089712355E-02  0.19999753053E-01  0.23329407134E-01  0.00000000000E+00 0.  1.
     999901    1    3    3    0    0  0.76429369289E-01  0.23299496819E-02 -0.12768644118E+00  0.89249689323E+00  0.88000000000E+00 0.  1.
        -11    1    4    4    0    0 -0.47406904292E-01  0.10615790780E-01  0.84615290935E-01  0.97571092899E-01  0.51100000000E-03 0. -1.
         11    1    4    4    0    0 -0.18927693651E-01 -0.64367692260E-02  0.23071397193E-01  0.30532606742E-01  0.51100000000E-03 0.  1.
</event>
<event>
 8    1  0.1112958E+005  0.1043930E+01  0.7957747E-01            NaN
         13   -1    0    0    0    0  0.00000000000E+00  0.00000000000E+00  0.74505805969E-08  0.10566000000E+00  0.10566000000E+00 0.  1.
     999900   -1    0    0    0    0 -0.00000000000E+00 -0.00000000000E+00 -0.74505805969E-08  0.93827000000E+00  0.93827000000E+00 0. -1.
     999902    2    1    2    0    0  0.10072560590E-01 -0.19219130658E-01  0.99438631618E-02  0.10200613621E+01  0.10197820701E+01 0.  0.
     999903    2    3    3    0    0  0.56838680905E-01  0.69398434082E-01 -0.90132568854E-01  0.12873906629E+00  0.20077074488E-01 0.  0.
         14    1    1    2    0    0 -0.10072560590E-01  0.19219130658E-01 -0.99438631618E-02  0.23868637889E-01  0.00000000000E+00 0. -1.
     999901    1    3    3    0    0 -0.46766120315E-01 -0.88617564740E-01  0.10007643202E+00  0.89132229582E+00  0.88000000000E+00 0. -1.
        -11    1    4    4    0    0 -0.95934571844E-03  0.58615718258E-02 -0.46892597853E-02  0.75847641236E-02  0.51100000000E-03 0. -1.
         11    1    4    4    0    0  0.57798026624E-01  0.63536862256E-01 -0.85443309069E-01  0.12115430216E+00  0.51100000000E-03 0.  1.
</event>
<event>
 8    1  0.1112958E+005  0.1043930E+01  0.7957747E-01            NaN
         13   -1    0    0    0    0  0.00000000000E+00  0.00000000000E+00  0.74505805969E-08  0.10566000000E+00  0.10566000000E+00 0. -1.
     999900   -1    0    0    0    0 -0.00000000000E+00 -0.00000000000E+00 -0.74505805969E-08  0.93827000000E+00  0.93827000000E+00 0.  1.
     999902    2    1    2    0    0  0.14951245784E-01  0.17167217030E-01  0.25993991037E-03  0.10211633432E+01  0.10209095224E+01 0.  0.
     999903    2    3    3    0    0  0.70376819784E-01  0.56345144326E-01 -0.96016929329E-01  0.13331417825E+00  0.20633646098E-01 0.  0.
         14    1    1    2    0    0 -0.14951245784E-01 -0.17167217030E-01 -0.25993991037E-03  0.22766656755E-01  0.00000000000E+00 0. -1.
     999901    1    3    3    0    0 -0.55425574000E-01 -0.39177927296E-01  0.96276869240E-01  0.88784916500E+00  0.88000000000E+00 0. -1.
        -11    1    4    4    0    0  0.81131448607E-02  0.16820812335E-01 -0.21226874941E-01  0.28277273347E-01  0.51100000000E-03 0. -1.
         11    1    4    4    0    0  0.62263674924E-01  0.39524331990E-01 -0.74790054388E-01  0.10503690490E+00  0.51100000000E-03 0.  1.
</event>
<event>
 8    1  0.1112958E+005  0.1043930E+01  0.7957747E-01            NaN
         13   -1    0    0    0    0  0.00000000000E+00  0.00000000000E+00  0.74505805969E-08  0.10566000000E+00  0.10566000000E+00 0.  1.
     999900   -1    0    0    0    0 -0.00000000000E+00 -0.00000000000E+00 -0.74505805969E-08  0.93827000000E+00  0.93827000000E+00 0.  1.
     999902    2    1    2    0    0  0.49213364245E-02 -0.28386744919E-02 -0.24236863201E-01  0.10190361622E+01  0.10187320534E+01 0.  0.
     999903    2    3    3    0    0 -0.61775783799E-01 -0.10938205664E+00 -0.27302275712E-01  0.13009893440E+00  0.19990915320E-01 0.  0.
         14    1    1    2    0    0 -0.49213364245E-02  0.28386744919E-02  0.24236863201E-01  0.24893837850E-01  0.00000000000E+00 0.  1.
     999901    1    3    3    0    0  0.66697120223E-01  0.10654338214E+00  0.30654125114E-02  0.88893722775E+00  0.88000000000E+00 0. -1.
        -11    1    4    4    0    0 -0.37007293942E-01 -0.47806383998E-01 -0.17975882768E-01  0.63074429353E-01  0.51100000000E-03 0. -1.
         11    1    4    4    0    0 -0.24768489856E-01 -0.61575672638E-01 -0.93263929442E-02  0.67024505048E-01  0.51100000000E-03 0.  1.
</event>
<event>
 8    1  0.1112958E+005  0.1043930E+01  0.7957747E-01            NaN
         13   -1    0    0    0    0  0.00000000000E+00  0.00000000000E+00  0.74505805969E-08  0.10566000000E+00  0.10566000000E+00 0. -1.
     999900   -1    0    0    0    0 -0.00000000000E+00 -0.00000000000E+00 -0.74505805969E-08  0.93827000000E+00  0.93827000000E+00 0. -1.
     999902    2    1    2    0    0 -0.14366401054E-01  0.13366251069E-01  0.14400110499E-01  0.10195904575E+01  0.10192999008E+01 0.  0.
     999903    2    3    3    0    0  0.98951251003E-01 -0.76805401781E-01  0.14523334796E-01  0.12775424359E+00  0.20489013757E-01 0.  0.
         14    1    1    2    0    0  0.14366401054E-01 -0.13366251069E-01 -0.14400110499E-01  0.24339542503E-01  0.00000000000E+00 0.  1.
     999901    1    3    3    0    0 -0.11331765206E+00  0.90171652850E-01 -0.12322429732E-03  0.89183621390E+00  0.88000000000E+00 0. -1.
        -11    1    4    4    0    0  0.51711778679E-01 -0.47595200463E-01  0.16431873660E-01  0.72178104396E-01  0.51100000000E-03 0.  1.
         11    1    4    4    0    0  0.47239472324E-01 -0.29210201318E-01 -0.19085388636E-02  0.55576139197E-01  0.51100000000E-03 0. -1.
</event>
<event>
 8    1  0.1112958E+005  0.1043930E+01  0.7957747E-01            NaN
         13   -1    0    0    0    0  0.00000000000E+00  0.00000000000E+00  0.74505805969E-08  0.10566000000E+00  0.10566000000E+00 0. -1.
     999900   -1    0    0    0    0 -0.00000000000E+00 -0.00000000000E+00 -0.74505805969E-08  0.93827000000E+00  0.93827000000E+00 0. -1.
     999902    2    1    2    0    0 -0.19548101327E-01  0.10273920575E-01  0.77095749840E-02  0.10205394195E+01  0.10202713303E+01 0.  0.
     999903    2    3    3    0    0 -0.55490427177E-01  0.10811961982E+00  0.51231965202E-01  0.13331913677E+00  0.19499699289E-01 0.  0.
         14    1    1    2    0    0  0.19548101327E-01 -0.10273920575E-01 -0.77095749840E-02  0.23390580495E-01  0.00000000000E+00 0.  1.
     999901    1    3    3    0    0  0.35942325850E-01 -0.97845699244E-01 -0.43522390218E-01  0.88722028274E+00  0.88000000000E+00 0. -1.
        -11    1    4    4    0    0 -0.23010764632E-01  0.34870486429E-01  0.26431278601E-01  0.49440061916E-01  0.51100000000E-03 0.  1.
         11    1    4    4    0    0 -0.32479662545E-01  0.73249133389E-01  0.24800686601E-01  0.83879074853E-01  0.51100000000E-03 0. -1.
</event>
<event>
 8    1  0.1112958E+005  0.1043930E+01  0.7957747E-01            NaN
         13   -1    0    0    0    0  0.00000000000E+00  0.00000000000E+00  0.74505805969E-08  0.10566000000E+00  0.10566000000E+00 0. -1.
     999900   -1    0    0    0    0 -0.00000000000E+00 -0.00000000000E+00 -0.74505805969E-08  0.93827000000E+00  0.93827000000E+00 0. -1.
     999902    2    1    2    0    0 -0.15510939348E-01 -0.13492245185E-01 -0.11865214560E-01  0.10201936726E+01  0.10199175047E+01 0.  0.
     999903    2    3    3    0    0 -0.21455684219E-01 -0.81577594257E-01  0.98055344240E-01  0.13072558216E+00  0.18949327880E-01 0.  0.
         14    1    1    2    0    0  0.15510939348E-01  0.13492245185E-01  0.11865214560E-01  0.23736327351E-01  0.00000000000E+00 0.  1.
     999901    1    3    3    0    0  0.59447448714E-02  0.68085349072E-01 -0.10992055880E+00  0.88946809049E+00  0.88000000000E+00 0. -1.
        -11    1    4    4    0    0 -0.18948532545E-01 -0.35380115596E-01  0.47722968241E-01  0.62358177363E-01  0.51100000000E-03 0.  1.
         11    1    4    4    0    0 -0.25071516738E-02 -0.46197478661E-01  0.50332375998E-01  0.68367404798E-01  0.51100000000E-03 0. -1.
</event>
<event>
 8    1  0.1112958E+005  0.1043930E+01  0.7957747E-01            NaN
         13   -1    0    0    0    0  0.00000000000E+00  0.00000000000E+00  0.74505805969E-08  0.10566000000E+00  0.10566000000E+00 0. -1.
     999900   -1    0    0    0    0 -0.00000000000E+00 -0.00000000000E+00 -0.74505805969E-08  0.93827000000E+00  0.93827000000E+00 0. -1.
     999902    2    1    2    0    0  0.11173830298E-01 -0.20156411954E-01  0.42513564332E-02  0.10204947817E+01  0.10202256564E+01 0.  0.
     999903    2    3    3    0    0 -0.10081384544E+00  0.72332136800E-01  0.26052319127E-01  0.12832290746E+00  0.19816049054E-01 0.  0.
         14    1    1    2    0    0 -0.11173830298E-01  0.20156411954E-01 -0.42513564332E-02  0.23435218325E-01  0.00000000000E+00 0.  1.
     999901    1    3    3    0    0  0.11198767574E+00 -0.92488548755E-01 -0.21800962693E-01  0.89217187422E+00  0.88000000000E+00 0. -1.
        -11    1    4    4    0    0 -0.38848332472E-01  0.39340588744E-01  0.14659399847E-01  0.57201695634E-01  0.51100000000E-03 0. -1.
         11    1    4    4    0    0 -0.61965512969E-01  0.32991548057E-01  0.11392919279E-01  0.71121211824E-01  0.51100000000E-03 0.  1.
</event>
<event>
 8    1  0.1112958E+005  0.1043930E+01  0.7957747E-01            NaN
         13   -1    0    0    0    0  0.00000000000E+00  0.00000000000E+00  0.74505805969E-08  0.10566000000E+00  0.10566000000E+00 0.  1.
     999900   -1    0    0    0    0 -0.00000000000E+00 -0.00000000000E+00 -0.74505805969E-08  0.93827000000E+00  0.93827000000E+00 0.  1.
     999902    2    1    2    0    0 -0.67699009688E-02 -0.82371504882E-02 -0.20019093137E-01  0.10212485914E+01  0.10209966891E+01 0.  0.
     999903    2    3    3    0    0 -0.12506190700E+00 -0.28117319970E-01 -0.29426315479E-01  0.13306127123E+00  0.20207166889E-01 0.  0.
         14    1    1    2    0    0  0.67699009688E-02  0.82371504882E-02  0.20019093137E-01  0.22681408628E-01  0.00000000000E+00 0.  1.
     999901    1    3    3    0    0  0.11829200603E+00  0.19880169482E-01  0.94072223414E-02  0.88818732014E+00  0.88000000000E+00 0. -1.
        -11    1    4    4    0    0 -0.71703359252E-01 -0.15607964677E-01 -0.65667153482E-02  0.73677426400E-01  0.51100000000E-03 0.  1.
         11    1    4    4    0    0 -0.53358547748E-01 -0.12509355294E-01 -0.22859600131E-01  0.59383844830E-01  0.51100000000E-03 0. -1.
</event>
<event>
 8    1  0.1112958E+005  0.1043930E+01  0.7957747E-01            NaN
         13   -1    0    0    0    0  0.00000000000E+00  0.00000000000E+00  0.74505805969E-08  0.10566000000E+00  0.10566000000E+00 0. -1.
     999900   -1    0    0    0    0 -0.00000000000E+00 -0.00000000000E+00 -0.74505805969E-08  0.93827000000E+00  0.93827000000E+00 0. -1.
     999902    2    1    2    0    0  0.15485672524E-01 -0.96310823008E-02  0.15102992959E-01  0.10202516513E+01  0.10199768467E+01 0.  0.
     999903    2    3    3    0    0 -0.28563509366E-01  0.26700677825E-01 -0.12032103691E+00  0.12806333315E+00  0.19856110132E-01 0.  0.
         14    1    1    2    0    0 -0.15485672524E-01  0.96310823008E-02 -0.15102992959E-01  0.23678348678E-01  0.00000000000E+00 0.  1.
     999901    1    3    3    0    0  0.44049181891E-01 -0.36331760126E-01  0.13542402987E+00  0.89218831817E+00  0.88000000000E+00 0.  1.
        -11    1    4    4    0    0  0.11715514246E-02  0.93139862065E-02 -0.26363212515E-01  0.27989336664E-01  0.51100000000E-03 0.  1.
         11    1    4    4    0    0 -0.29735060791E-01  0.17386691619E-01 -0.93957824397E-01  0.10007399648E+00  0.51100000000E-03 0. -1.
</event>
<event>
 8    1  0.1112958E+005  0.1043930E+01  0.7957747E-01            NaN
         13   -1    0    0    0    0  0.00000000000E+00  0.00000000000E+00  0.74505805969E-08  0.10566000000E+00  0.10566000000E+00 0. -1.
     999900   -1    0    0    0    0 -0.00000000000E+00 -0.00000000000E+00 -0.74505805969E-08  0.93827000000E+00  0.93827000000E+00 0.  1.
     999902    2    1    2    0    0 -0.22046666471E-01  0.11780531001E-01  0.74943802161E-02  0.10178339821E+01  0.10174993922E+01 0.  0.
     999903    2    3    3    0    0  0.10280777164E+00 -0.68712535856E-01  0.60638774731E-02  0.12538240874E+00  0.19827438546E-01 0.  0.
         14    1    1    2    0    0  0.22046666471E-01 -0.11780531001E-01 -0.74943802161E-02  0.26096017857E-01  0.00000000000E+00 0. -1.
     999901    1    3    3    0    0 -0.12485443811E+00  0.80493066857E-01  0.14305027431E-02  0.89245157340E+00  0.88000000000E+00 0.  1.
        -11    1    4    4    0    0  0.57326782465E-01 -0.36649036909E-01 -0.64371005548E-02  0.68346245535E-01  0.51100000000E-03 0.  1.
         11    1    4    4    0    0  0.45480989172E-01 -0.32063498947E-01  0.12500978028E-01  0.57036163207E-01  0.51100000000E-03 0. -1.
</event>
<event>
 8    1  0.1116244E+005  0.1043930E+01  0.7957747E-01            NaN
         13   -1    0    0    0    0  0.00000000000E+00  0.00000000000E+00  0.74505805969E-08  0.10566000000E+00  0.10566000000E+00 0. -1.
     999900   -1    0    0    0    0 -0.00000000000E+00 -0.00000000000E+00 -0.74505805969E-08  0.93827000000E+00  0.93827000000E+00 0.  1.
     999902    2    1    2    0    0 -0.88148820185E-02  0.10257025968E-01 -0.18899755421E-01  0.10206897444E+01  0.10204251294E+01 0.  0.
     999903    2    3    3    0    0  0.14742350487E-01  0.12940058312E+00 -0.12668338500E-01  0.13232666490E+00  0.19698010879E-01 0.  0.
         14    1    1    2    0    0  0.88148820185E-02 -0.10257025968E-01  0.18899755421E-01  0.23240255629E-01  0.00000000000E+00 0. -1.
     999901    1    3    3    0    0 -0.23557232505E-01 -0.11914355715E+00 -0.62314169205E-02  0.88836307947E+00  0.88000000000E+00 0.  1.
        -11    1    4    4    0    0 -0.25252342395E-02  0.55862193946E-01 -0.13070559659E-02  0.55936848648E-01  0.51100000000E-03 0.  1.
         11    1    4    4    0    0  0.17267584726E-01  0.73538389176E-01 -0.11361282535E-01  0.76389816250E-01  0.51100000000E-03 0. -1.
</event>
<event>
 8    1  0.1112958E+005  0.1043930E+01  0.7957747E-01            NaN
         13   -1    0    0    0    0  0.00000000000E+00  0.00000000000E+00  0.74505805969E-08  0.10566000000E+00  0.10566000000E+00 0. -1.
     999900   -1    0    0    0    0 -0.00000000000E+00 -0.00000000000E+00 -0.74505805969E-08  0.93827000000E+00  0.93827000000E+00 0.  1.
     999902    2    1    2    0    0 -0.59312083522E-02  0.17342438025E-01 -0.13490056756E-01  0.10211721218E+01  0.10209184989E+01 0.  0.
     999903    2    3    3    0    0 -0.10387213087E+00 -0.76625333422E-01  0.61377672385E-02  0.13055008195E+00  0.18568533011E-01 0.  0.
         14    1    1    2    0    0  0.59312083522E-02 -0.17342438025E-01  0.13490056756E-01  0.22757878206E-01  0.00000000000E+00 0. -1.
     999901    1    3    3    0    0  0.97940922517E-01  0.93967771447E-01 -0.19627823994E-01  0.89062203984E+00  0.88000000000E+00 0. -1.
        -11    1    4    4    0    0 -0.51959178765E-01 -0.33253714201E-01  0.11249887093E-01  0.62708746174E-01  0.51100000000E-03 0.  1.
         11    1    4    4    0    0 -0.51912952104E-01 -0.43371619222E-01 -0.51121198542E-02  0.67841335780E-01  0.51100000000E-03 0. -1.
</event>
<event>
 8    1  0.1112958E+005  0.1043930E+01  0.7957747E-01            NaN
         13   -1    0    0    0    0  0.00000000000E+00  0.00000000000E+00  0.74505805969E-08  0.10566000000E+00  0.10566000000E+00 0. -1.
     999900   -1    0    0    0    0 -0.00000000000E+00 -0.00000000000E+00 -0.74505805969E-08  0.93827000000E+00  0.93827000000E+00 0.  1.
     999902    2    1    2    0    0 -0.13241983841E-02  0.21710208465E-01 -0.10022330352E-01  0.10199814351E+01  0.10197002473E+01 0.  0.
     999903    2    3    3    0    0 -0.10000783613E+00  0.30522748366E-01 -0.77766028920E-01  0.13183430211E+00  0.19988059021E-01 0.  0.
         14    1    1    2    0    0  0.13241983841E-02 -0.21710208465E-01  0.10022330352E-01  0.23948564855E-01  0.00000000000E+00 0. -1.
     999901    1    3    3    0    0  0.98683637749E-01 -0.88125399009E-02  0.67743698569E-01  0.88814713303E+00  0.88000000000E+00 0. -1.
        -11    1    4    4    0    0 -0.86571839954E-01  0.23351896006E-01 -0.73684260618E-01  0.11605871748E+00  0.51100000000E-03 0. -1.
         11    1    4    4    0    0 -0.13435996179E-01  0.71708523601E-02 -0.40817683026E-02  0.15775584628E-01  0.51100000000E-03 0.  1.
</event>
<event>
 8    1  0.1112958E+005  0.1043930E+01  0.7957747E-01            NaN
         13   -1    0    0    0    0  0.00000000000E+00  0.00000000000E+00  0.74505805969E-08  0.10566000000E+00  0.10566000000E+00 0.  1.
     999900   -1    0    0    0    0 -0.00000000000E+00 -0.00000000000E+00 -0.74505805969E-08  0.93827000000E+00  0.93827000000E+00 0. -1.
     999902    2    1    2    0    0 -0.38732863460E-02  0.53290868533E-02 -0.23801245741E-01  0.10192338300E+01  0.10189345903E+01 0.  0.
     999903    2    3    3    0    0  0.28063409993E-01 -0.33450778368E-01 -0.12315069856E+00  0.13221965633E+00  0.20234460970E-01 0.  0.
         14    1    1    2    0    0  0.38732863460E-02 -0.53290868533E-02  0.23801245741E-01  0.24696169999E-01  0.00000000000E+00 0.  1.
     999901    1    3    3    0    0 -0.31936696339E-01  0.38779865221E-01  0.99349452816E-01  0.88701417367E+00  0.88000000000E+00 0.  1.
        -11    1    4    4    0    0  0.26042673328E-01 -0.16753159494E-01 -0.72195807242E-01  0.78558162475E-01  0.51100000000E-03 0. -1.
         11    1    4    4    0    0  0.20207366659E-02 -0.16697618874E-01 -0.50954891315E-01  0.53661493854E-01  0.51100000000E-03 0.  1.
</event>
<event>
 8    1  0.1112958E+005  0.1043930E+01  0.7957747E-01            NaN
         13   -1    0    0    0    0  0.00000000000E+00  0.00000000000E+00  0.74505805969E-08  0.10566000000E+00  0.10566000000E+00 0.  1.
     999900   -1    0    0    0    0 -0.00000000000E+00 -0.00000000000E+00 -0.74505805969E-08  0.93827000000E+00  0.93827000000E+00 0.  1.
     999902    2    1    2    0    0  0.33047973616E-02  0.13541823735E-01 -0.19316902909E-01  0.10201088872E+01  0.10198307195E+01 0.  0.
     999903    2    3    3    0    0 -0.58225895938E-01 -0.11864696788E-01  0.11167717086E+00  0.12792562978E+00  0.19030246364E-01 0.  0.
         14    1    1    2    0    0 -0.33047973616E-02 -0.13541823735E-01  0.19316902909E-01  0.23821112771E-01  0.00000000000E+00 0.  1.
     999901    1    3    3    0    0  0.61530693299E-01  0.25406520523E-01 -0.13099407377E+00  0.89218325745E+00  0.88000000000E+00 0.  1.
        -11    1    4    4    0    0 -0.44972077588E-01 -0.17045776469E-01  0.83777597620E-01  0.96602242427E-01  0.51100000000E-03 0.  1.
         11    1    4    4    0    0 -0.13253818350E-01  0.51810796809E-02  0.27899573240E-01  0.31323387357E-01  0.51100000000E-03 0. -1.
</event>
<event>
 7    1  0.1112958E+005  0.1043930E+01  0.7957747E-01            NaN
         13   -1    0    0    0    0  0.00000000000E+00  0.00000000000E+00  0.74505805969E-08  0.10566000000E+00  0.10566000000E+00 0.  1.
     999900   -1    0    0    0    0 -0.00000000000E+00 -0.00000000000E+00 -0.74505805969E-08  0.93827000000E+00  0.93827000000E+00 0.  1.
     999902    2    1    2    0    0 -0.10292748481E-02 -0.10256930300E-01  0.21387532881E-01  0.10201878310E+01  0.10199115255E+01 0.  0.
         14    1    1    2    0    0  0.10292748481E-02  0.10256930300E-01 -0.21387532881E-01  0.23742168996E-01  0.00000000000E+00 0. -1.
     999901    1    3    3    0    0 -0.28427007861E-01  0.53551934587E-01 -0.83187856617E-01  0.88600006996E+00  0.88000000000E+00 0.  1.
        -11    1    3    3    0    0  0.14240313980E-01 -0.58725534232E-01  0.51911259267E-01  0.79665016618E-01  0.51100000000E-03 0.  1.
         11    1    3    3    0    0  0.13157419033E-01 -0.50833306544E-02  0.52664130231E-01  0.54522744430E-01  0.51100000000E-03 0. -1.
</event>
<event>
 8    1  0.1112958E+005  0.1043930E+01  0.7957747E-01            NaN
         13   -1    0    0    0    0  0.00000000000E+00  0.00000000000E+00  0.74505805969E-08  0.10566000000E+00  0.10566000000E+00 0.  1.
     999900   -1    0    0    0    0 -0.00000000000E+00 -0.00000000000E+00 -0.74505805969E-08  0.93827000000E+00  0.93827000000E+00 0. -1.
     999902    2    1    2    0    0  0.16567848158E-01  0.83665321731E-02 -0.12298985332E-01  0.10216643876E+01  0.10214217364E+01 0.  0.
     999903    2    3    3    0    0 -0.57835225922E-03 -0.16974716495E-02  0.12843978099E+00  0.13025949833E+00  0.21622757938E-01 0.  0.
         14    1    1    2    0    0 -0.16567848158E-01 -0.83665321731E-02  0.12298985332E-01  0.22265612351E-01  0.00000000000E+00 0.  1.
     999901    1    3    3    0    0  0.17146200417E-01  0.10064003823E-01 -0.14073876633E+00  0.89140488932E+00  0.88000000000E+00 0. -1.
        -11    1    4    4    0    0  0.63930467828E-02 -0.85074423696E-02  0.88766243325E-01  0.89403325989E-01  0.51100000000E-03 0.  1.
         11    1    4    4    0    0 -0.69713990421E-02  0.68099707201E-02  0.39673537669E-01  0.40856172337E-01  0.51100000000E-03 0. -1.
</event>
<event>
 8    1  0.1112958E+005  0.1043930E+01  0.7957747E-01            NaN
         13   -1    0    0    0    0  0.00000000000E+00  0.00000000000E+00  0.74505805969E-08  0.10566000000E+00  0.10566000000E+00 0. -1.
     999900   -1    0    0    0    0 -0.00000000000E+00 -0.00000000000E+00 -0.74505805969E-08  0.93827000000E+00  0.93827000000E+00 0.  1.
     999902    2    1    2    0    0  0.18810049512E-01 -0.11263262031E-01 -0.91682670881E-02  0.10201658220E+01  0.10198889980E+01 0.  0.
     999903    2    3    3    0    0 -0.10967905977E+00 -0.36669400210E-01 -0.54500703365E-01  0.12931793778E+00  0.19459221477E-01 0.  0.
         14    1    1    2    0    0 -0.18810049512E-01  0.11263262031E-01  0.91682670881E-02  0.23764177992E-01  0.00000000000E+00 0. -1.
     999901    1    3    3    0    0  0.12848910928E+00  0.25406138179E-01  0.45332436276E-01  0.89084788423E+00  0.88000000000E+00 0. -1.
        -11    1    4    4    0    0 -0.25954816295E-01 -0.78862179197E-03 -0.89275349492E-02  0.27463364953E-01  0.51100000000E-03 0.  1.
         11    1    4    4    0    0 -0.83724243471E-01 -0.35880778418E-01 -0.45573168415E-01  0.10185457282E+00  0.51100000000E-03 0. -1.
</event>
<event>
 8    1  0.1112958E+005  0.1043930E+01  0.7957747E-01            NaN
         13   -1    0    0    0    0  0.00000000000E+00  0.00000000000E+00  0.74505805969E-08  0.10566000000E+00  0.10566000000E+00 0. -1.
     999900   -1    0    0    0    0 -0.00000000000E+00 -0.00000000000E+00 -0.74505805969E-08  0.93827000000E+00  0.93827000000E+00 0.  1.
     999902    2    1    2    0    0 -0.22435076622E-01 -0.19561232283E-02  0.88045419200E-02  0.10197498627E+01  0.10194631447E+01 0.  0.
     999903    2    3    3    0    0 -0.90547275334E-01 -0.93953473656E-01  0.10986835520E-01  0.13233364328E+00  0.19115917610E-01 0.  0.
         14    1    1    2    0    0  0.22435076622E-01  0.19561232283E-02 -0.88045419200E-02  0.24180137294E-01  0.00000000000E+00 0.  1.
     999901    1    3    3    0    0  0.68112198712E-01  0.91997350428E-01 -0.21822936004E-02  0.88741621943E+00  0.88000000000E+00 0.  1.
        -11    1    4    4    0    0 -0.22033543414E-01 -0.15874076025E-01 -0.37358713415E-02  0.27416804714E-01  0.51100000000E-03 0.  1.
         11    1    4    4    0    0 -0.68513731920E-01 -0.78079397631E-01  0.14722706862E-01  0.10491683856E+00  0.51100000000E-03 0. -1.
</event>
<event>
 8    1  0.1112958E+005  0.1043930E+01  0.7957747E-01            NaN
         13   -1    0    0    0    0  0.00000000000E+00  0.00000000000E+00  0.74505805969E-08  0.10566000000E+00  0.10566000000E+00 0.  1.
     999900   -1    0    0    0    0 -0.00000000000E+00 -0.00000000000E+00 -0.74505805969E-08  0.93827000000E+00  0.93827000000E+00 0.  1.
     999902    2    1    2    0    0 -0.10062704696E-01  0.17532899809E-01  0.75736983799E-02  0.10223424687E+01  0.10221145248E+01 0.  0.
     999903    2    3    3    0    0 -0.20681664134E-01  0.11357521549E+00  0.67155785452E-01  0.13505056981E+00  0.20042357149E-01 0.  0.
         14    1    1    2    0    0  0.10062704696E-01 -0.17532899809E-01 -0.75736983799E-02  0.21587531324E-01  0.00000000000E+00 0.  1.
     999901    1    3    3    0    0  0.10618959439E-01 -0.96042315682E-01 -0.59582087072E-01  0.88729189887E+00  0.88000000000E+00 0.  1.
        -11    1    4    4    0    0 -0.14822501232E-01  0.61776557990E-01  0.47544535796E-01  0.79352338749E-01  0.51100000000E-03 0.  1.
         11    1    4    4    0    0 -0.58591629023E-02  0.51798657501E-01  0.19611249656E-01  0.55698231057E-01  0.51100000000E-03 0. -1.
</event>
<event>
 8    1  0.1112958E+005  0.1043930E+01  0.7957747E-01            NaN
         13   -1    0    0    0    0  0.00000000000E+00  0.00000000000E+00  0.74505805969E-08  0.10566000000E+00  0.10566000000E+00 0.  1.
     999900   -1    0    0    0    0 -0.00000000000E+00 -0.00000000000E+00 -0.74505805969E-08  0.93827000000E+00  0.93827000000E+00 0.  1.
     999902    2    1    2    0    0  0.20909644548E-01 -0.68402813920E-02  0.10876193244E-01  0.10193883158E+01  0.10190928535E+01 0.  0.
     999903    2    3    3    0    0  0.20678898582E-01  0.21807444411E-02  0.12837690492E+00  0.13153255644E+00  0.19692922493E-01 0.  0.
         14    1    1    2    0    0 -0.20909644548E-01  0.68402813920E-02 -0.10876193244E-01  0.24541684215E-01  0.00000000000E+00 0.  1.
     999901    1    3    3    0    0  0.23074596637E-03 -0.90210258332E-02 -0.11750071167E+00  0.88785575934E+00  0.88000000000E+00 0.  1.
        -11    1    4    4    0    0  0.27398788722E-02  0.88757990893E-02  0.35311177240E-01  0.36516121163E-01  0.51100000000E-03 0. -1.
         11    1    4    4    0    0  0.17939019710E-01 -0.66950546482E-02  0.93065727675E-01  0.95016435282E-01  0.51100000000E-03 0.  1.
</event>
<event>
 8    1  0.1112958E+005  0.1043930E+01  0.7957747E-01            NaN
         13   -1    0    0    0    0  0.00000000000E+00  0.00000000000E+00  0.74505805969E-08  0.10566000000E+00  0.10566000000E+00 0.  1.
     999900   -1    0    0    0    0 -0.00000000000E+00 -0.00000000000E+00 -0.74505805969E-08  0.93827000000E+00  0.93827000000E+00 0. -1.
     999902    2    1    2    0    0  0.54379171963E-02  0.13886725542E-01  0.17504170254E-01  0.10209341729E+01  0.10206751576E+01 0.  0.
     999903    2    3    3    0    0  0.97296033013E-01 -0.66225721005E-01  0.55572292650E-01  0.13171817015E+00  0.20224551262E-01 0.  0.
         14    1    1    2    0    0 -0.54379171963E-02 -0.13886725542E-01 -0.17504170254E-01  0.22995827143E-01  0.00000000000E+00 0.  1.
     999901    1    3    3    0    0 -0.91858115817E-01  0.80112446546E-01 -0.38068122397E-01  0.88921600271E+00  0.88000000000E+00 0. -1.
        -11    1    4    4    0    0  0.77404751665E-01 -0.61105496709E-01  0.42648838965E-01  0.10744562297E+00  0.51100000000E-03 0. -1.
         11    1    4    4    0    0  0.19891281348E-01 -0.51202242951E-02  0.12923453685E-01  0.24272547181E-01  0.51100000000E-03 0.  1.
</event>
<event>
 8    1  0.1112958E+005  0.1043930E+01  0.7957747E-01            NaN
         13   -1    0    0    0    0  0.00000000000E+00  0.00000000000E+00  0.74505805969E-08  0.10566000000E+00  0.10566000000E+00 0.  1.
     999900   -1    0    0    0    0 -0.00000000000E+00 -0.00000000000E+00 -0.74505805969E-08  0.93827000000E+00  0.93827000000E+00 0. -1.
     999902    2    1    2    0    0 -0.14563925172E-01 -0.45757027076E-02  0.18112641535E-01  0.10202421813E+01  0.10199671542E+01 0.  0.
     999903    2    3    3    0    0 -0.12775340921E+00  0.17185273732E-01  0.24560116217E-01  0.13270234032E+00  0.19759671551E-01 0.  0.
         14    1    1    2    0    0  0.14563925172E-01  0.45757027076E-02 -0.18112641535E-01  0.23687818707E-01  0.00000000000E+00 0. -1.
     999901    1    3    3    0    0  0.11318948403E+00 -0.21760976440E-01 -0.64474746821E-02  0.88753984098E+00  0.88000000000E+00 0.  1.
        -11    1    4    4    0    0 -0.69251089126E-01  0.28876995701E-02  0.54955928595E-02  0.69530675359E-01  0.51100000000E-03 0.  1.
         11    1    4    4    0    0 -0.58502320080E-01  0.14297574162E-01  0.19064523358E-01  0.63171664958E-01  0.51100000000E-03 0. -1.
</event>
<event>
 8    1  0.1112958E+005  0.1043930E+01  0.7957747E-01            NaN
         13   -1    0    0    0    0  0.00000000000E+00  0.00000000000E+00  0.74505805969E-08  0.10566000000E+00  0.10566000000E+00 0. -1.
     999900   -1    0    0    0    0 -0.00000000000E+00 -0.00000000000E+00 -0.74505805969E-08  0.93827000000E+00  0.93827000000E+00 0.  1.
     999902    2    1    2    0    0 -0.18322215795E-01  0.72229250520E-02 -0.13867651563E-01  0.10198429496E+01  0.10195584612E+01 0.  0.
     999903    2    3    3    0    0  0.55552191964E-01  0.62357919344E-01  0.95409709657E-01  0.12830560466E+00  0.19615283665E-01 0.  0.
         14    1    1    2    0    0  0.18322215795E-01 -0.72229250520E-02  0.13867651563E-01  0.24087050417E-01  0.00000000000E+00 0. -1.
     999901    1    3    3    0    0 -0.73874407759E-01 -0.55134994292E-01 -0.10927736122E+00  0.89153734492E+00  0.88000000000E+00 0.  1.
        -11    1    4    4    0    0  0.24754797234E-01  0.14552407060E-01  0.36195258485E-01  0.46205307002E-01  0.51100000000E-03 0. -1.
         11    1    4    4    0    0  0.30797394731E-01  0.47805512283E-01  0.59214451172E-01  0.82100297658E-01  0.51100000000E-03 0.  1.
</event>
<event>
 8    1  0.1112958E+005  0.1043930E+01  0.7957747E-01            NaN
         13   -1    0    0    0    0  0.00000000000E+00  0.00000000000E+00  0.74505805969E-08  0.10566000000E+00  0.10566000000E+00 0.  1.
     999900   -1    0    0    0    0 -0.00000000000E+00 -0.00000000000E+00 -0.74505805969E-08  0.93827000000E+00  0.93827000000E+00 0.  1.
     999902    2    1    2    0    0 -0.98396095173E-02  0.36930923232E-02 -0.21301840980E-01  0.10201765734E+01  0.10199000028E+01 0.  0.
     999903    2    3    3    0    0 -0.10604588347E+00 -0.28270947798E-01  0.66713369375E-01  0.12999455590E+00  0.20073241409E-01 0.  0.
         14    1    1    2    0    0  0.98396095173E-02 -0.36930923232E-02  0.21301840980E-01  0.23753426605E-01  0.00000000000E+00 0.  1.
     999901    1    3    3    0    0  0.96206273955E-01  0.31964040122E-01 -0.88015210355E-01  0.89018201749E+00  0.88000000000E+00 0.  1.
        -11    1    4    4    0    0 -0.42125786036E-01 -0.39996494918E-02  0.17719351363E-01  0.45878269136E-01  0.51100000000E-03 0. -1.
         11    1    4    4    0    0 -0.63920097436E-01 -0.24271298307E-01  0.48994018012E-01  0.84116286768E-01  0.51100000000E-03 0.  1.
</event>
<event>
 8    1  0.1112958E+005  0.1043930E+01  0.7957747E-01            NaN
         13   -1    0    0    0    0  0.00000000000E+00  0.00000000000E+00  0.74505805969E-08  0.10566000000E+00  0.10566000000E+00 0.  1.
     999900   -1    0    0    0    0 -0.00000000000E+00 -0.00000000000E+00 -0.74505805969E-08  0.93827000000E+00  0.93827000000E+00 0.  1.
     999902    2    1    2    0    0 -0.12557304419E-01  0.94922766103E-02 -0.18951382109E-01  0.10192937646E+01  0.10189959934E+01 0.  0.
     999903    2    3    3    0    0 -0.10982563230E+00 -0.58864342032E-01  0.30896728837E-01  0.12990150635E+00  0.19827083147E-01 0.  0.
         14    1    1    2    0    0  0.12557304419E-01 -0.94922766103E-02  0.18951382109E-01  0.24636235373E-01  0.00000000000E+00 0.  1.
     999901    1    3    3    0    0  0.97268327879E-01  0.68356618642E-01 -0.49848110946E-01  0.88939225828E+00  0.88000000000E+00 0. -1.
        -11    1    4    4    0    0 -0.28599343899E-01 -0.15305655691E-01 -0.74897266638E-03  0.32450079332E-01  0.51100000000E-03 0. -1.
         11    1    4    4    0    0 -0.81226288400E-01 -0.43558686340E-01  0.31645701503E-01  0.97451427017E-01  0.51100000000E-03 0.  1.
</event>
<event>
 8    1  0.1112958E+005  0.1043930E+01  0.7957747E-01            NaN
         13   -1    0    0    0    0  0.00000000000E+00  0.00000000000E+00  0.74505805969E-08  0.10566000000E+00  0.10566000000E+00 0. -1.
     999900   -1    0    0    0    0 -0.00000000000E+00 -0.00000000000E+00 -0.74505805969E-08  0.93827000000E+00  0.93827000000E+00 0. -1.
     999902    2    1    2    0    0  0.17340200554E-01  0.16772080691E-01 -0.10920583144E-02  0.10197809247E+01  0.10194949517E+01 0.  0.
     999903    2    3    3    0    0 -0.11450331480E-01 -0.60986513783E-01 -0.11129180246E+00  0.12904006601E+00  0.20371754636E-01 0.  0.
         14    1    1    2    0    0 -0.17340200554E-01 -0.16772080691E-01  0.10920583144E-02  0.24149075289E-01  0.00000000000E+00 0. -1.
     999901    1    3    3    0    0  0.28790532034E-01  0.77758594474E-01  0.11019974414E+00  0.89074085870E+00  0.88000000000E+00 0.  1.
        -11    1    4    4    0    0 -0.90135356500E-02 -0.24485491093E-01 -0.29185798879E-01  0.39151693146E-01  0.51100000000E-03 0. -1.
         11    1    4    4    0    0 -0.24367958296E-02 -0.36501022690E-01 -0.82106003580E-01  0.89888372864E-01  0.51100000000E-03 0.  1.
</event>
<event>
 8    1  0.1112958E+005  0.1043930E+01  0.7957747E-01            NaN
         13   -1    0    0    0    0  0.00000000000E+00  0.00000000000E+00  0.74505805969E-08  0.10566000000E+00  0.10566000000E+00 0.  1.
     999900   -1    0    0    0    0 -0.00000000000E+00 -0.00000000000E+00 -0.74505805969E-08  0.93827000000E+00  0.93827000000E+00 0.  1.
     999902    2    1    2    0    0 -0.62459652373E-02 -0.82297212503E-02 -0.17787432614E-01  0.10233597994E+01  0.10231530413E+01 0.  0.
     999903    2    3    3    0    0 -0.63458274780E-01 -0.87905201507E-01 -0.78589095469E-01  0.13582485771E+00  0.22756734291E-01 0.  0.
         14    1    1    2    0    0  0.62459652373E-02  0.82297212503E-02  0.17787432614E-01  0.20570200597E-01  0.00000000000E+00 0.  1.
     999901    1    3    3    0    0  0.57212309543E-01  0.79675480256E-01  0.60801662855E-01  0.88753494169E+00  0.88000000000E+00 0. -1.
        -11    1    4    4    0    0 -0.29315739078E-01 -0.36995327301E-01 -0.20819805521E-01  0.51592559762E-01  0.51100000000E-03 0. -1.
         11    1    4    4    0    0 -0.34142535702E-01 -0.50909874206E-01 -0.57769289948E-01  0.84232297950E-01  0.51100000000E-03 0.  1.
</event>
<event>
 8    1  0.1112958E+005  0.1043930E+01  0.7957747E-01            NaN
         13   -1    0    0    0    0  0.00000000000E+00  0.00000000000E+00  0.74505805969E-08  0.10566000000E+00  0.10566000000E+00 0.  1.
     999900   -1    0    0    0    0 -0.00000000000E+00 -0.00000000000E+00 -0.74505805969E-08  0.93827000000E+00  0.93827000000E+00 0. -1.
     999902    2    1    2    0    0 -0.78685906735E-02  0.17618770886E-01 -0.13716434492E-01  0.10202556176E+01  0.10199809061E+01 0.  0.
     999903    2    3    3    0    0 -0.37014453375E-01 -0.10742844424E+00 -0.59427702338E-01  0.12976372694E+00  0.19900568671E-01 0.  0.
         14    1    1    2    0    0  0.78685906735E-02 -0.17618770886E-01  0.13716434492E-01  0.23674382397E-01  0.00000000000E+00 0.  1.
     999901    1    3    3    0    0  0.29145862702E-01  0.12504721513E+00  0.45711267846E-01  0.89049189066E+00  0.88000000000E+00 0.  1.
        -11    1    4    4    0    0 -0.50766952455E-02 -0.39771331383E-01 -0.26205454483E-01  0.47901133601E-01  0.51100000000E-03 0.  1.
         11    1    4    4    0    0 -0.31937758130E-01 -0.67657112861E-01 -0.33222247855E-01  0.81862593341E-01  0.51100000000E-03 0. -1.
</event>
<event>
 8    1  0.1112958E+005  0.1043930E+01  0.7957747E-01            NaN
         13   -1    0    0    0    0  0.00000000000E+00  0.00000000000E+00  0.74505805969E-08  0.10566000000E+00  0.10566000000E+00 0. -1.
     999900   -1    0    0    0    0 -0.00000000000E+00 -0.00000000000E+00 -0.74505805969E-08  0.93827000000E+00  0.93827000000E+00 0.  1.
     999902    2    1    2    0    0  0.14004516638E-01 -0.84032446287E-02  0.19777689283E-01  0.10182804776E+01  0.10179573827E+01 0.  0.
     999903    2    3    3    0    0  0.50588886807E-01  0.54223931937E-03  0.11974341630E+00  0.13182033500E+00  0.21876596615E-01 0.  0.
         14    1    1    2    0    0 -0.14004516638E-01  0.84032446287E-02 -0.19777689283E-01  0.25649522411E-01  0.00000000000E+00 0.  1.
     999901    1    3    3    0    0 -0.36584370169E-01 -0.89454839481E-02 -0.99965727019E-01  0.88646014259E+00  0.88000000000E+00 0.  1.
        -11    1    4    4    0    0  0.28378175709E-01  0.51611643962E-02  0.89342460756E-01  0.93884476296E-01  0.51100000000E-03 0.  1.
         11    1    4    4    0    0  0.22210711097E-01 -0.46189250768E-02  0.30400955546E-01  0.37935858702E-01  0.51100000000E-03 0. -1.
</event>
<event>
 8    1  0.1112958E+005  0.1043930E+01  0.7957747E-01            NaN
         13   -1    0    0    0    0  0.00000000000E+00  0.00000000000E+00  0.74505805969E-08  0.10566000000E+00  0.10566000000E+00 0. -1.
     999900   -1    0    0    0    0 -0.00000000000E+00 -0.00000000000E+00 -0.74505805969E-08  0.93827000000E+00  0.93827000000E+00 0.  1.
     999902    2    1    2    0    0 -0.24467290481E-01 -0.14160366403E-01  0.11433132849E-02  0.10156373959E+01  0.10152432460E+01 0.  0.
     999903    2    3    3    0    0 -0.99778632583E-01  0.63046251498E-01  0.45134996677E-01  0.12796181988E+00  0.20160706186E-01 0.  0.
         14    1    1    2    0    0  0.24467290481E-01  0.14160366403E-01 -0.11433132849E-02  0.28292604076E-01  0.00000000000E+00 0.  1.
     999901    1    3    3    0    0  0.75311342102E-01 -0.77206617901E-01 -0.43991683392E-01  0.88767557604E+00  0.88000000000E+00 0.  1.
        -11    1    4    4    0    0 -0.59064973612E-01  0.27081664108E-01  0.19160636142E-01  0.67745691649E-01  0.51100000000E-03 0. -1.
         11    1    4    4    0    0 -0.40713658971E-01  0.35964587390E-01  0.25974360535E-01  0.60216128231E-01  0.51100000000E-03 0.  1.
</event>
<event>
 8    1  0.1112958E+005  0.1043930E+01  0.7957747E-01            NaN
         13   -1    0    0    0    0  0.00000000000E+00  0.00000000000E+00  0.74505805969E-08  0.10566000000E+00  0.10566000000E+00 0. -1.
     999900   -1    0    0    0    0 -0.00000000000E+00 -0.00000000000E+00 -0.74505805969E-08  0.93827000000E+00  0.93827000000E+00 0. -1.
     999902    2    1    2    0    0  0.97815913491E-02 -0.19598122342E-01  0.99772603279E-02  0.10198611061E+01  0.10195770516E+01 0.  0.
     999903    2    3    3    0    0  0.12789143597E-01 -0.10387464002E+00 -0.75852395247E-01  0.13167289039E+00  0.25112968086E-01 0.  0.
         14    1    1    2    0    0 -0.97815913491E-02  0.19598122342E-01 -0.99772603279E-02  0.24068893873E-01  0.00000000000E+00 0.  1.
     999901    1    3    3    0    0 -0.30075522479E-02  0.84276517674E-01  0.85829655575E-01  0.88818821574E+00  0.88000000000E+00 0.  1.
        -11    1    4    4    0    0  0.19297888926E-01 -0.59925036378E-01 -0.48769293407E-01  0.79637451003E-01  0.51100000000E-03 0.  1.
         11    1    4    4    0    0 -0.65087453292E-02 -0.43949603638E-01 -0.27083101840E-01  0.52035439384E-01  0.51100000000E-03 0. -1.
</event>
<event>
 8    1  0.1112958E+005  0.1043930E+01  0.7957747E-01            NaN
         13   -1    0    0    0    0  0.00000000000E+00  0.00000000000E+00  0.74505805969E-08  0.10566000000E+00  0.10566000000E+00 0. -1.
     999900   -1    0    0    0    0 -0.00000000000E+00 -0.00000000000E+00 -0.74505805969E-08  0.93827000000E+00  0.93827000000E+00 0. -1.
     999902    2    1    2    0    0 -0.18877549075E-01  0.56287075877E-02 -0.14384420470E-01  0.10195382850E+01  0.10192464662E+01 0.  0.
     999903    2    3    3    0    0 -0.87315574249E-01 -0.57730067831E-01 -0.78276672049E-01  0.13230645649E+00  0.20518060444E-01 0.  0.
         14    1    1    2    0    0  0.18877549075E-01 -0.56287075877E-02  0.14384420470E-01  0.24391714996E-01  0.00000000000E+00 0.  1.
     999901    1    3    3    0    0  0.68438025175E-01  0.63358775419E-01  0.63892251579E-01  0.88723182851E+00  0.88000000000E+00 0. -1.
        -11    1    4    4    0    0 -0.48356050543E-01 -0.42588159206E-01 -0.53185498770E-01  0.83552482483E-01  0.51100000000E-03 0. -1.
         11    1    4    4    0    0 -0.38959523706E-01 -0.15141908625E-01 -0.25091173278E-01  0.48753974010E-01  0.51100000000E-03 0.  1.
</event>
<event>
 8    1  0.1112958E+005  0.1043930E+01  0.7957747E-01            NaN
         13   -1    0    0    0    0  0.00000000000E+00  0.00000000000E+00  0.74505805969E-08  0.10566000000E+00  0.10566000000E+00 0. -1.
     999900   -1    0    0    0    0 -0.00000000000E+00 -0.00000000000E+00 -0.74505805969E-08  0.93827000000E+00  0.93827000000E+00 0. -1.
     999902    2    1    2    0    0 -0.18575291655E-01 -0.11710314661E-01  0.13293886155E-01  0.10182609459E+01  0.10179373525E+01 0.  0.
     999903    2    3    3    0    0  0.74442202003E-01 -0.87697173356E-01 -0.51651609053E-01  0.12773066894E+00  0.20366625085E-01 0.  0.
         14    1    1    2    0    0  0.18575291655E-01  0.11710314661E-01 -0.13293886155E-01  0.25669054104E-01  0.00000000000E+00 0.  1.
     999901    1    3    3    0    0 -0.93017493658E-01  0.75986858695E-01  0.64945495208E-01  0.89053027695E+00  0.88000000000E+00 0.  1.
        -11    1    4    4    0    0  0.62687001718E-01 -0.60527601533E-01 -0.40496806520E-01  0.96091119210E-01  0.51100000000E-03 0.  1.
         11    1    4    4    0    0  0.11755200285E-01 -0.27169571823E-01 -0.11154802533E-01  0.31639549733E-01  0.51100000000E-03 0. -1.
</event>
<event>
 8    1  0.1112958E+005  0.1043930E+01  0.7957747E-01            NaN
         13   -1    0    0    0    0  0.00000000000E+00  0.00000000000E+00  0.74505805969E-08  0.10566000000E+00  0.10566000000E+00 0.  1.
     999900   -1    0    0    0    0 -0.00000000000E+00 -0.00000000000E+00 -0.74505805969E-08  0.93827000000E+00  0.93827000000E+00 0. -1.
     999902    2    1    2    0    0  0.17393539292E-03 -0.19736971326E-01 -0.12541053767E-01  0.10205450407E+01  0.10202770819E+01 0.  0.
     999903    2    3    3    0    0 -0.60231255451E-02  0.32486498150E-01 -0.12596012288E+00  0.13170895934E+00  0.19739473432E-01 0.  0.
         14    1    1    2    0    0 -0.17393539292E-03  0.19736971326E-01  0.12541053767E-01  0.23384959273E-01  0.00000000000E+00 0.  1.
     999901    1    3    3    0    0  0.61970609380E-02 -0.52223469475E-01  0.11341906912E+00  0.88883608138E+00  0.88000000000E+00 0.  1.
        -11    1    4    4    0    0  0.53194183761E-02  0.98229390974E-02 -0.60252027566E-01  0.61280945580E-01  0.51100000000E-03 0. -1.
         11    1    4    4    0    0 -0.11342543921E-01  0.22663559052E-01 -0.65708095318E-01  0.70428013765E-01  0.51100000000E-03 0.  1.
</event>
<event>
 8    1  0.1112958E+005  0.1043930E+01  0.7957747E-01            NaN
         13   -1    0    0    0    0  0.00000000000E+00  0.00000000000E+00  0.74505805969E-08  0.10566000000E+00  0.10566000000E+00 0. -1.
     999900   -1    0    0    0    0 -0.00000000000E+00 -0.00000000000E+00 -0.74505805969E-08  0.93827000000E+00  0.93827000000E+00 0. -1.
     999902    2    1    2    0    0 -0.38205112115E-02 -0.19162259588E-01  0.13006427359E-01  0.10204575555E+01  0.10201875646E+01 0.  0.
     999903    2    3    3    0    0  0.60137904195E-01  0.94675632181E-01  0.61682632141E-01  0.12949228265E+00  0.19582168113E-01 0.  0.
         14    1    1    2    0    0  0.38205112115E-02  0.19162259588E-01 -0.13006427359E-01  0.23472444506E-01  0.00000000000E+00 0.  1.
     999901    1    3    3    0    0 -0.63958415407E-01 -0.11383789177E+00 -0.48676204782E-01  0.89096527284E+00  0.88000000000E+00 0. -1.
        -11    1    4    4    0    0  0.58515042148E-01  0.89750930935E-01  0.53413227086E-01  0.11971830984E+00  0.51100000000E-03 0. -1.
         11    1    4    4    0    0  0.16228620471E-02  0.49247012462E-02  0.82694050550E-02  0.97739728131E-02  0.51100000000E-03 0.  1.
</event>
<event>
 8    1  0.1112958E+005  0.1043930E+01  0.7957747E-01            NaN
         13   -1    0    0    0    0  0.00000000000E+00  0.00000000000E+00  0.74505805969E-08  0.10566000000E+00  0.10566000000E+00 0. -1.
     999900   -1    0    0    0    0 -0.00000000000E+00 -0.00000000000E+00 -0.74505805969E-08  0.93827000000E+00  0.93827000000E+00 0. -1.
     999902    2    1    2    0    0  0.23054229479E-01  0.20621410217E-02  0.35195900620E-02  0.10205176649E+01  0.10202490710E+01 0.  0.
     999903    2    3    3    0    0  0.12061440061E+00  0.17190857356E-02 -0.53408651767E-01  0.13329788972E+00  0.19106397648E-01 0.  0.
         14    1    1    2    0    0 -0.23054229479E-01 -0.20621410217E-02 -0.35195900620E-02  0.23412335139E-01  0.00000000000E+00 0.  1.
     999901    1    3    3    0    0 -0.97560171130E-01  0.34305528613E-03  0.56928241829E-01  0.88721977514E+00  0.88000000000E+00 0.  1.
        -11    1    4    4    0    0  0.61912005471E-01  0.97576834758E-02 -0.31260463495E-01  0.70041319999E-01  0.51100000000E-03 0. -1.
         11    1    4    4    0    0  0.58702395138E-01 -0.80385977403E-02 -0.22148188272E-01  0.63256569724E-01  0.51100000000E-03 0.  1.
</event>
<event>
 8    1  0.1112958E+005  0.1043930E+01  0.7957747E-01            NaN
         13   -1    0    0    0    0  0.00000000000E+00  0.00000000000E+00  0.74505805969E-08  0.10566000000E+00  0.10566000000E+00 0. -1.
     999900   -1    0    0    0    0 -0.00000000000E+00 -0.00000000000E+00 -0.74505805969E-08  0.93827000000E+00  0.93827000000E+00 0. -1.
     999902    2    1    2    0    0 -0.46156596985E-02  0.16677832001E-02  0.22747902417E-01  0.10206587113E+01  0.10203933810E+01 0.  0.
     999903    2    3    3    0    0  0.57673724732E-01 -0.23746399301E-02  0.11828500772E+00  0.13328976483E+00  0.21045686450E-01 0.  0.
         14    1    1    2    0    0  0.46156596985E-02 -0.16677832001E-02 -0.22747902417E-01  0.23271288740E-01  0.00000000000E+00 0.  1.
     999901    1    3    3    0    0 -0.62289384430E-01  0.40424231303E-02 -0.95537105302E-01  0.88736894643E+00  0.88000000000E+00 0. -1.
        -11    1    4    4    0    0  0.29120320934E-01 -0.26229317003E-02  0.82352102265E-01  0.87389946393E-01  0.51100000000E-03 0. -1.
         11    1    4    4    0    0  0.28553403798E-01  0.24829177017E-03  0.35932905454E-01  0.45899818437E-01  0.51100000000E-03 0.  1.
</event>
<event>
 8    1  0.1112958E+005  0.1043930E+01  0.7957747E-01            NaN
         13   -1    0    0    0    0  0.00000000000E+00  0.00000000000E+00  0.74505805969E-08  0.10566000000E+00  0.10566000000E+00 0.  1.
     999900   -1    0    0    0    0 -0.00000000000E+00 -0.00000000000E+00 -0.74505805969E-08  0.93827000000E+00  0.93827000000E+00 0.  1.
     999902    2    1    2    0    0 -0.12597934961E-01 -0.94288019947E-02  0.16439430320E-01  0.10211733495E+01  0.10209197542E+01 0.  0.
     999903    2    3    3    0    0 -0.16387409309E-01 -0.89073650643E-01 -0.92463296194E-01  0.13088268581E+00  0.19446179017E-01 0.  0.
         14    1    1    2    0    0  0.12597934961E-01  0.94288019947E-02 -0.16439430320E-01  0.22756650491E-01  0.00000000000E+00 0. -1.
     999901    1    3    3    0    0  0.37894743482E-02  0.79644848649E-01  0.10890272651E+00  0.89029066370E+00  0.88000000000E+00 0. -1.
        -11    1    4    4    0    0 -0.77475806216E-02 -0.45665142229E-01 -0.60921313596E-01  0.76531025026E-01  0.51100000000E-03 0.  1.
         11    1    4    4    0    0 -0.86398286876E-02 -0.43408508414E-01 -0.31541982598E-01  0.54351660781E-01  0.51100000000E-03 0. -1.
</event>
<event>
 8    1  0.1112958E+005  0.1043930E+01  0.7957747E-01            NaN
         13   -1    0    0    0    0  0.00000000000E+00  0.00000000000E+00  0.74505805969E-08  0.10566000000E+00  0.10566000000E+00 0.  1.
     999900   -1    0    0    0    0 -0.00000000000E+00 -0.00000000000E+00 -0.74505805969E-08  0.93827000000E+00  0.93827000000E+00 0.  1.
     999902    2    1    2    0    0  0.19114322244E-01 -0.10987605922E-01  0.58249806951E-02  0.10211261582E+01  0.10208714982E+01 0.  0.
     999903    2    3    3    0    0 -0.96904498410E-02 -0.12585221152E+00  0.35591908744E-01  0.13269514656E+00  0.20212223771E-01 0.  0.
         14    1    1    2    0    0 -0.19114322244E-01  0.10987605922E-01 -0.58249806951E-02  0.22803841756E-01  0.00000000000E+00 0. -1.
     999901    1    3    3    0    0  0.28804772085E-01  0.11486460560E+00 -0.29766928049E-01  0.88843101168E+00  0.88000000000E+00 0.  1.
        -11    1    4    4    0    0 -0.12742226174E-02 -0.21334054965E-01  0.14237025219E-01  0.25685006377E-01  0.51100000000E-03 0. -1.
         11    1    4    4    0    0 -0.84162272236E-02 -0.10451815656E+00  0.21354883525E-01  0.10701014018E+00  0.51100000000E-03 0.  1.
</event>
<event>
 8    1  0.1112958E+005  0.1043930E+01  0.7957747E-01            NaN
         13   -1    0    0    0    0  0.00000000000E+00  0.00000000000E+00  0.74505805969E-08  0.10566000000E+00  0.10566000000E+00 0. -1.
     999900   -1    0    0    0    0 -0.00000000000E+00 -0.00000000000E+00 -0.74505805969E-08  0.93827000000E+00  0.93827000000E+00 0. -1.
     999902    2    1    2    0    0 -0.11794394250E-01  0.16359329471E-01  0.11628198555E-01  0.10206501719E+01  0.10203846446E+01 0.  0.
     999903    2    3    3    0    0 -0.82432735207E-01  0.98378326370E-01  0.31822047669E-01  0.13378790375E+00  0.20325096259E-01 0.  0.
         14    1    1    2    0    0  0.11794394250E-01 -0.16359329471E-01 -0.11628198555E-01  0.23279828137E-01  0.00000000000E+00 0.  1.
     999901    1    3    3    0    0  0.70638340958E-01 -0.82018996899E-01 -0.20193849114E-01  0.88686226812E+00  0.88000000000E+00 0. -1.
        -11    1    4    4    0    0 -0.48408145329E-01  0.72296748360E-01  0.19306289039E-01  0.89124420195E-01  0.51100000000E-03 0. -1.
         11    1    4    4    0    0 -0.34024589878E-01  0.26081578010E-01  0.12515758630E-01  0.44663483552E-01  0.51100000000E-03 0.  1.
</event>
<event>
 8    1  0.1112958E+005  0.1043930E+01  0.7957747E-01            NaN
         13   -1    0    0    0    0  0.00000000000E+00  0.00000000000E+00  0.74505805969E-08  0.10566000000E+00  0.10566000000E+00 0.  1.
     999900   -1    0    0    0    0 -0.00000000000E+00 -0.00000000000E+00 -0.74505805969E-08  0.93827000000E+00  0.93827000000E+00 0.  1.
     999902    2    1    2    0    0 -0.18235086791E-01  0.15325077003E-01  0.16545866434E-03  0.10201097617E+01  0.10198316146E+01 0.  0.
     999903    2    3    3    0    0 -0.47163695010E-01 -0.11870681213E+00 -0.88655298215E-02  0.12944541953E+00  0.19020979138E-01 0.  0.
         14    1    1    2    0    0  0.18235086791E-01 -0.15325077003E-01 -0.16545866434E-03  0.23820238286E-01  0.00000000000E+00 0. -1.
     999901    1    3    3    0    0  0.28928608219E-01  0.13403188913E+00  0.90309884859E-02  0.89066434218E+00  0.88000000000E+00 0. -1.
        -11    1    4    4    0    0 -0.26672998323E-02 -0.10865361457E-01 -0.60950907151E-02  0.12750757617E-01  0.51100000000E-03 0.  1.
         11    1    4    4    0    0 -0.44496395178E-01 -0.10784145067E+00 -0.27704391064E-02  0.11669466192E+00  0.51100000000E-03 0. -1.
</event>
<event>
 8    1  0.1112958E+005  0.1043930E+01  0.7957747E-01            NaN
         13   -1    0    0    0    0  0.00000000000E+00  0.00000000000E+00  0.74505805969E-08  0.10566000000E+00  0.10566000000E+00 0. -1.
     999900   -1    0    0    0    0 -0.00000000000E+00 -0.00000000000E+00 -0.74505805969E-08  0.93827000000E+00  0.93827000000E+00 0.  1.
     999902    2    1    2    0    0  0.19620751961E-01 -0.13141259361E-01  0.10811353353E-02  0.10202902991E+01  0.10200164013E+01 0.  0.
     999903    2    3    3    0    0  0.56393295317E-01 -0.88331357473E-01 -0.78972230526E-01  0.13270125445E+00  0.19757967198E-01 0.  0.
         14    1    1    2    0    0 -0.19620751961E-01  0.13141259361E-01 -0.10811353353E-02  0.23639700902E-01  0.00000000000E+00 0.  1.
     999901    1    3    3    0    0 -0.36772543355E-01  0.75190098112E-01  0.80053365862E-01  0.88758904465E+00  0.88000000000E+00 0. -1.
        -11    1    4    4    0    0  0.24834386262E-01 -0.30987053006E-01 -0.40752674310E-01  0.56903302008E-01  0.51100000000E-03 0.  1.
         11    1    4    4    0    0  0.31558909054E-01 -0.57344304467E-01 -0.38219556216E-01  0.75797952438E-01  0.51100000000E-03 0. -1.
</event>
<event>
 8    1  0.1112958E+005  0.1043930E+01  0.7957747E-01            NaN
         13   -1    0    0    0    0  0.00000000000E+00  0.00000000000E+00  0.74505805969E-08  0.10566000000E+00  0.10566000000E+00 0.  1.
     999900   -1    0    0    0    0 -0.00000000000E+00 -0.00000000000E+00 -0.74505805969E-08  0.93827000000E+00  0.93827000000E+00 0.  1.
     999902    2    1    2    0    0 -0.17235793100E-01 -0.90805621416E-02 -0.13408342279E-01  0.10202802048E+01  0.10200060703E+01 0.  0.
     999903    2    3    3    0    0  0.43205039474E-01 -0.72126437269E-01  0.95829705075E-01  0.12923540924E+00  0.21202835628E-01 0.  0.
         14    1    1    2    0    0  0.17235793100E-01  0.90805621416E-02  0.13408342279E-01  0.23649795248E-01  0.00000000000E+00 0.  1.
     999901    1    3    3    0    0 -0.60440832574E-01  0.63045875127E-01 -0.10923804735E+00  0.89104479551E+00  0.88000000000E+00 0.  1.
        -11    1    4    4    0    0  0.69336649943E-02 -0.99751812144E-02  0.27197960820E-01  0.29792115472E-01  0.51100000000E-03 0. -1.
         11    1    4    4    0    0  0.36271374479E-01 -0.62151256054E-01  0.68631744255E-01  0.99443293772E-01  0.51100000000E-03 0.  1.
</event>
<event>
 8    1  0.1112958E+005  0.1043930E+01  0.7957747E-01            NaN
         13   -1    0    0    0    0  0.00000000000E+00  0.00000000000E+00  0.74505805969E-08  0.10566000000E+00  0.10566000000E+00 0.  1.
     999900   -1    0    0    0    0 -0.00000000000E+00 -0.00000000000E+00 -0.74505805969E-08  0.93827000000E+00  0.93827000000E+00 0.  1.
     999902    2    1    2    0    0  0.25843900362E-01 -0.70357233487E-02  0.29048337879E-02  0.10169884587E+01  0.10166315352E+01 0.  0.
     999903    2    3    3    0    0  0.78119934565E-01 -0.65093209204E-01 -0.78247889781E-01  0.12980796975E+00  0.19685697690E-01 0.  0.
         14    1    1    2    0    0 -0.25843900362E-01  0.70357233487E-02 -0.29048337879E-02  0.26941541313E-01  0.00000000000E+00 0. -1.
     999901    1    3    3    0    0 -0.52276034202E-01  0.58057485855E-01  0.81152723569E-01  0.88718048894E+00  0.88000000000E+00 0. -1.
        -11    1    4    4    0    0  0.34387807992E-01 -0.16817480043E-01 -0.25631131658E-01  0.46071303483E-01  0.51100000000E-03 0. -1.
         11    1    4    4    0    0  0.43732126572E-01 -0.48275729161E-01 -0.52616758123E-01  0.83736666263E-01  0.51100000000E-03 0.  1.
</event>
<event>
 8    1  0.1112958E+005  0.1043930E+01  0.7957747E-01            NaN
         13   -1    0    0    0    0  0.00000000000E+00  0.00000000000E+00  0.74505805969E-08  0.10566000000E+00  0.10566000000E+00 0. -1.
     999900   -1    0    0    0    0 -0.00000000000E+00 -0.00000000000E+00 -0.74505805969E-08  0.93827000000E+00  0.93827000000E+00 0. -1.
     999902    2    1    2    0    0 -0.97017113863E-02  0.22969664533E-01 -0.17724260217E-02  0.10189325964E+01  0.10186259205E+01 0.  0.
     999903    2    3    3    0    0 -0.18607720713E-01 -0.12276638436E+00  0.15901505761E-01  0.12672708151E+00  0.19724677521E-01 0.  0.
         14    1    1    2    0    0  0.97017113863E-02 -0.22969664533E-01  0.17724260217E-02  0.24997403597E-01  0.00000000000E+00 0.  1.
     999901    1    3    3    0    0  0.89060093266E-02  0.14573604889E+00 -0.17673931782E-01  0.89220551490E+00  0.88000000000E+00 0.  1.
        -11    1    4    4    0    0 -0.66737011677E-02 -0.57598797442E-01  0.17125788597E-01  0.60462496724E-01  0.51100000000E-03 0. -1.
         11    1    4    4    0    0 -0.11934019545E-01 -0.65167586915E-01 -0.12242828363E-02  0.66264584781E-01  0.51100000000E-03 0.  1.
</event>
<event>
 8    1  0.1112958E+005  0.1043930E+01  0.7957747E-01            NaN
         13   -1    0    0    0    0  0.00000000000E+00  0.00000000000E+00  0.74505805969E-08  0.10566000000E+00  0.10566000000E+00 0.  1.
     999900   -1    0    0    0    0 -0.00000000000E+00 -0.00000000000E+00 -0.74505805969E-08  0.93827000000E+00  0.93827000000E+00 0.  1.
     999902    2    1    2    0    0 -0.10781748636E-01 -0.20558296001E-01 -0.20270010492E-02  0.10206276746E+01  0.10203616279E+01 0.  0.
     999903    2    3    3    0    0  0.38433385882E-01 -0.95583334885E-01  0.80376221580E-01  0.13223520665E+00  0.20310436327E-01 0.  0.
         14    1    1    2    0    0  0.10781748636E-01  0.20558296001E-01  0.20270010492E-02  0.23302325450E-01  0.00000000000E+00 0.  1.
     999901    1    3    3    0    0 -0.49215134517E-01  0.75025038884E-01 -0.82403222629E-01  0.88839246790E+00  0.88000000000E+00 0.  1.
        -11    1    4    4    0    0  0.11672336081E-01 -0.56078012086E-01  0.43360896110E-01  0.71842990623E-01  0.51100000000E-03 0.  1.
         11    1    4    4    0    0  0.26761049800E-01 -0.39505322799E-01  0.37015325470E-01  0.60392216026E-01  0.51100000000E-03 0. -1.
</event>
<event>
 8    1  0.1112958E+005  0.1043930E+01  0.7957747E-01            NaN
         13   -1    0    0    0    0  0.00000000000E+00  0.00000000000E+00  0.74505805969E-08  0.10566000000E+00  0.10566000000E+00 0.  1.
     999900   -1    0    0    0    0 -0.00000000000E+00 -0.00000000000E+00 -0.74505805969E-08  0.93827000000E+00  0.93827000000E+00 0.  1.
     999902    2    1    2    0    0 -0.54259305948E-02 -0.21298812771E-01 -0.19845475754E-02  0.10218615026E+01  0.10216231751E+01 0.  0.
     999903    2    3    3    0    0  0.22844530701E-01  0.92842436378E-01 -0.85971420646E-01  0.13007608077E+00  0.19675137771E-01 0.  0.
         14    1    1    2    0    0  0.54259305948E-02  0.21298812771E-01  0.19845475754E-02  0.22068497396E-01  0.00000000000E+00 0.  1.
     999901    1    3    3    0    0 -0.28270461296E-01 -0.11414124915E+00  0.83986873070E-01  0.89178542183E+00  0.88000000000E+00 0. -1.
        -11    1    4    4    0    0  0.10092713800E-01  0.74415125053E-01 -0.68661169926E-01  0.10175505435E+00  0.51100000000E-03 0. -1.
         11    1    4    4    0    0  0.12751816901E-01  0.18427311325E-01 -0.17310250719E-01  0.28321026428E-01  0.51100000000E-03 0.  1.
</event>
<event>
 8    1  0.1112958E+005  0.1043930E+01  0.7957747E-01            NaN
         13   -1    0    0    0    0  0.00000000000E+00  0.00000000000E+00  0.74505805969E-08  0.10566000000E+00  0.10566000000E+00 0. -1.
     999900   -1    0    0    0    0 -0.00000000000E+00 -0.00000000000E+00 -0.74505805969E-08  0.93827000000E+00  0.93827000000E+00 0. -1.
     999902    2    1    2    0    0  0.11712753657E-01 -0.10868140764E-01  0.20226929821E-01  0.10181533871E+01  0.10178270413E+01 0.  0.
     999903    2    3    3    0    0  0.11933429791E+00 -0.66067471868E-02 -0.45007991518E-01  0.12918986074E+00  0.19493000062E-01 0.  0.
         14    1    1    2    0    0 -0.11712753657E-01  0.10868140764E-01 -0.20226929821E-01  0.25776612886E-01  0.00000000000E+00 0.  1.
     999901    1    3    3    0    0 -0.10762154425E+00 -0.42613935768E-02  0.65234921339E-01  0.88896352637E+00  0.88000000000E+00 0.  1.
        -11    1    4    4    0    0  0.10860793333E+00 -0.45375378039E-02 -0.34560887268E-01  0.11406572001E+00  0.51100000000E-03 0.  1.
         11    1    4    4    0    0  0.10726364575E-01 -0.20692093829E-02 -0.10447104251E-01  0.15124140725E-01  0.51100000000E-03 0. -1.
</event>
<event>
 8    1  0.1112958E+005  0.1043930E+01  0.7957747E-01            NaN
         13   -1    0    0    0    0  0.00000000000E+00  0.00000000000E+00  0.74505805969E-08  0.10566000000E+00  0.10566000000E+00 0. -1.
     999900   -1    0    0    0    0 -0.00000000000E+00 -0.00000000000E+00 -0.74505805969E-08  0.93827000000E+00  0.93827000000E+00 0.  1.
     999902    2    1    2    0    0 -0.77808981467E-02 -0.25709502016E-01  0.35558912308E-02  0.10168345164E+01  0.10164734470E+01 0.  0.
     999903    2    3    3    0    0  0.95295862812E-01  0.20980555971E-02  0.81884519257E-01  0.12692808710E+00  0.17887467542E-01 0.  0.
         14    1    1    2    0    0  0.77808981467E-02  0.25709502016E-01 -0.35558912308E-02  0.27095483615E-01  0.00000000000E+00 0. -1.
     999901    1    3    3    0    0 -0.10307676096E+00 -0.27807557613E-01 -0.78328628026E-01  0.88990642928E+00  0.88000000000E+00 0.  1.
        -11    1    4    4    0    0  0.58330150763E-01  0.17530269934E-02  0.61198350192E-01  0.84563460069E-01  0.51100000000E-03 0.  1.
         11    1    4    4    0    0  0.36965712049E-01  0.34502860370E-03  0.20686169065E-01  0.42364627033E-01  0.51100000000E-03 0. -1.
</event>
<event>
 8    1  0.1112958E+005  0.1043930E+01  0.7957747E-01            NaN
         13   -1    0    0    0    0  0.00000000000E+00  0.00000000000E+00  0.74505805969E-08  0.10566000000E+00  0.10566000000E+00 0.  1.
     999900   -1    0    0    0    0 -0.00000000000E+00 -0.00000000000E+00 -0.74505805969E-08  0.93827000000E+00  0.93827000000E+00 0.  1.
     999902    2    1    2    0    0  0.10297703026E-01  0.11816902918E-01  0.16938970064E-01  0.10208516424E+01  0.10205907433E+01 0.  0.
     999903    2    3    3    0    0 -0.11023652867E+00 -0.46394719617E-01  0.49720367031E-01  0.13012625600E+00  0.12496613205E-01 0.  0.
         14    1    1    2    0    0 -0.10297703026E-01 -0.11816902918E-01 -0.16938970064E-01  0.23078357589E-01  0.00000000000E+00 0. -1.
     999901    1    3    3    0    0  0.12053423170E+00  0.58211622535E-01 -0.32781396967E-01  0.89072538641E+00  0.88000000000E+00 0.  1.
        -11    1    4    4    0    0 -0.41106962434E-01 -0.19832589552E-01  0.25052246694E-01  0.52067169640E-01  0.51100000000E-03 0.  1.
         11    1    4    4    0    0 -0.69129566235E-01 -0.26562130064E-01  0.24668120337E-01  0.78059086360E-01  0.51100000000E-03 0. -1.
</event>
<event>
 8    1  0.1112958E+005  0.1043930E+01  0.7957747E-01            NaN
         13   -1    0    0    0    0  0.00000000000E+00  0.00000000000E+00  0.74505805969E-08  0.10566000000E+00  0.10566000000E+00 0. -1.
     999900   -1    0    0    0    0 -0.00000000000E+00 -0.00000000000E+00 -0.74505805969E-08  0.93827000000E+00  0.93827000000E+00 0. -1.
     999902    2    1    2    0    0  0.81847173398E-02 -0.22671591196E-02 -0.22123916020E-01  0.10202319564E+01  0.10199566891E+01 0.  0.
     999903    2    3    3    0    0  0.37572266556E-01  0.21489414020E-01 -0.12458385395E+00  0.13348168624E+00  0.20560976850E-01 0.  0.
         14    1    1    2    0    0 -0.81847173398E-02  0.22671591196E-02  0.22123916020E-01  0.23698043557E-01  0.00000000000E+00 0. -1.
     999901    1    3    3    0    0 -0.29387549216E-01 -0.23756573140E-01  0.10245993793E+00  0.88675027020E+00  0.88000000000E+00 0.  1.
        -11    1    4    4    0    0  0.31816193591E-01  0.90173043169E-02 -0.73830590197E-01  0.80899932766E-01  0.51100000000E-03 0.  1.
         11    1    4    4    0    0  0.57560729644E-02  0.12472109703E-01 -0.50753263751E-01  0.52581753478E-01  0.51100000000E-03 0. -1.
</event>
<event>
 8    1  0.1112958E+005  0.1043930E+01  0.7957747E-01            NaN
         13   -1    0    0    0    0  0.00000000000E+00  0.00000000000E+00  0.74505805969E-08  0.10566000000E+00  0.10566000000E+00 0.  1.
     999900   -1    0    0    0    0 -0.00000000000E+00 -0.00000000000E+00 -0.74505805969E-08  0.93827000000E+00  0.93827000000E+00 0. -1.
     999902    2    1    2    0    0 -0.13558706777E-01 -0.18023379465E-01 -0.93532144146E-02  0.10195135433E+01  0.10192211250E+01 0.  0.
     999903    2    3    3    0    0 -0.97350674306E-01  0.41439789422E-01  0.72329236137E-01  0.12977819784E+00  0.20407162926E-01 0.  0.
         14    1    1    2    0    0  0.13558706777E-01  0.18023379465E-01  0.93532144146E-02  0.24416456678E-01  0.00000000000E+00 0.  1.
     999901    1    3    3    0    0  0.83791967529E-01 -0.59463168887E-01 -0.81682450551E-01  0.88973534548E+00  0.88000000000E+00 0. -1.
        -11    1    4    4    0    0 -0.28157041199E-01  0.21088859225E-01  0.18283235677E-01  0.39649675665E-01  0.51100000000E-03 0.  1.
         11    1    4    4    0    0 -0.69193633107E-01  0.20350930198E-01  0.54046000459E-01  0.90128522173E-01  0.51100000000E-03 0. -1.
</event>
<event>
 8    1  0.1112958E+005  0.1043930E+01  0.7957747E-01            NaN
         13   -1    0    0    0    0  0.00000000000E+00  0.00000000000E+00  0.74505805969E-08  0.10566000000E+00  0.10566000000E+00 0.  1.
     999900   -1    0    0    0    0 -0.00000000000E+00 -0.00000000000E+00 -0.74505805969E-08  0.93827000000E+00  0.93827000000E+00 0.  1.
     999902    2    1    2    0    0  0.77095728252E-02  0.19087794229E-01 -0.11445873989E-01  0.10203760315E+01  0.10201041399E+01 0.  0.
     999903    2    3    3    0    0  0.10875781169E+00 -0.60700663765E-01  0.31386543720E-01  0.12997636806E+00  0.19897460744E-01 0.  0.
         14    1    1    2    0    0 -0.77095728252E-02 -0.19087794229E-01  0.11445873989E-01  0.23553968520E-01  0.00000000000E+00 0.  1.
     999901    1    3    3    0    0 -0.10104823886E+00  0.79788457994E-01 -0.42832417709E-01  0.89039966342E+00  0.88000000000E+00 0.  1.
        -11    1    4    4    0    0  0.65920152165E-01 -0.46073885072E-01  0.25224742099E-01  0.84290082940E-01  0.51100000000E-03 0.  1.
         11    1    4    4    0    0  0.42837659520E-01 -0.14626778693E-01  0.61618016212E-02  0.45686285122E-01  0.51100000000E-03 0. -1.
</event>
<event>
 8    1  0.1112958E+005  0.1043930E+01  0.7957747E-01            NaN
         13   -1    0    0    0    0  0.00000000000E+00  0.00000000000E+00  0.74505805969E-08  0.10566000000E+00  0.10566000000E+00 0. -1.
     999900   -1    0    0    0    0 -0.00000000000E+00 -0.00000000000E+00 -0.74505805969E-08  0.93827000000E+00  0.93827000000E+00 0.  1.
     999902    2    1    2    0    0 -0.30013568205E-02 -0.21745626726E-01 -0.79739744349E-02  0.10205748144E+01  0.10203075454E+01 0.  0.
     999903    2    3    3    0    0 -0.73652760783E-01 -0.10929442452E+00  0.28910867930E-02  0.13334628557E+00  0.20071698749E-01 0.  0.
         14    1    1    2    0    0  0.30013568205E-02  0.21745626726E-01  0.79739744349E-02  0.23355185565E-01  0.00000000000E+00 0. -1.
     999901    1    3    3    0    0  0.70651403963E-01  0.87548797792E-01 -0.10865061228E-01  0.88722852887E+00  0.88000000000E+00 0. -1.
        -11    1    4    4    0    0 -0.36588552898E-01 -0.70200026273E-01  0.59336405032E-02  0.79386617906E-01  0.51100000000E-03 0. -1.
         11    1    4    4    0    0 -0.37064207886E-01 -0.39094398245E-01 -0.30425537102E-02  0.53959667664E-01  0.51100000000E-03 0.  1.
</event>
<event>
 8    1  0.1112958E+005  0.1043930E+01  0.7957747E-01            NaN
         13   -1    0    0    0    0  0.00000000000E+00  0.00000000000E+00  0.74505805969E-08  0.10566000000E+00  0.10566000000E+00 0.  1.
     999900   -1    0    0    0    0 -0.00000000000E+00 -0.00000000000E+00 -0.74505805969E-08  0.93827000000E+00  0.93827000000E+00 0.  1.
     999902    2    1    2    0    0 -0.57852079978E-02 -0.12316378504E-01 -0.18754205111E-01  0.10207592853E+01  0.10204962697E+01 0.  0.
     999903    2    3    3    0    0  0.37031495571E-01  0.89400131771E-01  0.81478281672E-01  0.12822017131E+00  0.20928132311E-01 0.  0.
         14    1    1    2    0    0  0.57852079978E-02  0.12316378504E-01  0.18754205111E-01  0.23170714715E-01  0.00000000000E+00 0.  1.
     999901    1    3    3    0    0 -0.42816703568E-01 -0.10171651027E+00 -0.10023248678E+00  0.89253911397E+00  0.88000000000E+00 0. -1.
        -11    1    4    4    0    0  0.17035107981E-01  0.25094366393E-01  0.16021149785E-01  0.34305400304E-01  0.51100000000E-03 0. -1.
         11    1    4    4    0    0  0.19996387589E-01  0.64305765377E-01  0.65457131887E-01  0.93914771007E-01  0.51100000000E-03 0.  1.
</event>
<event>
 8    1  0.1112958E+005  0.1043930E+01  0.7957747E-01            NaN
         13   -1    0    0    0    0  0.00000000000E+00  0.00000000000E+00  0.74505805969E-08  0.10566000000E+00  0.10566000000E+00 0. -1.
     999900   -1    0    0    0    0 -0.00000000000E+00 -0.00000000000E+00 -0.74505805969E-08  0.93827000000E+00  0.93827000000E+00 0.  1.
     999902    2    1    2    0    0  0.20075127918E-01  0.97527843013E-02 -0.85842687175E-02  0.10200172998E+01  0.10197369634E+01 0.  0.
     999903    2    3    3    0    0  0.10219210955E+00 -0.66210745833E-01 -0.46880110981E-01  0.13210951846E+00  0.20690334568E-01 0.  0.
         14    1    1    2    0    0 -0.20075127918E-01 -0.97527843013E-02  0.85842687175E-02  0.23912700224E-01  0.00000000000E+00 0. -1.
     999901    1    3    3    0    0 -0.82116981633E-01  0.75963530135E-01  0.38295842264E-01  0.88790778131E+00  0.88000000000E+00 0. -1.
        -11    1    4    4    0    0  0.71197493085E-01 -0.34413822946E-01 -0.28745573368E-01  0.84142518031E-01  0.51100000000E-03 0. -1.
         11    1    4    4    0    0  0.30994616466E-01 -0.31796922887E-01 -0.18134537614E-01  0.47967000432E-01  0.51100000000E-03 0.  1.
</event>
<event>
 8    1  0.1112958E+005  0.1043930E+01  0.7957747E-01            NaN
         13   -1    0    0    0    0  0.00000000000E+00  0.00000000000E+00  0.74505805969E-08  0.10566000000E+00  0.10566000000E+00 0. -1.
     999900   -1    0    0    0    0 -0.00000000000E+00 -0.00000000000E+00 -0.74505805969E-08  0.93827000000E+00  0.93827000000E+00 0. -1.
     999902    2    1    2    0    0 -0.18218820213E-01  0.18587580842E-03 -0.15984628707E-01  0.10196922543E+01  0.10194041521E+01 0.  0.
     999903    2    3    3    0    0 -0.11228848567E+00 -0.60566938577E-01  0.25370780081E-01  0.13163241612E+00  0.20158334007E-01 0.  0.
         14    1    1    2    0    0  0.18218820213E-01 -0.18587580842E-03  0.15984628707E-01  0.24237745660E-01  0.00000000000E+00 0. -1.
     999901    1    3    3    0    0  0.94069665458E-01  0.60752814385E-01 -0.41355408789E-01  0.88805983822E+00  0.88000000000E+00 0. -1.
        -11    1    4    4    0    0 -0.68489008181E-01 -0.46348224060E-01  0.21313648716E-01  0.85401609222E-01  0.51100000000E-03 0. -1.
         11    1    4    4    0    0 -0.43799477491E-01 -0.14218714517E-01  0.40571313654E-02  0.46230806903E-01  0.51100000000E-03 0.  1.
</event>
<event>
 8    1  0.1112958E+005  0.1043930E+01  0.7957747E-01            NaN
         13   -1    0    0    0    0  0.00000000000E+00  0.00000000000E+00  0.74505805969E-08  0.10566000000E+00  0.10566000000E+00 0. -1.
     999900   -1    0    0    0    0 -0.00000000000E+00 -0.00000000000E+00 -0.74505805969E-08  0.93827000000E+00  0.93827000000E+00 0.  1.
     999902    2    1    2    0    0 -0.16176307203E-01 -0.11059126806E-01  0.91661143275E-02  0.10222968113E+01  0.10220678919E+01 0.  0.
     999903    2    3    3    0    0 -0.16829127044E-01  0.10869019643E+00 -0.67984971653E-01  0.13084147500E+00  0.20018913396E-01 0.  0.
         14    1    1    2    0    0  0.16176307203E-01  0.11059126806E-01 -0.91661143275E-02  0.21633188676E-01  0.00000000000E+00 0.  1.
     999901    1    3    3    0    0  0.65281984058E-03 -0.11974932323E+00  0.77151085980E-01  0.89145533632E+00  0.88000000000E+00 0.  1.
        -11    1    4    4    0    0 -0.13788856055E-02  0.18686001218E-02 -0.58153526832E-02  0.62827095873E-02  0.51100000000E-03 0. -1.
         11    1    4    4    0    0 -0.15450241438E-01  0.10682159631E+00 -0.62169618969E-01  0.12455876541E+00  0.51100000000E-03 0.  1.
</event>
<event>
 8    1  0.1112958E+005  0.1043930E+01  0.7957747E-01            NaN
         13   -1    0    0    0    0  0.00000000000E+00  0.00000000000E+00  0.74505805969E-08  0.10566000000E+00  0.10566000000E+00 0. -1.
     999900   -1    0    0    0    0 -0.00000000000E+00 -0.00000000000E+00 -0.74505805969E-08  0.93827000000E+00  0.93827000000E+00 0. -1.
     999902    2    1    2    0    0 -0.39673623253E-02 -0.88715418010E-03  0.22909007000E-01  0.10206630791E+01  0.10203978496E+01 0.  0.
     999903    2    3    3    0    0  0.87282414162E-01 -0.78560585487E-01 -0.50784954236E-01  0.12948942399E+00  0.19960308985E-01 0.  0.
         14    1    1    2    0    0  0.39673623253E-02  0.88715418010E-03 -0.22909007000E-01  0.23266920898E-01  0.00000000000E+00 0.  1.
     999901    1    3    3    0    0 -0.91249776488E-01  0.77673431307E-01  0.73693961236E-01  0.89117365511E+00  0.88000000000E+00 0.  1.
        -11    1    4    4    0    0  0.57401160824E-01 -0.63566734291E-01 -0.35229960058E-01  0.92612278770E-01  0.51100000000E-03 0. -1.
         11    1    4    4    0    0  0.29881253339E-01 -0.14993851196E-01 -0.15554994177E-01  0.36877145221E-01  0.51100000000E-03 0.  1.
</event>
<event>
 8    1  0.1112958E+005  0.1043930E+01  0.7957747E-01            NaN
         13   -1    0    0    0    0  0.00000000000E+00  0.00000000000E+00  0.74505805969E-08  0.10566000000E+00  0.10566000000E+00 0.  1.
     999900   -1    0    0    0    0 -0.00000000000E+00 -0.00000000000E+00 -0.74505805969E-08  0.93827000000E+00  0.93827000000E+00 0.  1.
     999902    2    1    2    0    0  0.24952366199E-01  0.63555867227E-02 -0.62740039471E-02  0.10174276004E+01  0.10170823687E+01 0.  0.
     999903    2    3    3    0    0 -0.54132172098E-01 -0.91460103642E-01  0.64077779936E-01  0.12570362570E+00  0.20004924834E-01 0.  0.
         14    1    1    2    0    0 -0.24952366199E-01 -0.63555867227E-02  0.62740039471E-02  0.26502399647E-01  0.00000000000E+00 0.  1.
     999901    1    3    3    0    0  0.79084538297E-01  0.97815690365E-01 -0.70351783883E-01  0.89172397466E+00  0.88000000000E+00 0.  1.
        -11    1    4    4    0    0 -0.31489962695E-01 -0.33816711791E-01  0.27717309497E-01  0.53885973255E-01  0.51100000000E-03 0.  1.
         11    1    4    4    0    0 -0.22642209403E-01 -0.57643391851E-01  0.36360470440E-01  0.71817652443E-01  0.51100000000E-03 0. -1.
</event>
<event>
 8    1  0.1112958E+005  0.1043930E+01  0.7957747E-01            NaN
         13   -1    0    0    0    0  0.00000000000E+00  0.00000000000E+00  0.74505805969E-08  0.10566000000E+00  0.10566000000E+00 0. -1.
     999900   -1    0    0    0    0 -0.00000000000E+00 -0.00000000000E+00 -0.74505805969E-08  0.93827000000E+00  0.93827000000E+00 0. -1.
     999902    2    1    2    0    0  0.14549016240E-02 -0.19601741977E-01  0.85048286858E-02  0.10225132510E+01  0.10222889373E+01 0.  0.
     999903    2    3    3    0    0 -0.10221888646E+00 -0.76432065675E-01  0.36151391291E-01  0.13417644974E+00  0.20145350810E-01 0.  0.
         14    1    1    2    0    0 -0.14549016240E-02  0.19601741977E-01 -0.85048286858E-02  0.21416749012E-01  0.00000000000E+00 0.  1.
     999901    1    3    3    0    0  0.10367378809E+00  0.56830323698E-01 -0.27646562605E-01  0.88833680125E+00  0.88000000000E+00 0. -1.
        -11    1    4    4    0    0 -0.47396348555E-01 -0.23112728269E-01  0.15246958079E-01  0.54893924218E-01  0.51100000000E-03 0.  1.
         11    1    4    4    0    0 -0.54822537909E-01 -0.53319337407E-01  0.20904433212E-01  0.79282525522E-01  0.51100000000E-03 0. -1.
</event>
<event>
 8    1  0.1112958E+005  0.1043930E+01  0.7957747E-01            NaN
         13   -1    0    0    0    0  0.00000000000E+00  0.00000000000E+00  0.74505805969E-08  0.10566000000E+00  0.10566000000E+00 0. -1.
     999900   -1    0    0    0    0 -0.00000000000E+00 -0.00000000000E+00 -0.74505805969E-08  0.93827000000E+00  0.93827000000E+00 0. -1.
     999902    2    1    2    0    0 -0.22220116977E-01 -0.41957242750E-02 -0.64718725350E-02  0.10204093105E+01  0.10201381956E+01 0.  0.
     999903    2    3    3    0    0 -0.12676329249E+00 -0.37136044152E-01  0.39278951968E-02  0.13354827550E+00  0.19279404327E-01 0.  0.
         14    1    1    2    0    0  0.22220116977E-01  0.41957242750E-02  0.64718725350E-02  0.23520689505E-01  0.00000000000E+00 0. -1.
     999901    1    3    3    0    0  0.10454317551E+00  0.32940319877E-01 -0.10399767732E-01  0.88686103499E+00  0.88000000000E+00 0.  1.
        -11    1    4    4    0    0 -0.12176876391E-01 -0.85940262477E-02  0.40742073881E-02  0.15459427306E-01  0.51100000000E-03 0.  1.
         11    1    4    4    0    0 -0.11458641610E+00 -0.28542017905E-01 -0.14631219130E-03  0.11808884820E+00  0.51100000000E-03 0. -1.
</event>
<event>
 8    1  0.1112958E+005  0.1043930E+01  0.7957747E-01            NaN
         13   -1    0    0    0    0  0.00000000000E+00  0.00000000000E+00  0.74505805969E-08  0.10566000000E+00  0.10566000000E+00 0. -1.
     999900   -1    0    0    0    0 -0.00000000000E+00 -0.00000000000E+00 -0.74505805969E-08  0.93827000000E+00  0.93827000000E+00 0. -1.
     999902    2    1    2    0    0 -0.23325222349E-01  0.40514283450E-02 -0.27148706531E-02  0.10201003841E+01  0.10198220154E+01 0.  0.
     999903    2    3    3    0    0  0.73721017459E-01  0.35916551993E-01 -0.97464728271E-01  0.12913972604E+00  0.21281646145E-01 0.  0.
         14    1    1    2    0    0  0.23325222349E-01 -0.40514283450E-02  0.27148706531E-02  0.23829615858E-01  0.00000000000E+00 0. -1.
     999901    1    3    3    0    0 -0.97046239808E-01 -0.31865123648E-01  0.94749857618E-01  0.89096065810E+00  0.88000000000E+00 0.  1.
        -11    1    4    4    0    0  0.32983103024E-01  0.12872510128E-01 -0.26927186223E-01  0.44485065820E-01  0.51100000000E-03 0.  1.
         11    1    4    4    0    0  0.40737914435E-01  0.23044041865E-01 -0.70537542048E-01  0.84654660221E-01  0.51100000000E-03 0. -1.
</event>
<event>
 8    1  0.1112958E+005  0.1043930E+01  0.7957747E-01            NaN
         13   -1    0    0    0    0  0.00000000000E+00  0.00000000000E+00  0.74505805969E-08  0.10566000000E+00  0.10566000000E+00 0. -1.
     999900   -1    0    0    0    0 -0.00000000000E+00 -0.00000000000E+00 -0.74505805969E-08  0.93827000000E+00  0.93827000000E+00 0.  1.
     999902    2    1    2    0    0 -0.17200880285E-01  0.14864136071E-01 -0.29364352410E-02  0.10210076206E+01  0.10207502760E+01 0.  0.
     999903    2    3    3    0    0  0.20911733413E-02 -0.12116773567E+00 -0.41039047971E-01  0.12953206710E+00  0.20207913670E-01 0.  0.
         14    1    1    2    0    0  0.17200880285E-01 -0.14864136071E-01  0.29364352410E-02  0.22922379363E-01  0.00000000000E+00 0. -1.
     999901    1    3    3    0    0 -0.19292053627E-01  0.13603187174E+00  0.38102612730E-01  0.89147555354E+00  0.88000000000E+00 0.  1.
        -11    1    4    4    0    0  0.11093673218E-01 -0.75009848081E-01 -0.25608319432E-01  0.80034955111E-01  0.51100000000E-03 0.  1.
         11    1    4    4    0    0 -0.90024998769E-02 -0.46157887589E-01 -0.15430728539E-01  0.49497111986E-01  0.51100000000E-03 0. -1.
</event>
<event>
 8    1  0.1112958E+005  0.1043930E+01  0.7957747E-01            NaN
         13   -1    0    0    0    0  0.00000000000E+00  0.00000000000E+00  0.74505805969E-08  0.10566000000E+00  0.10566000000E+00 0. -1.
     999900   -1    0    0    0    0 -0.00000000000E+00 -0.00000000000E+00 -0.74505805969E-08  0.93827000000E+00  0.93827000000E+00 0.  1.
     999902    2    1    2    0    0 -0.20227733003E-01 -0.43732587815E-02 -0.11753529412E-01  0.10201301675E+01  0.10198525024E+01 0.  0.
     999903    2    3    3    0    0 -0.11070964013E+00  0.55074290453E-01 -0.44901048219E-01  0.13287612007E+00  0.18712489599E-01 0.  0.
         14    1    1    2    0    0  0.20227733003E-01  0.43732587815E-02  0.11753529412E-01  0.23799832530E-01  0.00000000000E+00 0.  1.
     999901    1    3    3    0    0  0.90481907125E-01 -0.59447549234E-01  0.33147518807E-01  0.88725404740E+00  0.88000000000E+00 0. -1.
        -11    1    4    4    0    0 -0.65746746167E-01  0.42688388692E-01 -0.26787843796E-01  0.82841914855E-01  0.51100000000E-03 0. -1.
         11    1    4    4    0    0 -0.44962893962E-01  0.12385901761E-01 -0.18113204423E-01  0.50034205213E-01  0.51100000000E-03 0.  1.
</event>
<event>
 8    1  0.1112958E+005  0.1043930E+01  0.7957747E-01            NaN
         13   -1    0    0    0    0  0.00000000000E+00  0.00000000000E+00  0.74505805969E-08  0.10566000000E+00  0.10566000000E+00 0. -1.
     999900   -1    0    0    0    0 -0.00000000000E+00 -0.00000000000E+00 -0.74505805969E-08  0.93827000000E+00  0.93827000000E+00 0. -1.
     999902    2    1    2    0    0  0.13675207502E-01  0.12679399942E-01 -0.14079987842E-01  0.10205628320E+01  0.10202952854E+01 0.  0.
     999903    2    3    3    0    0 -0.25045450124E-01 -0.53837878339E-01  0.11189874429E+00  0.12826552807E+00  0.20122748354E-01 0.  0.
         14    1    1    2    0    0 -0.13675207502E-01 -0.12679399942E-01  0.14079987842E-01  0.23367168008E-01  0.00000000000E+00 0. -1.
     999901    1    3    3    0    0  0.38720657626E-01  0.66517278281E-01 -0.12597873213E+00  0.89229730392E+00  0.88000000000E+00 0.  1.
        -11    1    4    4    0    0 -0.13012676940E-01 -0.29279134921E-01  0.80384675523E-01  0.86536435579E-01  0.51100000000E-03 0. -1.
         11    1    4    4    0    0 -0.12032773184E-01 -0.24558743419E-01  0.31514068767E-01  0.41729092490E-01  0.51100000000E-03 0.  1.
</event>
<event>
 8    1  0.1112958E+005  0.1043930E+01  0.7957747E-01            NaN
         13   -1    0    0    0    0  0.00000000000E+00  0.00000000000E+00  0.74505805969E-08  0.10566000000E+00  0.10566000000E+00 0. -1.
     999900   -1    0    0    0    0 -0.00000000000E+00 -0.00000000000E+00 -0.74505805969E-08  0.93827000000E+00  0.93827000000E+00 0. -1.
     999902    2    1    2    0    0 -0.17107586833E-01  0.41742355764E-02 -0.18859524957E-01  0.10181273751E+01  0.10178003618E+01 0.  0.
     999903    2    3    3    0    0 -0.78147005579E-01 -0.10109237365E+00  0.40596840474E-02  0.12945861803E+00  0.20406622853E-01 0.  0.
         14    1    1    2    0    0  0.17107586833E-01 -0.41742355764E-02  0.18859524957E-01  0.25802624896E-01  0.00000000000E+00 0. -1.
     999901    1    3    3    0    0  0.61039418746E-01  0.10526660923E+00 -0.22919209005E-01  0.88866875707E+00  0.88000000000E+00 0.  1.
        -11    1    4    4    0    0 -0.55193784989E-01 -0.57815962202E-01  0.78796024186E-02  0.80320536864E-01  0.51100000000E-03 0.  1.
         11    1    4    4    0    0 -0.22953220590E-01 -0.43276411448E-01 -0.38199183712E-02  0.49138081166E-01  0.51100000000E-03 0. -1.
</event>
<event>
 8    1  0.1112958E+005  0.1043930E+01  0.7957747E-01            NaN
         13   -1    0    0    0    0  0.00000000000E+00  0.00000000000E+00  0.74505805969E-08  0.10566000000E+00  0.10566000000E+00 0.  1.
     999900   -1    0    0    0    0 -0.00000000000E+00 -0.00000000000E+00 -0.74505805969E-08  0.93827000000E+00  0.93827000000E+00 0. -1.
     999902    2    1    2    0    0 -0.11760478345E-01  0.15693400239E-03  0.20613335810E-01  0.10201972570E+01  0.10199211734E+01 0.  0.
     999903    2    3    3    0    0 -0.11452147007E+00  0.36645356891E-01 -0.42039466513E-01  0.13125597652E+00  0.31666470263E-01 0.  0.
         14    1    1    2    0    0  0.11760478345E-01 -0.15693400239E-03 -0.20613335810E-01  0.23732743044E-01  0.00000000000E+00 0. -1.
     999901    1    3    3    0    0  0.10276099172E+00 -0.36488422888E-01  0.62652802323E-01  0.88894128044E+00  0.88000000000E+00 0.  1.
        -11    1    4    4    0    0 -0.35725679414E-01  0.24574791646E-02 -0.25030146233E-01  0.43693623275E-01  0.51100000000E-03 0. -1.
         11    1    4    4    0    0 -0.78795790655E-01  0.34187877726E-01 -0.17009320280E-01  0.87562353245E-01  0.51100000000E-03 0.  1.
</event>
<event>
 8    1  0.1112958E+005  0.1043930E+01  0.7957747E-01            NaN
         13   -1    0    0    0    0  0.00000000000E+00  0.00000000000E+00  0.74505805969E-08  0.10566000000E+00  0.10566000000E+00 0. -1.
     999900   -1    0    0    0    0 -0.00000000000E+00 -0.00000000000E+00 -0.74505805969E-08  0.93827000000E+00  0.93827000000E+00 0. -1.
     999902    2    1    2    0    0 -0.92179417507E-02  0.57603514690E-02 -0.21150322822E-01  0.10201500031E+01  0.10198728060E+01 0.  0.
     999903    2    3    3    0    0  0.12186276646E-01  0.86973464653E-01  0.92222586065E-01  0.12891090675E+00  0.20003189899E-01 0.  0.
         14    1    1    2    0    0  0.92179417507E-02 -0.57603514690E-02  0.21150322822E-01  0.23779996943E-01  0.00000000000E+00 0. -1.
     999901    1    3    3    0    0 -0.21404218397E-01 -0.81213113184E-01 -0.11337290889E+00  0.89123909631E+00  0.88000000000E+00 0. -1.
        -11    1    4    4    0    0 -0.37230025037E-02  0.38808995458E-01  0.34456845478E-01  0.52033971571E-01  0.51100000000E-03 0.  1.
         11    1    4    4    0    0  0.15909279150E-01  0.48164469194E-01  0.57765740587E-01  0.76876935178E-01  0.51100000000E-03 0. -1.
</event>
<event>
 8    1  0.1112958E+005  0.1043930E+01  0.7957747E-01            NaN
         13   -1    0    0    0    0  0.00000000000E+00  0.00000000000E+00  0.74505805969E-08  0.10566000000E+00  0.10566000000E+00 0.  1.
     999900   -1    0    0    0    0 -0.00000000000E+00 -0.00000000000E+00 -0.74505805969E-08  0.93827000000E+00  0.93827000000E+00 0.  1.
     999902    2    1    2    0    0  0.45821766217E-02 -0.21921600491E-01  0.87657648033E-02  0.10198802278E+01  0.10195966298E+01 0.  0.
     999903    2    3    3    0    0  0.34027706050E-01 -0.84901506712E-01  0.94310928531E-01  0.13300285023E+00  0.20713674428E-01 0.  0.
         14    1    1    2    0    0 -0.45821766217E-02  0.21921600491E-01 -0.87657648033E-02  0.24049772209E-01  0.00000000000E+00 0.  1.
     999901    1    3    3    0    0 -0.29445529428E-01  0.62979906220E-01 -0.85545163728E-01  0.88687737756E+00  0.88000000000E+00 0.  1.
        -11    1    4    4    0    0  0.16183193783E-01 -0.38453019234E-01  0.57793563578E-01  0.71280344845E-01  0.51100000000E-03 0. -1.
         11    1    4    4    0    0  0.17844512267E-01 -0.46448487477E-01  0.36517364953E-01  0.61722505386E-01  0.51100000000E-03 0.  1.
</event>
<event>
 8    1  0.1112958E+005  0.1043930E+01  0.7957747E-01            NaN
         13   -1    0    0    0    0  0.00000000000E+00  0.00000000000E+00  0.74505805969E-08  0.10566000000E+00  0.10566000000E+00 0. -1.
     999900   -1    0    0    0    0 -0.00000000000E+00 -0.00000000000E+00 -0.74505805969E-08  0.93827000000E+00  0.93827000000E+00 0.  1.
     999902    2    1    2    0    0 -0.26568225822E-02  0.33306392742E-02 -0.22950708536E-01  0.10205871877E+01  0.10203202050E+01 0.  0.
     999903    2    3    3    0    0 -0.29421076590E-01  0.90031751910E-01  0.85571241401E-01  0.12929014302E+00  0.20547204845E-01 0.  0.
         14    1    1    2    0    0  0.26568225822E-02 -0.33306392742E-02  0.22950708536E-01  0.23342812310E-01  0.00000000000E+00 0. -1.
     999901    1    3    3    0    0  0.26764254007E-01 -0.86701112635E-01 -0.10852194994E+00  0.89129704467E+00  0.88000000000E+00 0.  1.
        -11    1    4    4    0    0 -0.52294669909E-02  0.48700566364E-01  0.45206531553E-01  0.66655713223E-01  0.51100000000E-03 0.  1.
         11    1    4    4    0    0 -0.24191609599E-01  0.41331185545E-01  0.40364709848E-01  0.62634429794E-01  0.51100000000E-03 0. -1.
</event>
<event>
 8    1  0.1112958E+005  0.1043930E+01  0.7957747E-01            NaN
         13   -1    0    0    0    0  0.00000000000E+00  0.00000000000E+00  0.74505805969E-08  0.10566000000E+00  0.10566000000E+00 0.  1.
     999900   -1    0    0    0    0 -0.00000000000E+00 -0.00000000000E+00 -0.74505805969E-08  0.93827000000E+00  0.93827000000E+00 0.  1.
     999902    2    1    2    0    0  0.15382905640E-01 -0.28548350190E-01 -0.21123758536E-02  0.10114322429E+01  0.10109100246E+01 0.  0.
     999903    2    3    3    0    0  0.12283869285E+00 -0.97936743433E-02 -0.31386580917E-02  0.12469691750E+00  0.18820455357E-01 0.  0.
         14    1    1    2    0    0 -0.15382905640E-01  0.28548350190E-01  0.21123758536E-02  0.32497757096E-01  0.00000000000E+00 0.  1.
     999901    1    3    3    0    0 -0.10745578721E+00 -0.18754675847E-01  0.10262822381E-02  0.88673532541E+00  0.88000000000E+00 0.  1.
        -11    1    4    4    0    0  0.62719457233E-01 -0.26055146910E-02  0.74922608491E-02  0.63221152441E-01  0.51100000000E-03 0.  1.
         11    1    4    4    0    0  0.60119235619E-01 -0.71881596523E-02 -0.10630918941E-01  0.61475765055E-01  0.51100000000E-03 0. -1.
</event>
<event>
 8    1  0.1112958E+005  0.1043930E+01  0.7957747E-01            NaN
         13   -1    0    0    0    0  0.00000000000E+00  0.00000000000E+00  0.74505805969E-08  0.10566000000E+00  0.10566000000E+00 0. -1.
     999900   -1    0    0    0    0 -0.00000000000E+00 -0.00000000000E+00 -0.74505805969E-08  0.93827000000E+00  0.93827000000E+00 0.  1.
     999902    2    1    2    0    0 -0.49937058306E-02  0.79062203123E-02 -0.21955549164E-01  0.10200659778E+01  0.10197867951E+01 0.  0.
     999903    2    3    3    0    0  0.31100243424E-01  0.12571465163E+00  0.29071091728E-02  0.13113417418E+00  0.20403959864E-01 0.  0.
         14    1    1    2    0    0  0.49937058306E-02 -0.79062203123E-02  0.21955549164E-01  0.23864022223E-01  0.00000000000E+00 0. -1.
     999901    1    3    3    0    0 -0.36093949255E-01 -0.11780843132E+00 -0.24862658337E-01  0.88893180360E+00  0.88000000000E+00 0.  1.
        -11    1    4    4    0    0  0.63251472510E-02  0.13435987629E-01  0.62134253937E-02  0.16105931436E-01  0.51100000000E-03 0. -1.
         11    1    4    4    0    0  0.24775096173E-01  0.11227866401E+00 -0.33063162209E-02  0.11502824275E+00  0.51100000000E-03 0.  1.
</event>
<event>
 8    1  0.1112958E+005  0.1043930E+01  0.7957747E-01            NaN
         13   -1    0    0    0    0  0.00000000000E+00  0.00000000000E+00  0.74505805969E-08  0.10566000000E+00  0.10566000000E+00 0.  1.
     999900   -1    0    0    0    0 -0.00000000000E+00 -0.00000000000E+00 -0.74505805969E-08  0.93827000000E+00  0.93827000000E+00 0. -1.
     999902    2    1    2    0    0 -0.21773110045E-01 -0.67960878453E-03 -0.99257099165E-02  0.10199915392E+01  0.10197105913E+01 0.  0.
     999903    2    3    3    0    0  0.36012890895E-01 -0.11351705249E+00 -0.48482747807E-01  0.13007123051E+00  0.19618834191E-01 0.  0.
         14    1    1    2    0    0  0.21773110045E-01  0.67960878453E-03  0.99257099165E-02  0.23938460821E-01  0.00000000000E+00 0.  1.
     999901    1    3    3    0    0 -0.57786000940E-01  0.11283744371E+00  0.38557037890E-01  0.88992030867E+00  0.88000000000E+00 0.  1.
        -11    1    4    4    0    0  0.26646742056E-01 -0.66859721656E-01 -0.37792076220E-01  0.81294362585E-01  0.51100000000E-03 0. -1.
         11    1    4    4    0    0  0.93661488386E-02 -0.46657330836E-01 -0.10690671587E-01  0.48776867927E-01  0.51100000000E-03 0.  1.
</event>
<event>
 8    1  0.1112958E+005  0.1043930E+01  0.7957747E-01            NaN
         13   -1    0    0    0    0  0.00000000000E+00  0.00000000000E+00  0.74505805969E-08  0.10566000000E+00  0.10566000000E+00 0. -1.
     999900   -1    0    0    0    0 -0.00000000000E+00 -0.00000000000E+00 -0.74505805969E-08  0.93827000000E+00  0.93827000000E+00 0. -1.
     999902    2    1    2    0    0 -0.12100442435E-01  0.17144073197E-01 -0.95041630987E-02  0.10208937445E+01  0.10206338072E+01 0.  0.
     999903    2    3    3    0    0 -0.89414085021E-01  0.94704916487E-01  0.21614881889E-01  0.13355982834E+00  0.20177334323E-01 0.  0.
         14    1    1    2    0    0  0.12100442435E-01 -0.17144073197E-01  0.95041630987E-02  0.23036255536E-01  0.00000000000E+00 0. -1.
     999901    1    3    3    0    0  0.77313642586E-01 -0.77560843290E-01 -0.31119044988E-01  0.88733391612E+00  0.88000000000E+00 0.  1.
        -11    1    4    4    0    0 -0.46006071082E-01  0.61738656659E-01  0.82621429449E-02  0.77438649456E-01  0.51100000000E-03 0. -1.
         11    1    4    4    0    0 -0.43408013939E-01  0.32966259828E-01  0.13352738944E-01  0.56121178885E-01  0.51100000000E-03 0.  1.
</event>
<event>
 8    1  0.1112958E+005  0.1043930E+01  0.7957747E-01            NaN
         13   -1    0    0    0    0  0.00000000000E+00  0.00000000000E+00  0.74505805969E-08  0.10566000000E+00  0.10566000000E+00 0. -1.
     999900   -1    0    0    0    0 -0.00000000000E+00 -0.00000000000E+00 -0.74505805969E-08  0.93827000000E+00  0.93827000000E+00 0. -1.
     999902    2    1    2    0    0 -0.73003167850E-03 -0.58732173834E-02 -0.22758404360E-01  0.10204146306E+01  0.10201436398E+01 0.  0.
     999903    2    3    3    0    0  0.11760615432E+00 -0.46546844126E-01 -0.29975325067E-01  0.13153337826E+00  0.20116989101E-01 0.  0.
         14    1    1    2    0    0  0.73003167850E-03  0.58732173834E-02  0.22758404360E-01  0.23515369393E-01  0.00000000000E+00 0. -1.
     999901    1    3    3    0    0 -0.11833618600E+00  0.40673626743E-01  0.72169207076E-02  0.88888125235E+00  0.88000000000E+00 0.  1.
        -11    1    4    4    0    0  0.91066655687E-01 -0.43189105666E-01 -0.28474628832E-01  0.10473538196E+00  0.51100000000E-03 0. -1.
         11    1    4    4    0    0  0.26539498637E-01 -0.33577384604E-02 -0.15006962355E-02  0.26797996300E-01  0.51100000000E-03 0.  1.
</event>
<event>
 8    1  0.1112958E+005  0.1043930E+01  0.7957747E-01            NaN
         13   -1    0    0    0    0  0.00000000000E+00  0.00000000000E+00  0.74505805969E-08  0.10566000000E+00  0.10566000000E+00 0.  1.
     999900   -1    0    0    0    0 -0.00000000000E+00 -0.00000000000E+00 -0.74505805969E-08  0.93827000000E+00  0.93827000000E+00 0.  1.
     999902    2    1    2    0    0  0.17927661546E-02 -0.36887076528E-02 -0.23656495661E-01  0.10199206193E+01  0.10196379844E+01 0.  0.
     999903    2    3    3    0    0  0.81271196045E-01  0.68980754381E-01  0.68374766161E-01  0.12859159774E+00  0.22301089193E-01 0.  0.
         14    1    1    2    0    0 -0.17927661546E-02  0.36887076528E-02  0.23656495661E-01  0.24009380700E-01  0.00000000000E+00 0.  1.
     999901    1    3    3    0    0 -0.79478429890E-01 -0.72669462034E-01 -0.92031261822E-01  0.89132902156E+00  0.88000000000E+00 0.  1.
        -11    1    4    4    0    0  0.10949695060E-01  0.14276415361E-01  0.21089511168E-01  0.27726169222E-01  0.51100000000E-03 0.  1.
         11    1    4    4    0    0  0.70321500985E-01  0.54704339020E-01  0.47285254993E-01  0.10086542851E+00  0.51100000000E-03 0. -1.
</event>
<event>
 8    1  0.1112958E+005  0.1043930E+01  0.7957747E-01            NaN
         13   -1    0    0    0    0  0.00000000000E+00  0.00000000000E+00  0.74505805969E-08  0.10566000000E+00  0.10566000000E+00 0. -1.
     999900   -1    0    0    0    0 -0.00000000000E+00 -0.00000000000E+00 -0.74505805969E-08  0.93827000000E+00  0.93827000000E+00 0. -1.
     999902    2    1    2    0    0 -0.71478806267E-02  0.22449854675E-01  0.53499095813E-02  0.10197699150E+01  0.10194836781E+01 0.  0.
     999903    2    3    3    0    0  0.48604202050E-01 -0.95361093152E-01 -0.67301292905E-01  0.12720848222E+00  0.14015255173E-01 0.  0.
         14    1    1    2    0    0  0.71478806267E-02 -0.22449854675E-01 -0.53499095813E-02  0.24160084953E-01  0.00000000000E+00 0.  1.
     999901    1    3    3    0    0 -0.55752082677E-01  0.11781094783E+00  0.72651202486E-01  0.89256143283E+00  0.88000000000E+00 0.  1.
        -11    1    4    4    0    0  0.46324374213E-01 -0.83171742218E-01 -0.62578688387E-01  0.11392909949E+00  0.51100000000E-03 0. -1.
         11    1    4    4    0    0  0.22798278371E-02 -0.12189350935E-01 -0.47226045180E-02  0.13279382727E-01  0.51100000000E-03 0.  1.
</event>
<event>
 8    1  0.1112958E+005  0.1043930E+01  0.7957747E-01            NaN
         13   -1    0    0    0    0  0.00000000000E+00  0.00000000000E+00  0.74505805969E-08  0.10566000000E+00  0.10566000000E+00 0. -1.
     999900   -1    0    0    0    0 -0.00000000000E+00 -0.00000000000E+00 -0.74505805969E-08  0.93827000000E+00  0.93827000000E+00 0.  1.
     999902    2    1    2    0    0  0.24939245887E-02 -0.13261415913E-01  0.19190603523E-01  0.10204701604E+01  0.10202004627E+01 0.  0.
     999903    2    3    3    0    0  0.12576830972E+00 -0.88077061377E-02 -0.29249814207E-01  0.13054719537E+00  0.17081427695E-01 0.  0.
         14    1    1    2    0    0 -0.24939245887E-02  0.13261415913E-01 -0.19190603523E-01  0.23459839630E-01  0.00000000000E+00 0.  1.
     999901    1    3    3    0    0 -0.12327438513E+00 -0.44537097756E-02  0.48440417731E-01  0.88992296500E+00  0.88000000000E+00 0. -1.
        -11    1    4    4    0    0  0.23712969539E-01 -0.83604459184E-02 -0.48232983180E-02  0.25607172979E-01  0.51100000000E-03 0.  1.
         11    1    4    4    0    0  0.10205534018E+00 -0.44726021935E-03 -0.24426515889E-01  0.10494002239E+00  0.51100000000E-03 0. -1.
</event>
<event>
 8    1  0.1112958E+005  0.1043930E+01  0.7957747E-01            NaN
         13   -1    0    0    0    0  0.00000000000E+00  0.00000000000E+00  0.74505805969E-08  0.10566000000E+00  0.10566000000E+00 0.  1.
     999900   -1    0    0    0    0 -0.00000000000E+00 -0.00000000000E+00 -0.74505805969E-08  0.93827000000E+00  0.93827000000E+00 0. -1.
     999902    2    1    2    0    0 -0.19646733568E-01  0.12408743727E-01  0.62963163897E-02  0.10198548123E+01  0.10195706075E+01 0.  0.
     999903    2    3    3    0    0 -0.33436894202E-01  0.74059400380E-01 -0.10093576009E+00  0.13109742687E+00  0.19891882503E-01 0.  0.
         14    1    1    2    0    0  0.19646733568E-01 -0.12408743727E-01 -0.62963163897E-02  0.24075187660E-01  0.00000000000E+00 0. -1.
     999901    1    3    3    0    0  0.13790160634E-01 -0.61650656653E-01  0.10723207648E+00  0.88875738547E+00  0.88000000000E+00 0. -1.
        -11    1    4    4    0    0 -0.23901415919E-01  0.37834199104E-01 -0.42727906715E-01  0.61876000502E-01  0.51100000000E-03 0. -1.
         11    1    4    4    0    0 -0.95354782830E-02  0.36225201276E-01 -0.58207853374E-01  0.69221426371E-01  0.51100000000E-03 0.  1.
</event>
<event>
 8    1  0.1112958E+005  0.1043930E+01  0.7957747E-01            NaN
         13   -1    0    0    0    0  0.00000000000E+00  0.00000000000E+00  0.74505805969E-08  0.10566000000E+00  0.10566000000E+00 0. -1.
     999900   -1    0    0    0    0 -0.00000000000E+00 -0.00000000000E+00 -0.74505805969E-08  0.93827000000E+00  0.93827000000E+00 0.  1.
     999902    2    1    2    0    0  0.12701725652E-01 -0.19026474983E-01  0.10795508332E-02  0.10210279037E+01  0.10207710194E+01 0.  0.
     999903    2    3    3    0    0  0.12272217699E+00  0.43484420040E-01 -0.87357234909E-02  0.13192248176E+00  0.19380423595E-01 0.  0.
         14    1    1    2    0    0 -0.12701725652E-01  0.19026474983E-01 -0.10795508332E-02  0.22902096298E-01  0.00000000000E+00 0.  1.
     999901    1    3    3    0    0 -0.11002045134E+00 -0.62510895023E-01  0.98152743240E-02  0.88910542194E+00  0.88000000000E+00 0.  1.
        -11    1    4    4    0    0  0.29165852784E-01  0.13314516416E-01  0.56945542652E-02  0.32567044467E-01  0.51100000000E-03 0.  1.
         11    1    4    4    0    0  0.93556324205E-01  0.30169903624E-01 -0.14430277756E-01  0.99355437297E-01  0.51100000000E-03 0. -1.
</event>
<event>
 7    1  0.1112958E+005  0.1043930E+01  0.7957747E-01            NaN
         13   -1    0    0    0    0  0.00000000000E+00  0.00000000000E+00  0.74505805969E-08  0.10566000000E+00  0.10566000000E+00 0.  1.
     999900   -1    0    0    0    0 -0.00000000000E+00 -0.00000000000E+00 -0.74505805969E-08  0.93827000000E+00  0.93827000000E+00 0. -1.
     999903    2    1    2    0    0 -0.10092754413E+00  0.20627621713E-01  0.56873520493E-01  0.11853578511E+00  0.14292203315E-01 0.  0.
         14    1    1    2    0    0  0.29641338045E-01 -0.27855242508E-01 -0.46150235582E-02  0.40936803719E-01  0.00000000000E+00 0.  1.
     999901    1    1    2    0    0  0.71286206086E-01  0.72276207953E-02 -0.52258496934E-01  0.88445741117E+00  0.88000000000E+00 0. -1.
        -11    1    3    3    0    0 -0.32696582556E-01  0.10512046535E-01  0.25378441277E-01  0.42707095849E-01  0.51100000000E-03 0.  1.
         11    1    3    3    0    0 -0.68230961575E-01  0.10115575178E-01  0.31495079215E-01  0.75828689257E-01  0.51100000000E-03 0. -1.
</event>
<event>
 8    1  0.1112958E+005  0.1043930E+01  0.7957747E-01            NaN
         13   -1    0    0    0    0  0.00000000000E+00  0.00000000000E+00  0.74505805969E-08  0.10566000000E+00  0.10566000000E+00 0. -1.
     999900   -1    0    0    0    0 -0.00000000000E+00 -0.00000000000E+00 -0.74505805969E-08  0.93827000000E+00  0.93827000000E+00 0. -1.
     999902    2    1    2    0    0  0.17633745005E-02  0.48332733394E-02  0.23251935305E-01  0.10201156657E+01  0.10198376581E+01 0.  0.
     999903    2    3    3    0    0  0.80829941716E-01  0.29815621980E-01  0.99432562492E-01  0.13294086461E+00  0.19078475012E-01 0.  0.
         14    1    1    2    0    0 -0.17633745005E-02 -0.48332733394E-02 -0.23251935305E-01  0.23814334260E-01  0.00000000000E+00 0.  1.
     999901    1    3    3    0    0 -0.79066567216E-01 -0.24982348640E-01 -0.76180627187E-01  0.88717480113E+00  0.88000000000E+00 0. -1.
        -11    1    4    4    0    0  0.79812047898E-01  0.28078292183E-01  0.91000253019E-01  0.12425643103E+00  0.51100000000E-03 0. -1.
         11    1    4    4    0    0  0.10178938183E-02  0.17373297965E-02  0.84323094729E-02  0.86844335851E-02  0.51100000000E-03 0.  1.
</event>
<event>
 8    1  0.1112958E+005  0.1043930E+01  0.7957747E-01            NaN
         13   -1    0    0    0    0  0.00000000000E+00  0.00000000000E+00  0.74505805969E-08  0.10566000000E+00  0.10566000000E+00 0.  1.
     999900   -1    0    0    0    0 -0.00000000000E+00 -0.00000000000E+00 -0.74505805969E-08  0.93827000000E+00  0.93827000000E+00 0.  1.
     999902    2    1    2    0    0  0.33808441560E-02 -0.16069151384E-01  0.27448981091E-01  0.10119441548E+01  0.10114385192E+01 0.  0.
     999903    2    3    3    0    0 -0.11792306646E+00 -0.28981196521E-01  0.59127699783E-02  0.12326807876E+00  0.20354337072E-01 0.  0.
         14    1    1    2    0    0 -0.33808441560E-02  0.16069151384E-01 -0.27448981091E-01  0.31985845250E-01  0.00000000000E+00 0. -1.
     999901    1    3    3    0    0  0.12130391062E+00  0.12912045137E-01  0.21536211112E-01  0.88867607599E+00  0.88000000000E+00 0. -1.
        -11    1    4    4    0    0 -0.31001691572E-01 -0.89928908298E-02 -0.73122184537E-02  0.33101459568E-01  0.51100000000E-03 0.  1.
         11    1    4    4    0    0 -0.86921374891E-01 -0.19988305691E-01  0.13224988432E-01  0.90166619196E-01  0.51100000000E-03 0. -1.
</event>
<event>
 8    1  0.1112958E+005  0.1043930E+01  0.7957747E-01            NaN
         13   -1    0    0    0    0  0.00000000000E+00  0.00000000000E+00  0.74505805969E-08  0.10566000000E+00  0.10566000000E+00 0.  1.
     999900   -1    0    0    0    0 -0.00000000000E+00 -0.00000000000E+00 -0.74505805969E-08  0.93827000000E+00  0.93827000000E+00 0. -1.
     999902    2    1    2    0    0 -0.20160162372E-01 -0.26957380114E-02  0.12790533933E-01  0.10199029963E+01  0.10196199414E+01 0.  0.
     999903    2    3    3    0    0 -0.78296670525E-01  0.99107385478E-01  0.32851261187E-01  0.13190177875E+00  0.19137173336E-01 0.  0.
         14    1    1    2    0    0  0.20160162372E-01  0.26957380114E-02 -0.12790533933E-01  0.24027003737E-01  0.00000000000E+00 0.  1.
     999901    1    3    3    0    0  0.58136508153E-01 -0.10180312349E+00 -0.20060727254E-01  0.88800121752E+00  0.88000000000E+00 0.  1.
        -11    1    4    4    0    0 -0.13413944570E-01  0.96668315039E-02 -0.27964793082E-03  0.16544511604E-01  0.51100000000E-03 0.  1.
         11    1    4    4    0    0 -0.64882725955E-01  0.89440553974E-01  0.33130909118E-01  0.11535726714E+00  0.51100000000E-03 0. -1.
</event>
<event>
 8    1  0.1112958E+005  0.1043930E+01  0.7957747E-01            NaN
         13   -1    0    0    0    0  0.00000000000E+00  0.00000000000E+00  0.74505805969E-08  0.10566000000E+00  0.10566000000E+00 0. -1.
     999900   -1    0    0    0    0 -0.00000000000E+00 -0.00000000000E+00 -0.74505805969E-08  0.93827000000E+00  0.93827000000E+00 0.  1.
     999902    2    1    2    0    0 -0.18430100936E-01 -0.21794243035E-02 -0.14084021870E-01  0.10206323996E+01  0.10203664621E+01 0.  0.
     999903    2    3    3    0    0 -0.34731700965E-01 -0.12209054228E+00  0.26978350245E-01  0.13140209382E+00  0.20646726420E-01 0.  0.
         14    1    1    2    0    0  0.18430100936E-01  0.21794243035E-02  0.14084021870E-01  0.23297600367E-01  0.00000000000E+00 0. -1.
     999901    1    3    3    0    0  0.16301600029E-01  0.11991111798E+00 -0.41062372115E-01  0.88923030582E+00  0.88000000000E+00 0. -1.
        -11    1    4    4    0    0 -0.57411410496E-02 -0.46191422279E-01  0.28082683287E-02  0.46634275857E-01  0.51100000000E-03 0.  1.
         11    1    4    4    0    0 -0.28990559916E-01 -0.75899120000E-01  0.24170081916E-01  0.84767817961E-01  0.51100000000E-03 0. -1.
</event>
<event>
 8    1  0.1112958E+005  0.1043930E+01  0.7957747E-01            NaN
         13   -1    0    0    0    0  0.00000000000E+00  0.00000000000E+00  0.74505805969E-08  0.10566000000E+00  0.10566000000E+00 0.  1.
     999900   -1    0    0    0    0 -0.00000000000E+00 -0.00000000000E+00 -0.74505805969E-08  0.93827000000E+00  0.93827000000E+00 0.  1.
     999902    2    1    2    0    0 -0.19939387708E-01  0.45320689533E-02  0.10652728326E-01  0.10208735594E+01  0.10206131612E+01 0.  0.
     999903    2    3    3    0    0  0.30332351965E-01  0.85753411376E-01 -0.90448146665E-01  0.12994957771E+00  0.20792459528E-01 0.  0.
         14    1    1    2    0    0  0.19939387708E-01 -0.45320689533E-02 -0.10652728326E-01  0.23056440574E-01  0.00000000000E+00 0.  1.
     999901    1    3    3    0    0 -0.50271739673E-01 -0.81221342423E-01  0.10110087499E+00  0.89092398172E+00  0.88000000000E+00 0. -1.
        -11    1    4    4    0    0  0.77576637586E-02  0.39736913883E-01 -0.28348397037E-01  0.49427688672E-01  0.51100000000E-03 0. -1.
         11    1    4    4    0    0  0.22574688207E-01  0.46016497494E-01 -0.62099749628E-01  0.80521889037E-01  0.51100000000E-03 0.  1.
</event>
<event>
 8    1  0.1112958E+005  0.1043930E+01  0.7957747E-01            NaN
         13   -1    0    0    0    0  0.00000000000E+00  0.00000000000E+00  0.74505805969E-08  0.10566000000E+00  0.10566000000E+00 0.  1.
     999900   -1    0    0    0    0 -0.00000000000E+00 -0.00000000000E+00 -0.74505805969E-08  0.93827000000E+00  0.93827000000E+00 0. -1.
     999902    2    1    2    0    0  0.68222533745E-02  0.15690048329E-01  0.15463021172E-01  0.10208686518E+01  0.10206081415E+01 0.  0.
     999903    2    3    3    0    0  0.11990309608E+00 -0.36860243223E-02 -0.48919527195E-01  0.13108900394E+00  0.20021677960E-01 0.  0.
         14    1    1    2    0    0 -0.68222533745E-02 -0.15690048329E-01 -0.15463021172E-01  0.23061348214E-01  0.00000000000E+00 0.  1.
     999901    1    3    3    0    0 -0.11308084271E+00  0.19376072651E-01  0.64382548367E-01  0.88977964784E+00  0.88000000000E+00 0. -1.
        -11    1    4    4    0    0  0.11255222505E+00  0.15532671199E-02 -0.44762868875E-01  0.12113790304E+00  0.51100000000E-03 0.  1.
         11    1    4    4    0    0  0.73508710309E-02 -0.52392914421E-02 -0.41566583200E-02  0.99511008998E-02  0.51100000000E-03 0. -1.
</event>
<event>
 8    1  0.1112958E+005  0.1043930E+01  0.7957747E-01            NaN
         13   -1    0    0    0    0  0.00000000000E+00  0.00000000000E+00  0.74505805969E-08  0.10566000000E+00  0.10566000000E+00 0. -1.
     999900   -1    0    0    0    0 -0.00000000000E+00 -0.00000000000E+00 -0.74505805969E-08  0.93827000000E+00  0.93827000000E+00 0.  1.
     999902    2    1    2    0    0 -0.23558033457E-01  0.80114607729E-03 -0.10518826528E-02  0.10203348896E+01  0.10200620363E+01 0.  0.
     999903    2    3    3    0    0  0.11828853873E+00 -0.15722196604E-01  0.41150019664E-01  0.12782468161E+00  0.20160834557E-01 0.  0.
         14    1    1    2    0    0  0.23558033457E-01 -0.80114607729E-03  0.10518826528E-02  0.23595110352E-01  0.00000000000E+00 0.  1.
     999901    1    3    3    0    0 -0.14184657218E+00  0.16523342681E-01 -0.42201902317E-01  0.89251020804E+00  0.88000000000E+00 0.  1.
        -11    1    4    4    0    0  0.95444707013E-01 -0.11924408935E-01  0.41253756937E-01  0.10466144088E+00  0.51100000000E-03 0. -1.
         11    1    4    4    0    0  0.22843831715E-01 -0.37977876688E-02 -0.10373727242E-03  0.23163240728E-01  0.51100000000E-03 0.  1.
</event>
<event>
 8    1  0.1112958E+005  0.1043930E+01  0.7957747E-01            NaN
         13   -1    0    0    0    0  0.00000000000E+00  0.00000000000E+00  0.74505805969E-08  0.10566000000E+00  0.10566000000E+00 0. -1.
     999900   -1    0    0    0    0 -0.00000000000E+00 -0.00000000000E+00 -0.74505805969E-08  0.93827000000E+00  0.93827000000E+00 0. -1.
     999902    2    1    2    0    0  0.41855582917E-02  0.22723703803E-01  0.14215152919E-01  0.10168014876E+01  0.10164395255E+01 0.  0.
     999903    2    3    3    0    0 -0.12375193045E+00  0.20301331387E-01  0.11695184906E-01  0.12754324662E+00  0.20095224857E-01 0.  0.
         14    1    1    2    0    0 -0.41855582917E-02 -0.22723703803E-01 -0.14215152919E-01  0.27128512404E-01  0.00000000000E+00 0.  1.
     999901    1    3    3    0    0  0.12793748874E+00  0.24223724162E-02  0.25199680133E-02  0.88925824098E+00  0.88000000000E+00 0. -1.
        -11    1    4    4    0    0 -0.61246901301E-01  0.61667439639E-02 -0.35796899589E-02  0.61662686864E-01  0.51100000000E-03 0. -1.
         11    1    4    4    0    0 -0.62505029145E-01  0.14134587423E-01  0.15274874865E-01  0.65880559751E-01  0.51100000000E-03 0.  1.
</event>
<event>
 7    1  0.1112958E+005  0.1043930E+01  0.7957747E-01            NaN
         13   -1    0    0    0    0  0.00000000000E+00  0.00000000000E+00  0.74505805969E-08  0.10566000000E+00  0.10566000000E+00 0. -1.
     999900   -1    0    0    0    0 -0.00000000000E+00 -0.00000000000E+00 -0.74505805969E-08  0.93827000000E+00  0.93827000000E+00 0.  1.
     999903    2    1    2    0    0 -0.62625189968E-01  0.51090578053E-01 -0.79981514653E-01  0.11538224330E+00  0.19592289253E-01 0.  0.
         14    1    1    2    0    0  0.21484888845E-01  0.31921211690E-01 -0.80661097616E-02  0.39314454481E-01  0.00000000000E+00 0.  1.
     999901    1    1    2    0    0  0.41140301123E-01 -0.83011789743E-01  0.88047624415E-01  0.88923330222E+00  0.88000000000E+00 0. -1.
        -11    1    3    3    0    0 -0.10376977427E-01  0.16458787467E-01 -0.11789302374E-01  0.22755705150E-01  0.51100000000E-03 0. -1.
         11    1    3    3    0    0 -0.52248212541E-01  0.34631790586E-01 -0.68192212279E-01  0.92626538149E-01  0.51100000000E-03 0.  1.
</event>
<event>
 8    1  0.1112958E+005  0.1043930E+01  0.7957747E-01            NaN
         13   -1    0    0    0    0  0.00000000000E+00  0.00000000000E+00  0.74505805969E-08  0.10566000000E+00  0.10566000000E+00 0.  1.
     999900   -1    0    0    0    0 -0.00000000000E+00 -0.00000000000E+00 -0.74505805969E-08  0.93827000000E+00  0.93827000000E+00 0. -1.
     999902    2    1    2    0    0  0.19752202204E-01  0.11955584727E-01  0.77997591361E-02  0.10195594903E+01  0.10192681848E+01 0.  0.
     999903    2    3    3    0    0  0.79522383694E-01 -0.37135962820E-01  0.95916516720E-01  0.13178304461E+00  0.21538417418E-01 0.  0.
         14    1    1    2    0    0 -0.19752202204E-01 -0.11955584727E-01 -0.77997591361E-02  0.24370509651E-01  0.00000000000E+00 0. -1.
     999901    1    3    3    0    0 -0.59770181490E-01  0.49091547546E-01 -0.88116757584E-01  0.88777644574E+00  0.88000000000E+00 0. -1.
        -11    1    4    4    0    0  0.37910262973E-01 -0.29376516101E-01  0.53623210045E-01  0.71943571731E-01  0.51100000000E-03 0. -1.
         11    1    4    4    0    0  0.41612120721E-01 -0.77594467189E-02  0.42293306675E-01  0.59839472882E-01  0.51100000000E-03 0.  1.
</event>
<event>
 8    1  0.1112958E+005  0.1043930E+01  0.7957747E-01            NaN
         13   -1    0    0    0    0  0.00000000000E+00  0.00000000000E+00  0.74505805969E-08  0.10566000000E+00  0.10566000000E+00 0.  1.
     999900   -1    0    0    0    0 -0.00000000000E+00 -0.00000000000E+00 -0.74505805969E-08  0.93827000000E+00  0.93827000000E+00 0.  1.
     999902    2    1    2    0    0 -0.20802448708E-01  0.10018652027E-01  0.25456480207E-02  0.10207008032E+01  0.10204364429E+01 0.  0.
     999903    2    3    3    0    0  0.65341600114E-01  0.99544730370E-01  0.50161498193E-01  0.13069912620E+00  0.19682673577E-01 0.  0.
         14    1    1    2    0    0  0.20802448708E-01 -0.10018652027E-01 -0.25456480207E-02  0.23229196812E-01  0.00000000000E+00 0. -1.
     999901    1    3    3    0    0 -0.86144048821E-01 -0.89526078343E-01 -0.47615850172E-01  0.89000167699E+00  0.88000000000E+00 0.  1.
        -11    1    4    4    0    0  0.35481619633E-02  0.17906456894E-01  0.64077467727E-02  0.19353319909E-01  0.51100000000E-03 0. -1.
         11    1    4    4    0    0  0.61793438150E-01  0.81638273476E-01  0.43753751421E-01  0.11134580629E+00  0.51100000000E-03 0.  1.
</event>
<event>
 8    1  0.1112958E+005  0.1043930E+01  0.7957747E-01            NaN
         13   -1    0    0    0    0  0.00000000000E+00  0.00000000000E+00  0.74505805969E-08  0.10566000000E+00  0.10566000000E+00 0.  1.
     999900   -1    0    0    0    0 -0.00000000000E+00 -0.00000000000E+00 -0.74505805969E-08  0.93827000000E+00  0.93827000000E+00 0. -1.
     999902    2    1    2    0    0  0.15973617925E-01 -0.61068497323E-02 -0.15675422666E-01  0.10207315311E+01  0.10204678778E+01 0.  0.
     999903    2    3    3    0    0 -0.58723080218E-01 -0.10297720687E+00 -0.53984169940E-01  0.13144472533E+00  0.17627249614E-01 0.  0.
         14    1    1    2    0    0 -0.15973617925E-01  0.61068497323E-02  0.15675422666E-01  0.23198468894E-01  0.00000000000E+00 0.  1.
     999901    1    3    3    0    0  0.74696698143E-01  0.96870357136E-01  0.38308747274E-01  0.88928680577E+00  0.88000000000E+00 0.  1.
        -11    1    4    4    0    0 -0.26556979561E-01 -0.62578972857E-01 -0.26701599525E-01  0.73038603118E-01  0.51100000000E-03 0.  1.
         11    1    4    4    0    0 -0.32166100657E-01 -0.40398234012E-01 -0.27282570414E-01  0.58406122215E-01  0.51100000000E-03 0. -1.
</event>
<event>
 8    1  0.1112958E+005  0.1043930E+01  0.7957747E-01            NaN
         13   -1    0    0    0    0  0.00000000000E+00  0.00000000000E+00  0.74505805969E-08  0.10566000000E+00  0.10566000000E+00 0. -1.
     999900   -1    0    0    0    0 -0.00000000000E+00 -0.00000000000E+00 -0.74505805969E-08  0.93827000000E+00  0.93827000000E+00 0.  1.
     999902    2    1    2    0    0  0.17873190091E-01  0.15396863602E-01 -0.37990936048E-02  0.10200354934E+01  0.10197555885E+01 0.  0.
     999903    2    3    3    0    0  0.44909634531E-01  0.68133779693E-01  0.10143669106E+00  0.13178624798E+00  0.20472558567E-01 0.  0.
         14    1    1    2    0    0 -0.17873190091E-01 -0.15396863602E-01  0.37990936048E-02  0.23894506586E-01  0.00000000000E+00 0. -1.
     999901    1    3    3    0    0 -0.27036444440E-01 -0.52736916091E-01 -0.10523578466E+00  0.88824924544E+00  0.88000000000E+00 0.  1.
        -11    1    4    4    0    0  0.31560964492E-01  0.61202776685E-01  0.79418711387E-01  0.10511644587E+00  0.51100000000E-03 0.  1.
         11    1    4    4    0    0  0.13348670039E-01  0.69310030075E-02  0.22017979669E-01  0.26669802103E-01  0.51100000000E-03 0. -1.
</event>
<event>
 8    1  0.1112958E+005  0.1043930E+01  0.7957747E-01            NaN
         13   -1    0    0    0    0  0.00000000000E+00  0.00000000000E+00  0.74505805969E-08  0.10566000000E+00  0.10566000000E+00 0.  1.
     999900   -1    0    0    0    0 -0.00000000000E+00 -0.00000000000E+00 -0.74505805969E-08  0.93827000000E+00  0.93827000000E+00 0. -1.
     999902    2    1    2    0    0  0.16890647772E-01 -0.17571070326E-01  0.28255537184E-02  0.10193938991E+01  0.10190985729E+01 0.  0.
     999903    2    3    3    0    0 -0.12001055127E-02  0.12308206152E+00  0.27639086795E-01  0.12769535682E+00  0.19787645427E-01 0.  0.
         14    1    1    2    0    0 -0.16890647772E-01  0.17571070326E-01 -0.28255537184E-02  0.24536100920E-01  0.00000000000E+00 0. -1.
     999901    1    3    3    0    0  0.18090753284E-01 -0.14065313185E+00 -0.24813533077E-01  0.89169854226E+00  0.88000000000E+00 0. -1.
        -11    1    4    4    0    0 -0.91816241206E-02  0.70710852858E-01  0.20795488685E-01  0.74276782403E-01  0.51100000000E-03 0.  1.
         11    1    4    4    0    0  0.79815186078E-02  0.52371208664E-01  0.68435981100E-02  0.53418574413E-01  0.51100000000E-03 0. -1.
</event>
<event>
 8    1  0.1112958E+005  0.1043930E+01  0.7957747E-01            NaN
         13   -1    0    0    0    0  0.00000000000E+00  0.00000000000E+00  0.74505805969E-08  0.10566000000E+00  0.10566000000E+00 0. -1.
     999900   -1    0    0    0    0 -0.00000000000E+00 -0.00000000000E+00 -0.74505805969E-08  0.93827000000E+00  0.93827000000E+00 0. -1.
     999902    2    1    2    0    0  0.12380483110E-01 -0.32267333470E-02 -0.19273737862E-01  0.10207963634E+01  0.10205341986E+01 0.  0.
     999903    2    3    3    0    0  0.97820265947E-01  0.73952155156E-01  0.41806866989E-01  0.13119680316E+00  0.20665462759E-01 0.  0.
         14    1    1    2    0    0 -0.12380483110E-01  0.32267333470E-02  0.19273737862E-01  0.23133636578E-01  0.00000000000E+00 0. -1.
     999901    1    3    3    0    0 -0.85439782837E-01 -0.77178888503E-01 -0.61080604851E-01  0.88959956026E+00  0.88000000000E+00 0.  1.
        -11    1    4    4    0    0  0.12284927696E-01  0.13831248540E-01  0.13419520913E-01  0.22859736377E-01  0.51100000000E-03 0. -1.
         11    1    4    4    0    0  0.85535338251E-01  0.60120906616E-01  0.28387346076E-01  0.10833706679E+00  0.51100000000E-03 0.  1.
</event>
<event>
 8    1  0.1112958E+005  0.1043930E+01  0.7957747E-01            NaN
         13   -1    0    0    0    0  0.00000000000E+00  0.00000000000E+00  0.74505805969E-08  0.10566000000E+00  0.10566000000E+00 0.  1.
     999900   -1    0    0    0    0 -0.00000000000E+00 -0.00000000000E+00 -0.74505805969E-08  0.93827000000E+00  0.93827000000E+00 0.  1.
     999902    2    1    2    0    0  0.24086149440E-01  0.10978046969E-01 -0.46439752945E-02  0.10170557257E+01  0.10167006062E+01 0.  0.
     999903    2    3    3    0    0 -0.74228614281E-01  0.97423730308E-01  0.25507904145E-01  0.12686036249E+00  0.21014946862E-01 0.  0.
         14    1    1    2    0    0 -0.24086149440E-01 -0.10978046969E-01  0.46439752945E-02  0.26874274253E-01  0.00000000000E+00 0.  1.
     999901    1    3    3    0    0  0.98314763721E-01 -0.86445683339E-01 -0.30151879439E-01  0.89019536326E+00  0.88000000000E+00 0. -1.
        -11    1    4    4    0    0 -0.62382777848E-02  0.20386618829E-01  0.70806161162E-02  0.22470571479E-01  0.51100000000E-03 0.  1.
         11    1    4    4    0    0 -0.67990336496E-01  0.77037111479E-01  0.18427288028E-01  0.10438979101E+00  0.51100000000E-03 0. -1.
</event>
<event>
 8    1  0.1112958E+005  0.1043930E+01  0.7957747E-01            NaN
         13   -1    0    0    0    0  0.00000000000E+00  0.00000000000E+00  0.74505805969E-08  0.10566000000E+00  0.10566000000E+00 0.  1.
     999900   -1    0    0    0    0 -0.00000000000E+00 -0.00000000000E+00 -0.74505805969E-08  0.93827000000E+00  0.93827000000E+00 0. -1.
     999902    2    1    2    0    0  0.50251643589E-02  0.22181990981E-01  0.98801047637E-03  0.10211644742E+01  0.10209106788E+01 0.  0.
     999903    2    3    3    0    0  0.29326183911E-03  0.12618797170E+00  0.40536213755E-01  0.13414491673E+00  0.20692603898E-01 0.  0.
         14    1    1    2    0    0 -0.50251643589E-02 -0.22181990981E-01 -0.98801047637E-03  0.22765525810E-01  0.00000000000E+00 0.  1.
     999901    1    3    3    0    0  0.47319025198E-02 -0.10400598072E+00 -0.39548203278E-01  0.88701955746E+00  0.88000000000E+00 0.  1.
        -11    1    4    4    0    0 -0.58162153796E-02  0.78221188423E-01  0.33442354224E-01  0.85270363296E-01  0.51100000000E-03 0. -1.
         11    1    4    4    0    0  0.61094772187E-02  0.47966783276E-01  0.70938595309E-02  0.48874553438E-01  0.51100000000E-03 0.  1.
</event>
<event>
 8    1  0.1112958E+005  0.1043930E+01  0.7957747E-01            NaN
         13   -1    0    0    0    0  0.00000000000E+00  0.00000000000E+00  0.74505805969E-08  0.10566000000E+00  0.10566000000E+00 0.  1.
     999900   -1    0    0    0    0 -0.00000000000E+00 -0.00000000000E+00 -0.74505805969E-08  0.93827000000E+00  0.93827000000E+00 0. -1.
     999902    2    1    2    0    0 -0.17029091930E-02 -0.14470285696E-01  0.95698600808E-02  0.10264980956E+01  0.10263500714E+01 0.  0.
     999903    2    3    3    0    0  0.10914557840E+00  0.55873420937E-01  0.54379588328E-01  0.13563136261E+00  0.20102995933E-01 0.  0.
         14    1    1    2    0    0  0.17029091930E-02  0.14470285696E-01 -0.95698600808E-02  0.17431904365E-01  0.00000000000E+00 0. -1.
     999901    1    3    3    0    0 -0.11084848759E+00 -0.70343706633E-01 -0.44809728247E-01  0.89086673302E+00  0.88000000000E+00 0.  1.
        -11    1    4    4    0    0  0.10542171505E+00  0.57474175886E-01  0.53503538955E-01  0.13145306653E+00  0.51100000000E-03 0. -1.
         11    1    4    4    0    0  0.37238633446E-02 -0.16007549491E-02  0.87604937297E-03  0.41782960785E-02  0.51100000000E-03 0.  1.
</event>
<event>
 8    1  0.1112958E+005  0.1043930E+01  0.7957747E-01            NaN
         13   -1    0    0    0    0  0.00000000000E+00  0.00000000000E+00  0.74505805969E-08  0.10566000000E+00  0.10566000000E+00 0. -1.
     999900   -1    0    0    0    0 -0.00000000000E+00 -0.00000000000E+00 -0.74505805969E-08  0.93827000000E+00  0.93827000000E+00 0.  1.
     999902    2    1    2    0    0 -0.13139316502E-01 -0.83933122588E-02  0.17809475211E-01  0.10202600457E+01  0.10199854382E+01 0.  0.
     999903    2    3    3    0    0 -0.63119634336E-02 -0.95197362872E-01 -0.86954026201E-01  0.12977874485E+00  0.13384362592E-01 0.  0.
         14    1    1    2    0    0  0.13139316502E-01  0.83933122588E-02 -0.17809475211E-01  0.23669954291E-01  0.00000000000E+00 0.  1.
     999901    1    3    3    0    0 -0.68273530686E-02  0.86804050613E-01  0.10476350141E+00  0.89048130086E+00  0.88000000000E+00 0. -1.
        -11    1    4    4    0    0  0.33644390178E-02 -0.31439466336E-01 -0.32869262605E-01  0.45611501166E-01  0.51100000000E-03 0. -1.
         11    1    4    4    0    0 -0.96764024514E-02 -0.63757896536E-01 -0.54084763597E-01  0.84167243684E-01  0.51100000000E-03 0.  1.
</event>
<event>
 8    1  0.1112958E+005  0.1043930E+01  0.7957747E-01            NaN
         13   -1    0    0    0    0  0.00000000000E+00  0.00000000000E+00  0.74505805969E-08  0.10566000000E+00  0.10566000000E+00 0. -1.
     999900   -1    0    0    0    0 -0.00000000000E+00 -0.00000000000E+00 -0.74505805969E-08  0.93827000000E+00  0.93827000000E+00 0. -1.
     999902    2    1    2    0    0 -0.79087095679E-02 -0.19806693350E-02  0.23413367001E-01  0.10191377332E+01  0.10188361315E+01 0.  0.
     999903    2    3    3    0    0  0.54963210776E-01  0.10581402670E+00  0.47675318852E-01  0.13000263821E+00  0.20253077040E-01 0.  0.
         14    1    1    2    0    0  0.79087095679E-02  0.19806693350E-02 -0.23413367001E-01  0.24792266786E-01  0.00000000000E+00 0.  1.
     999901    1    3    3    0    0 -0.62871920344E-01 -0.10779469603E+00 -0.24261951851E-01  0.88913509500E+00  0.88000000000E+00 0.  1.
        -11    1    4    4    0    0  0.22818264329E-01  0.38737965502E-01  0.78912818802E-02  0.45649059234E-01  0.51100000000E-03 0. -1.
         11    1    4    4    0    0  0.32144946447E-01  0.67076061194E-01  0.39784036972E-01  0.84353578977E-01  0.51100000000E-03 0.  1.
</event>
<event>
 8    1  0.1112958E+005  0.1043930E+01  0.7957747E-01            NaN
         13   -1    0    0    0    0  0.00000000000E+00  0.00000000000E+00  0.74505805969E-08  0.10566000000E+00  0.10566000000E+00 0. -1.
     999900   -1    0    0    0    0 -0.00000000000E+00 -0.00000000000E+00 -0.74505805969E-08  0.93827000000E+00  0.93827000000E+00 0.  1.
     999902    2    1    2    0    0  0.10576180701E-01  0.56120321933E-02 -0.15676290563E-01  0.10242044686E+01  0.10240145003E+01 0.  0.
     999903    2    3    3    0    0 -0.16775481947E-01  0.12738829099E+00  0.32577033340E-01  0.13408877166E+00  0.20232204751E-01 0.  0.
         14    1    1    2    0    0 -0.10576180701E-01 -0.56120321933E-02  0.15676290563E-01  0.19725531409E-01  0.00000000000E+00 0. -1.
     999901    1    3    3    0    0  0.27351662648E-01 -0.12177625879E+00 -0.48253323903E-01  0.89011569693E+00  0.88000000000E+00 0.  1.
        -11    1    4    4    0    0 -0.18468874832E-01  0.79123073549E-01  0.26203744288E-01  0.85372463014E-01  0.51100000000E-03 0.  1.
         11    1    4    4    0    0  0.16933928852E-02  0.48265217437E-01  0.63732890527E-02  0.48716308646E-01  0.51100000000E-03 0. -1.
</event>
<event>
 8    1  0.1112958E+005  0.1043930E+01  0.7957747E-01            NaN
         13   -1    0    0    0    0  0.00000000000E+00  0.00000000000E+00  0.74505805969E-08  0.10566000000E+00  0.10566000000E+00 0.  1.
     999900   -1    0    0    0    0 -0.00000000000E+00 -0.00000000000E+00 -0.74505805969E-08  0.93827000000E+00  0.93827000000E+00 0. -1.
     999902    2    1    2    0    0  0.15287932700E-01  0.58301432977E-02  0.17090128579E-01  0.10202702462E+01  0.10199958781E+01 0.  0.
     999903    2    3    3    0    0  0.83183958781E-01  0.30107344886E-01  0.98263527334E-01  0.13359760446E+00  0.19146171880E-01 0.  0.
         14    1    1    2    0    0 -0.15287932700E-01 -0.58301432977E-02 -0.17090128579E-01  0.23659753844E-01  0.00000000000E+00 0. -1.
     999901    1    3    3    0    0 -0.67896026082E-01 -0.24277201588E-01 -0.81173398755E-01  0.88667264170E+00  0.88000000000E+00 0. -1.
        -11    1    4    4    0    0  0.30221170653E-01  0.33484080569E-02  0.41753226088E-01  0.51653886610E-01  0.51100000000E-03 0. -1.
         11    1    4    4    0    0  0.52962788128E-01  0.26758936829E-01  0.56510301246E-01  0.81943717846E-01  0.51100000000E-03 0.  1.
</event>
<event>
 8    1  0.1112958E+005  0.1043930E+01  0.7957747E-01            NaN
         13   -1    0    0    0    0  0.00000000000E+00  0.00000000000E+00  0.74505805969E-08  0.10566000000E+00  0.10566000000E+00 0. -1.
     999900   -1    0    0    0    0 -0.00000000000E+00 -0.00000000000E+00 -0.74505805969E-08  0.93827000000E+00  0.93827000000E+00 0.  1.
     999902    2    1    2    0    0 -0.18865043807E-01  0.61764621813E-03  0.15705319583E-01  0.10193753990E+01  0.10190796219E+01 0.  0.
     999903    2    3    3    0    0  0.10934142984E+00  0.47222241022E-01 -0.39794879738E-01  0.12713711234E+00  0.19867676097E-01 0.  0.
         14    1    1    2    0    0  0.18865043807E-01 -0.61764621813E-03 -0.15705319583E-01  0.24554600952E-01  0.00000000000E+00 0.  1.
     999901    1    3    3    0    0 -0.12820647365E+00 -0.46604594804E-01  0.55500199321E-01  0.89223828671E+00  0.88000000000E+00 0.  1.
        -11    1    4    4    0    0  0.69093806389E-01  0.19878563636E-01 -0.27219365931E-01  0.76878256850E-01  0.51100000000E-03 0.  1.
         11    1    4    4    0    0  0.40247623455E-01  0.27343677386E-01 -0.12575513807E-01  0.50258855491E-01  0.51100000000E-03 0. -1.
</event>
<event>
 8    1  0.1112958E+005  0.1043930E+01  0.7957747E-01            NaN
         13   -1    0    0    0    0  0.00000000000E+00  0.00000000000E+00  0.74505805969E-08  0.10566000000E+00  0.10566000000E+00 0.  1.
     999900   -1    0    0    0    0 -0.00000000000E+00 -0.00000000000E+00 -0.74505805969E-08  0.93827000000E+00  0.93827000000E+00 0. -1.
     999902    2    1    2    0    0 -0.17915794561E-01 -0.15833814332E-01 -0.12733413216E-02  0.10199861747E+01  0.10197050995E+01 0.  0.
     999903    2    3    3    0    0 -0.31255551579E-01  0.12161907782E+00 -0.22182083615E-01  0.12897078642E+00  0.19321214331E-01 0.  0.
         14    1    1    2    0    0  0.17915794561E-01  0.15833814332E-01  0.12733413216E-02  0.23943825283E-01  0.00000000000E+00 0.  1.
     999901    1    3    3    0    0  0.13339757019E-01 -0.13745289215E+00  0.20908742294E-01  0.89101538830E+00  0.88000000000E+00 0.  1.
        -11    1    4    4    0    0 -0.24147412334E-01  0.11422511964E+00 -0.21134659537E-01  0.11864826351E+00  0.51100000000E-03 0.  1.
         11    1    4    4    0    0 -0.71081392458E-02  0.73939581747E-02 -0.10474240784E-02  0.10322522910E-01  0.51100000000E-03 0. -1.
</event>
<event>
 8    1  0.1112958E+005  0.1043930E+01  0.7957747E-01            NaN
         13   -1    0    0    0    0  0.00000000000E+00  0.00000000000E+00  0.74505805969E-08  0.10566000000E+00  0.10566000000E+00 0. -1.
     999900   -1    0    0    0    0 -0.00000000000E+00 -0.00000000000E+00 -0.74505805969E-08  0.93827000000E+00  0.93827000000E+00 0.  1.
     999902    2    1    2    0    0 -0.13332724878E-01  0.84426193686E-02 -0.11043809313E-01  0.10246685074E+01  0.10244874547E+01 0.  0.
     999903    2    3    3    0    0  0.12353172011E+00 -0.18895584189E-02 -0.45807474037E-01  0.13335086332E+00  0.20505408222E-01 0.  0.
         14    1    1    2    0    0  0.13332724878E-01 -0.84426193686E-02  0.11043809313E-01  0.19261492637E-01  0.00000000000E+00 0. -1.
     999901    1    3    3    0    0 -0.13686444499E+00  0.10332177788E-01  0.34763664725E-01  0.89131764404E+00  0.88000000000E+00 0.  1.
        -11    1    4    4    0    0  0.61299103132E-01 -0.43861750970E-02 -0.12487889693E-01  0.62713850837E-01  0.51100000000E-03 0. -1.
         11    1    4    4    0    0  0.62232616976E-01  0.24966166781E-02 -0.33319584345E-01  0.70637012482E-01  0.51100000000E-03 0.  1.
</event>
<event>
 8    1  0.1112958E+005  0.1043930E+01  0.7957747E-01            NaN
         13   -1    0    0    0    0  0.00000000000E+00  0.00000000000E+00  0.74505805969E-08  0.10566000000E+00  0.10566000000E+00 0. -1.
     999900   -1    0    0    0    0 -0.00000000000E+00 -0.00000000000E+00 -0.74505805969E-08  0.93827000000E+00  0.93827000000E+00 0.  1.
     999902    2    1    2    0    0  0.51902354251E-03 -0.23365851268E-01 -0.64499252117E-03  0.10205494866E+01  0.10202816308E+01 0.  0.
     999903    2    3    3    0    0  0.11461879957E+00 -0.91609024911E-02  0.59771851866E-01  0.13101548808E+00  0.19261165381E-01 0.  0.
         14    1    1    2    0    0 -0.51902354251E-03  0.23365851268E-01  0.64499252117E-03  0.23380513387E-01  0.00000000000E+00 0.  1.
     999901    1    3    3    0    0 -0.11409977603E+00 -0.14204948776E-01 -0.60416844387E-01  0.88953399853E+00  0.88000000000E+00 0. -1.
        -11    1    4    4    0    0  0.53415066577E-01  0.35584690369E-02  0.21333964561E-01  0.57630124104E-01  0.51100000000E-03 0.  1.
         11    1    4    4    0    0  0.61203732994E-01 -0.12719371528E-01  0.38437887305E-01  0.73385363976E-01  0.51100000000E-03 0. -1.
</event>
<event>
 8    1  0.1112958E+005  0.1043930E+01  0.7957747E-01            NaN
         13   -1    0    0    0    0  0.00000000000E+00  0.00000000000E+00  0.74505805969E-08  0.10566000000E+00  0.10566000000E+00 0.  1.
     999900   -1    0    0    0    0 -0.00000000000E+00 -0.00000000000E+00 -0.74505805969E-08  0.93827000000E+00  0.93827000000E+00 0. -1.
     999902    2    1    2    0    0 -0.22028426703E-01  0.11434750031E-01 -0.57647934314E-02  0.10184498521E+01  0.10181310640E+01 0.  0.
     999903    2    3    3    0    0  0.38786896447E-01 -0.72171074419E-01  0.94501246192E-01  0.12674266023E+00  0.20497050328E-01 0.  0.
         14    1    1    2    0    0  0.22028426703E-01 -0.11434750031E-01  0.57647934314E-02  0.25480147852E-01  0.00000000000E+00 0.  1.
     999901    1    3    3    0    0 -0.60815323150E-01  0.83605824450E-01 -0.10026603962E+00  0.89170719192E+00  0.88000000000E+00 0. -1.
        -11    1    4    4    0    0  0.37675297002E-01 -0.51969209414E-01  0.73236470017E-01  0.97386181735E-01  0.51100000000E-03 0. -1.
         11    1    4    4    0    0  0.11115994452E-02 -0.20201865005E-01  0.21264776175E-01  0.29356478498E-01  0.51100000000E-03 0.  1.
</event>
<event>
 8    1  0.1112958E+005  0.1043930E+01  0.7957747E-01            NaN
         13   -1    0    0    0    0  0.00000000000E+00  0.00000000000E+00  0.74505805969E-08  0.10566000000E+00  0.10566000000E+00 0. -1.
     999900   -1    0    0    0    0 -0.00000000000E+00 -0.00000000000E+00 -0.74505805969E-08  0.93827000000E+00  0.93827000000E+00 0. -1.
     999902    2    1    2    0    0  0.11339612971E-01 -0.18893555219E-01 -0.58709482402E-02  0.10211260248E+01  0.10208713618E+01 0.  0.
     999903    2    3    3    0    0  0.71514704723E-01  0.82275065262E-01 -0.69800046333E-01  0.13098948415E+00  0.20066368245E-01 0.  0.
         14    1    1    2    0    0 -0.11339612971E-01  0.18893555219E-01  0.58709482402E-02  0.22803975188E-01  0.00000000000E+00 0. -1.
     999901    1    3    3    0    0 -0.60175091752E-01 -0.10116862048E+00  0.63929098093E-01  0.89013654066E+00  0.88000000000E+00 0.  1.
        -11    1    4    4    0    0  0.59246908606E-01  0.61789504151E-01 -0.62572558936E-01  0.10603643362E+00  0.51100000000E-03 0. -1.
         11    1    4    4    0    0  0.12267796117E-01  0.20485561111E-01 -0.72274873972E-02  0.24953050528E-01  0.51100000000E-03 0.  1.
</event>
<event>
 8    1  0.1112958E+005  0.1043930E+01  0.7957747E-01            NaN
         13   -1    0    0    0    0  0.00000000000E+00  0.00000000000E+00  0.74505805969E-08  0.10566000000E+00  0.10566000000E+00 0.  1.
     999900   -1    0    0    0    0 -0.00000000000E+00 -0.00000000000E+00 -0.74505805969E-08  0.93827000000E+00  0.93827000000E+00 0. -1.
     999902    2    1    2    0    0 -0.15321885733E-01  0.76498402798E-02 -0.11388619643E-01  0.10233635006E+01  0.10231568177E+01 0.  0.
     999903    2    3    3    0    0 -0.71460391587E-01  0.54863103828E-01  0.96785232461E-01  0.13371064341E+00  0.19864722769E-01 0.  0.
         14    1    1    2    0    0  0.15321885733E-01 -0.76498402798E-02  0.11388619643E-01  0.20566499364E-01  0.00000000000E+00 0.  1.
     999901    1    3    3    0    0  0.56138505854E-01 -0.47213263548E-01 -0.10817385210E+00  0.88965285723E+00  0.88000000000E+00 0.  1.
        -11    1    4    4    0    0 -0.61955605741E-01  0.40180672843E-01  0.70233054075E-01  0.10191136619E+00  0.51100000000E-03 0. -1.
         11    1    4    4    0    0 -0.95047858458E-02  0.14682430984E-01  0.26552178386E-01  0.31799277218E-01  0.51100000000E-03 0.  1.
</event>
<event>
 8    1  0.1112958E+005  0.1043930E+01  0.7957747E-01            NaN
         13   -1    0    0    0    0  0.00000000000E+00  0.00000000000E+00  0.74505805969E-08  0.10566000000E+00  0.10566000000E+00 0. -1.
     999900   -1    0    0    0    0 -0.00000000000E+00 -0.00000000000E+00 -0.74505805969E-08  0.93827000000E+00  0.93827000000E+00 0. -1.
     999902    2    1    2    0    0 -0.99814507095E-02 -0.97223062335E-02 -0.19905492321E-01  0.10196322383E+01  0.10193426903E+01 0.  0.
     999903    2    3    3    0    0  0.68263321214E-01  0.63816031117E-01  0.83596768114E-01  0.12708372465E+00  0.20724058013E-01 0.  0.
         14    1    1    2    0    0  0.99814507095E-02  0.97223062335E-02  0.19905492321E-01  0.24297761652E-01  0.00000000000E+00 0. -1.
     999901    1    3    3    0    0 -0.78244771923E-01 -0.73538337351E-01 -0.10350226043E+00  0.89254851370E+00  0.88000000000E+00 0. -1.
        -11    1    4    4    0    0  0.38643815280E-01  0.48131530890E-01  0.60068692385E-01  0.86130700979E-01  0.51100000000E-03 0.  1.
         11    1    4    4    0    0  0.29619505934E-01  0.15684500228E-01  0.23528075728E-01  0.40953023669E-01  0.51100000000E-03 0. -1.
</event>
<event>
 8    1  0.1112958E+005  0.1043930E+01  0.7957747E-01            NaN
         13   -1    0    0    0    0  0.00000000000E+00  0.00000000000E+00  0.74505805969E-08  0.10566000000E+00  0.10566000000E+00 0. -1.
     999900   -1    0    0    0    0 -0.00000000000E+00 -0.00000000000E+00 -0.74505805969E-08  0.93827000000E+00  0.93827000000E+00 0. -1.
     999902    2    1    2    0    0 -0.43591632422E-02  0.99326516059E-02  0.20310966201E-01  0.10209040316E+01  0.10206443291E+01 0.  0.
     999903    2    3    3    0    0  0.12713924993E+00  0.84137316172E-02 -0.18378912484E-01  0.13029129507E+00  0.20071307732E-01 0.  0.
         14    1    1    2    0    0  0.43591632422E-02 -0.99326516059E-02 -0.20310966201E-01  0.23025968386E-01  0.00000000000E+00 0.  1.
     999901    1    3    3    0    0 -0.13149841317E+00  0.15189199887E-02  0.38689878685E-01  0.89061273655E+00  0.88000000000E+00 0.  1.
        -11    1    4    4    0    0  0.35172771162E-01  0.11351642632E-01 -0.44999183564E-02  0.37235655062E-01  0.51100000000E-03 0. -1.
         11    1    4    4    0    0  0.91966478768E-01 -0.29379110145E-02 -0.13878994128E-01  0.93055640007E-01  0.51100000000E-03 0.  1.
</event>
<event>
 8    1  0.1112958E+005  0.1043930E+01  0.7957747E-01            NaN
         13   -1    0    0    0    0  0.00000000000E+00  0.00000000000E+00  0.74505805969E-08  0.10566000000E+00  0.10566000000E+00 0.  1.
     999900   -1    0    0    0    0 -0.00000000000E+00 -0.00000000000E+00 -0.74505805969E-08  0.93827000000E+00  0.93827000000E+00 0. -1.
     999902    2    1    2    0    0  0.65063632306E-02 -0.18681308767E-01  0.11340888345E-01  0.10211278113E+01  0.10208731886E+01 0.  0.
     999903    2    3    3    0    0  0.10531823852E+00 -0.70599233874E-01  0.37578985718E-01  0.13368897096E+00  0.19605550228E-01 0.  0.
         14    1    1    2    0    0 -0.65063632306E-02  0.18681308767E-01 -0.11340888345E-01  0.22802188671E-01  0.00000000000E+00 0. -1.
     999901    1    3    3    0    0 -0.98811875289E-01  0.51917925108E-01 -0.26238097374E-01  0.88743884037E+00  0.88000000000E+00 0.  1.
        -11    1    4    4    0    0  0.47351362352E-01 -0.28597666680E-01  0.66878618201E-02  0.55722227816E-01  0.51100000000E-03 0. -1.
         11    1    4    4    0    0  0.57966876168E-01 -0.42001567195E-01  0.30891123898E-01  0.77966743142E-01  0.51100000000E-03 0.  1.
</event>
<event>
 8    1  0.1112958E+005  0.1043930E+01  0.7957747E-01            NaN
         13   -1    0    0    0    0  0.00000000000E+00  0.00000000000E+00  0.74505805969E-08  0.10566000000E+00  0.10566000000E+00 0.  1.
     999900   -1    0    0    0    0 -0.00000000000E+00 -0.00000000000E+00 -0.74505805969E-08  0.93827000000E+00  0.93827000000E+00 0. -1.
     999902    2    1    2    0    0 -0.11982967701E-01 -0.64901417189E-02 -0.20497255806E-01  0.10193159603E+01  0.10190187319E+01 0.  0.
     999903    2    3    3    0    0  0.90662620150E-01  0.76777330556E-01  0.41122278253E-01  0.12731452778E+00  0.20086762718E-01 0.  0.
         14    1    1    2    0    0  0.11982967701E-01  0.64901417189E-02  0.20497255806E-01  0.24614039693E-01  0.00000000000E+00 0.  1.
     999901    1    3    3    0    0 -0.10264558785E+00 -0.83267472275E-01 -0.61619534059E-01  0.89200143252E+00  0.88000000000E+00 0. -1.
        -11    1    4    4    0    0  0.36081554182E-01  0.43354709909E-01  0.21579520567E-01  0.60394091204E-01  0.51100000000E-03 0. -1.
         11    1    4    4    0    0  0.54581065967E-01  0.33422620647E-01  0.19542757687E-01  0.66920436580E-01  0.51100000000E-03 0.  1.
</event>
<event>
 7    1  0.1112958E+005  0.1043930E+01  0.7957747E-01            NaN
         13   -1    0    0    0    0  0.00000000000E+00  0.00000000000E+00  0.74505805969E-08  0.10566000000E+00  0.10566000000E+00 0. -1.
     999900   -1    0    0    0    0 -0.00000000000E+00 -0.00000000000E+00 -0.74505805969E-08  0.93827000000E+00  0.93827000000E+00 0. -1.
     999903    2    1    2    0    0 -0.79434875377E-01 -0.49708723547E-01 -0.46734943277E-01  0.10663989815E+00  0.20175637081E-01 0.  0.
         14    1    1    2    0    0 -0.97841469631E-02  0.37472328568E-01 -0.30545825266E-01  0.49324967119E-01  0.00000000000E+00 0.  1.
     999901    1    1    2    0    0  0.89219022340E-01  0.12236394978E-01  0.77280768544E-01  0.88796513473E+00  0.88000000000E+00 0.  1.
        -11    1    3    3    0    0 -0.53374381722E-01 -0.21849846437E-01 -0.26900923851E-01  0.63640877104E-01  0.51100000000E-03 0. -1.
         11    1    3    3    0    0 -0.26060493655E-01 -0.27858877109E-01 -0.19834019427E-01  0.42999021046E-01  0.51100000000E-03 0.  1.
</event>
<event>
 8    1  0.1112958E+005  0.1043930E+01  0.7957747E-01            NaN
         13   -1    0    0    0    0  0.00000000000E+00  0.00000000000E+00  0.74505805969E-08  0.10566000000E+00  0.10566000000E+00 0. -1.
     999900   -1    0    0    0    0 -0.00000000000E+00 -0.00000000000E+00 -0.74505805969E-08  0.93827000000E+00  0.93827000000E+00 0.  1.
     999902    2    1    2    0    0 -0.23740474340E-01 -0.21682098662E-02 -0.56014149696E-02  0.10194414903E+01  0.10191473226E+01 0.  0.
     999903    2    3    3    0    0  0.10194498696E+00 -0.37689143528E-01  0.62496280508E-01  0.12719944468E+00  0.21463032032E-01 0.  0.
         14    1    1    2    0    0  0.23740474340E-01  0.21682098662E-02  0.56014149696E-02  0.24488509665E-01  0.00000000000E+00 0. -1.
     999901    1    3    3    0    0 -0.12568546130E+00  0.35520933662E-01 -0.68097695477E-01  0.89224204566E+00  0.88000000000E+00 0.  1.
        -11    1    4    4    0    0  0.43981509182E-01 -0.19711815179E-01  0.16136016001E-01  0.50828741289E-01  0.51100000000E-03 0. -1.
         11    1    4    4    0    0  0.57963477773E-01 -0.17977328349E-01  0.46360264507E-01  0.76370703390E-01  0.51100000000E-03 0.  1.
</event>
<event>
 8    1  0.1112958E+005  0.1043930E+01  0.7957747E-01            NaN
         13   -1    0    0    0    0  0.00000000000E+00  0.00000000000E+00  0.74505805969E-08  0.10566000000E+00  0.10566000000E+00 0. -1.
     999900   -1    0    0    0    0 -0.00000000000E+00 -0.00000000000E+00 -0.74505805969E-08  0.93827000000E+00  0.93827000000E+00 0.  1.
     999902    2    1    2    0    0 -0.13396794475E-01  0.87205026347E-02 -0.20071740754E-01  0.10182707708E+01  0.10179474282E+01 0.  0.
     999903    2    3    3    0    0 -0.56967517928E-01  0.39405127514E-01 -0.11200310177E+00  0.13187845960E+00  0.70122126356E-02 0.  0.
         14    1    1    2    0    0  0.13396794475E-01 -0.87205026347E-02  0.20071740754E-01  0.25659229242E-01  0.00000000000E+00 0.  1.
     999901    1    3    3    0    0  0.43570723454E-01 -0.30684624879E-01  0.91931361017E-01  0.88639231116E+00  0.88000000000E+00 0. -1.
        -11    1    4    4    0    0 -0.53116171661E-01  0.34415342003E-01 -0.10228313876E+00  0.12028235553E+00  0.51100000000E-03 0.  1.
         11    1    4    4    0    0 -0.38513462674E-02  0.49897855110E-02 -0.97199630159E-02  0.11596104068E-01  0.51100000000E-03 0. -1.
</event>
<event>
 8    1  0.1112958E+005  0.1043930E+01  0.7957747E-01            NaN
         13   -1    0    0    0    0  0.00000000000E+00  0.00000000000E+00  0.74505805969E-08  0.10566000000E+00  0.10566000000E+00 0.  1.
     999900   -1    0    0    0    0 -0.00000000000E+00 -0.00000000000E+00 -0.74505805969E-08  0.93827000000E+00  0.93827000000E+00 0.  1.
     999902    2    1    2    0    0  0.14460728677E-01 -0.10761796558E-01  0.15293585781E-01  0.10202905688E+01  0.10200166774E+01 0.  0.
     999903    2    3    3    0    0 -0.45787944110E-01  0.11856926013E+00  0.38900479797E-02  0.12872651312E+00  0.20004435356E-01 0.  0.
         14    1    1    2    0    0 -0.14460728677E-01  0.10761796558E-01 -0.15293585781E-01  0.23639431150E-01  0.00000000000E+00 0. -1.
     999901    1    3    3    0    0  0.60248672788E-01 -0.12933105668E+00  0.11403537802E-01  0.89156405573E+00  0.88000000000E+00 0. -1.
        -11    1    4    4    0    0 -0.42167701008E-01  0.10671820848E+00 -0.24988763498E-02  0.11477541781E+00  0.51100000000E-03 0. -1.
         11    1    4    4    0    0 -0.36202431022E-02  0.11851051645E-01  0.63889243296E-02  0.13951095308E-01  0.51100000000E-03 0.  1.
</event>
<event>
 8    1  0.1112958E+005  0.1043930E+01  0.7957747E-01            NaN
         13   -1    0    0    0    0  0.00000000000E+00  0.00000000000E+00  0.74505805969E-08  0.10566000000E+00  0.10566000000E+00 0.  1.
     999900   -1    0    0    0    0 -0.00000000000E+00 -0.00000000000E+00 -0.74505805969E-08  0.93827000000E+00  0.93827000000E+00 0. -1.
     999902    2    1    2    0    0 -0.47673392165E-02  0.18772346977E-01  0.13413402018E-01  0.10203705457E+01  0.10200985259E+01 0.  0.
     999903    2    3    3    0    0  0.48507132441E-01  0.13441844235E-01 -0.11723016522E+00  0.12911619071E+00  0.19860865833E-01 0.  0.
         14    1    1    2    0    0  0.47673392165E-02 -0.18772346977E-01 -0.13413402018E-01  0.23559454322E-01  0.00000000000E+00 0. -1.
     999901    1    3    3    0    0 -0.53274471657E-01  0.53305027415E-02  0.13064356724E+00  0.89125435497E+00  0.88000000000E+00 0.  1.
        -11    1    4    4    0    0  0.15301672271E-01 -0.23235141769E-02 -0.20914277448E-01  0.26023220680E-01  0.51100000000E-03 0. -1.
         11    1    4    4    0    0  0.33205460170E-01  0.15765358412E-01 -0.96315887773E-01  0.10309297003E+00  0.51100000000E-03 0.  1.
</event>
<event>
 8    1  0.1112958E+005  0.1043930E+01  0.7957747E-01            NaN
         13   -1    0    0    0    0  0.00000000000E+00  0.00000000000E+00  0.74505805969E-08  0.10566000000E+00  0.10566000000E+00 0. -1.
     999900   -1    0    0    0    0 -0.00000000000E+00 -0.00000000000E+00 -0.74505805969E-08  0.93827000000E+00  0.93827000000E+00 0.  1.
     999902    2    1    2    0    0 -0.23257821754E-01 -0.67553038199E-02  0.67258378599E-03  0.10197016536E+01  0.10194137774E+01 0.  0.
     999903    2    3    3    0    0 -0.40935888296E-01 -0.11052779730E+00 -0.55213070164E-01  0.13166761662E+00  0.19893145126E-01 0.  0.
         14    1    1    2    0    0  0.23257821754E-01  0.67553038199E-02 -0.67258378599E-03  0.24228346444E-01  0.00000000000E+00 0. -1.
     999901    1    3    3    0    0  0.17678066542E-01  0.10377249348E+00  0.55885653950E-01  0.88803403694E+00  0.88000000000E+00 0. -1.
        -11    1    4    4    0    0 -0.18449948041E-01 -0.60326993305E-01 -0.19300783072E-01  0.65973692121E-01  0.51100000000E-03 0.  1.
         11    1    4    4    0    0 -0.22485940255E-01 -0.50200803995E-01 -0.35912287092E-01  0.65693924499E-01  0.51100000000E-03 0. -1.
</event>
<event>
 8    1  0.1112958E+005  0.1043930E+01  0.7957747E-01            NaN
         13   -1    0    0    0    0  0.00000000000E+00  0.00000000000E+00  0.74505805969E-08  0.10566000000E+00  0.10566000000E+00 0.  1.
     999900   -1    0    0    0    0 -0.00000000000E+00 -0.00000000000E+00 -0.74505805969E-08  0.93827000000E+00  0.93827000000E+00 0. -1.
     999902    2    1    2    0    0 -0.22868066943E-01  0.53268378953E-02 -0.55413131304E-02  0.10198047054E+01  0.10195193021E+01 0.  0.
     999903    2    3    3    0    0 -0.68210425301E-01  0.18388360810E-01 -0.11019502961E+00  0.13234826523E+00  0.19553128308E-01 0.  0.
         14    1    1    2    0    0  0.22868066943E-01 -0.53268378953E-02  0.55413131304E-02  0.24125294587E-01  0.00000000000E+00 0.  1.
     999901    1    3    3    0    0  0.45342358358E-01 -0.13061522915E-01  0.10465371648E+00  0.88745644018E+00  0.88000000000E+00 0.  1.
        -11    1    4    4    0    0 -0.43622690565E-01  0.15735917728E-01 -0.86213938334E-01  0.97896182372E-01  0.51100000000E-03 0.  1.
         11    1    4    4    0    0 -0.24587734736E-01  0.26524430828E-02 -0.23981091276E-01  0.34452082862E-01  0.51100000000E-03 0. -1.
</event>
<event>
 8    1  0.1112958E+005  0.1043930E+01  0.7957747E-01            NaN
         13   -1    0    0    0    0  0.00000000000E+00  0.00000000000E+00  0.74505805969E-08  0.10566000000E+00  0.10566000000E+00 0.  1.
     999900   -1    0    0    0    0 -0.00000000000E+00 -0.00000000000E+00 -0.74505805969E-08  0.93827000000E+00  0.93827000000E+00 0. -1.
     999902    2    1    2    0    0 -0.76232961801E-02  0.16007706491E-01  0.16979691976E-01  0.10193806364E+01  0.10190849870E+01 0.  0.
     999903    2    3    3    0    0  0.54077182623E-02 -0.29413313023E-01 -0.12189535056E+00  0.12723762448E+00  0.20893783626E-01 0.  0.
         14    1    1    2    0    0  0.76232961801E-02 -0.16007706491E-01 -0.16979691976E-01  0.24549363563E-01  0.00000000000E+00 0. -1.
     999901    1    3    3    0    0 -0.13031014442E-01  0.45421019514E-01  0.13887504254E+00  0.89214301196E+00  0.88000000000E+00 0.  1.
        -11    1    4    4    0    0  0.62909223922E-02 -0.29729312357E-01 -0.84029882436E-01  0.89357092505E-01  0.51100000000E-03 0. -1.
         11    1    4    4    0    0 -0.88320412994E-03  0.31599933345E-03 -0.37865468125E-01  0.37880531971E-01  0.51100000000E-03 0.  1.
</event>
<event>
 7    1  0.1112958E+005  0.1043930E+01  0.7957747E-01            NaN
         13   -1    0    0    0    0  0.00000000000E+00  0.00000000000E+00  0.74505805969E-08  0.10566000000E+00  0.10566000000E+00 0.  1.
     999900   -1    0    0    0    0 -0.00000000000E+00 -0.00000000000E+00 -0.74505805969E-08  0.93827000000E+00  0.93827000000E+00 0.  1.
     999903    2    1    2    0    0  0.95638065646E-01  0.31233147813E-01  0.23998021268E-01  0.10531897439E+00  0.19850244785E-01 0.  0.
         14    1    1    2    0    0 -0.39532945117E-01 -0.40212687123E-01 -0.43771077103E-02  0.56560348542E-01  0.00000000000E+00 0.  1.
     999901    1    1    2    0    0 -0.56105120529E-01  0.89795393099E-02 -0.19620913558E-01  0.88205067707E+00  0.88000000000E+00 0.  1.
        -11    1    3    3    0    0  0.22989552653E-01  0.15540508479E-01  0.20948731538E-02  0.27833011866E-01  0.51100000000E-03 0. -1.
         11    1    3    3    0    0  0.72648512993E-01  0.15692639334E-01  0.21903148114E-01  0.77485962520E-01  0.51100000000E-03 0.  1.
</event>
<event>
 8    1  0.1112958E+005  0.1043930E+01  0.7957747E-01            NaN
         13   -1    0    0    0    0  0.00000000000E+00  0.00000000000E+00  0.74505805969E-08  0.10566000000E+00  0.10566000000E+00 0.  1.
     999900   -1    0    0    0    0 -0.00000000000E+00 -0.00000000000E+00 -0.74505805969E-08  0.93827000000E+00  0.93827000000E+00 0.  1.
     999902    2    1    2    0    0  0.70656839093E-02 -0.19140050594E-01  0.13126498683E-01  0.10196695302E+01  0.10193808810E+01 0.  0.
     999903    2    3    3    0    0 -0.64713650647E-01  0.52776277458E-01 -0.94033398249E-01  0.12736494399E+00  0.20158296784E-01 0.  0.
         14    1    1    2    0    0 -0.70656839093E-02  0.19140050594E-01 -0.13126498683E-01  0.24260469772E-01  0.00000000000E+00 0.  1.
     999901    1    3    3    0    0  0.71779334556E-01 -0.71916328052E-01  0.10715989693E+00  0.89230458624E+00  0.88000000000E+00 0. -1.
        -11    1    4    4    0    0 -0.29729601723E-01  0.22544273760E-01 -0.27551120538E-01  0.46383389935E-01  0.51100000000E-03 0. -1.
         11    1    4    4    0    0 -0.34984048924E-01  0.30232003698E-01 -0.66482277711E-01  0.80981554056E-01  0.51100000000E-03 0.  1.
</event>
<event>
 8    1  0.1112958E+005  0.1043930E+01  0.7957747E-01            NaN
         13   -1    0    0    0    0  0.00000000000E+00  0.00000000000E+00  0.74505805969E-08  0.10566000000E+00  0.10566000000E+00 0.  1.
     999900   -1    0    0    0    0 -0.00000000000E+00 -0.00000000000E+00 -0.74505805969E-08  0.93827000000E+00  0.93827000000E+00 0. -1.
     999902    2    1    2    0    0  0.30142729291E-02  0.18518722817E-01  0.14291563416E-01  0.10203444595E+01  0.10200718300E+01 0.  0.
     999903    2    3    3    0    0 -0.14855961707E-01 -0.47131422141E-03 -0.12638625740E+00  0.12878951668E+00  0.19807367601E-01 0.  0.
         14    1    1    2    0    0 -0.30142729291E-02 -0.18518722817E-01 -0.14291563416E-01  0.23585540506E-01  0.00000000000E+00 0. -1.
     999901    1    3    3    0    0  0.17870234636E-01  0.18990037039E-01  0.14067782082E+00  0.89155494282E+00  0.88000000000E+00 0.  1.
        -11    1    4    4    0    0 -0.70708531756E-02 -0.90934249541E-02 -0.85769907642E-01  0.86541467055E-01  0.51100000000E-03 0.  1.
         11    1    4    4    0    0 -0.77851085311E-02  0.86221107327E-02 -0.40616349757E-01  0.42248049622E-01  0.51100000000E-03 0. -1.
</event>
<event>
 8    1  0.1112958E+005  0.1043930E+01  0.7957747E-01            NaN
         13   -1    0    0    0    0  0.00000000000E+00  0.00000000000E+00  0.74505805969E-08  0.10566000000E+00  0.10566000000E+00 0. -1.
     999900   -1    0    0    0    0 -0.00000000000E+00 -0.00000000000E+00 -0.74505805969E-08  0.93827000000E+00  0.93827000000E+00 0. -1.
     999902    2    1    2    0    0  0.37739158054E-02 -0.22636409599E-01  0.56965497935E-02  0.10202847011E+01  0.10200106721E+01 0.  0.
     999903    2    3    3    0    0  0.52195066809E-01 -0.12134758911E+00  0.67571905863E-02  0.13344219548E+00  0.17652125321E-01 0.  0.
         14    1    1    2    0    0 -0.37739158054E-02  0.22636409599E-01 -0.56965497935E-02  0.23645298890E-01  0.00000000000E+00 0.  1.
     999901    1    3    3    0    0 -0.48421151004E-01  0.98711179513E-01 -0.10606407927E-02  0.88684250563E+00  0.88000000000E+00 0.  1.
        -11    1    4    4    0    0  0.45365495536E-01 -0.91025721855E-01  0.99605354181E-02  0.10219189602E+00  0.51100000000E-03 0.  1.
         11    1    4    4    0    0  0.68295712734E-02 -0.30321867257E-01 -0.32033448319E-02  0.31250299469E-01  0.51100000000E-03 0. -1.
</event>
<event>
 8    1  0.1112958E+005  0.1043930E+01  0.7957747E-01            NaN
         13   -1    0    0    0    0  0.00000000000E+00  0.00000000000E+00  0.74505805969E-08  0.10566000000E+00  0.10566000000E+00 0.  1.
     999900   -1    0    0    0    0 -0.00000000000E+00 -0.00000000000E+00 -0.74505805969E-08  0.93827000000E+00  0.93827000000E+00 0. -1.
     999902    2    1    2    0    0 -0.11270336781E-01  0.15200641629E-01 -0.14346582800E-01  0.10201833279E+01  0.10199069164E+01 0.  0.
     999903    2    3    3    0    0 -0.54308791699E-01 -0.78370819071E-01  0.84188210792E-01  0.12871429738E+00  0.19704958140E-01 0.  0.
         14    1    1    2    0    0  0.11270336781E-01 -0.15200641629E-01  0.14346582800E-01  0.23746672085E-01  0.00000000000E+00 0.  1.
     999901    1    3    3    0    0  0.43038454917E-01  0.93571460700E-01 -0.98534793592E-01  0.89146903054E+00  0.88000000000E+00 0.  1.
        -11    1    4    4    0    0 -0.73161037866E-02 -0.19352484184E-01  0.27136589238E-01  0.34127695721E-01  0.51100000000E-03 0. -1.
         11    1    4    4    0    0 -0.46992687912E-01 -0.59018334887E-01  0.57051621554E-01  0.94586601657E-01  0.51100000000E-03 0.  1.
</event>
<event>
 8    1  0.1112958E+005  0.1043930E+01  0.7957747E-01            NaN
         13   -1    0    0    0    0  0.00000000000E+00  0.00000000000E+00  0.74505805969E-08  0.10566000000E+00  0.10566000000E+00 0.  1.
     999900   -1    0    0    0    0 -0.00000000000E+00 -0.00000000000E+00 -0.74505805969E-08  0.93827000000E+00  0.93827000000E+00 0.  1.
     999902    2    1    2    0    0 -0.22231037187E-01  0.71769616854E-02  0.22871367797E-02  0.10204574887E+01  0.10201874962E+01 0.  0.
     999903    2    3    3    0    0 -0.92489603367E-01 -0.98444329278E-02  0.92661898305E-01  0.13288011654E+00  0.20485565254E-01 0.  0.
         14    1    1    2    0    0  0.22231037187E-01 -0.71769616854E-02 -0.22871367797E-02  0.23472511329E-01  0.00000000000E+00 0.  1.
     999901    1    3    3    0    0  0.70258566179E-01  0.17021394613E-01 -0.90374761525E-01  0.88757737213E+00  0.88000000000E+00 0.  1.
        -11    1    4    4    0    0 -0.35674703800E-01  0.45523815687E-02  0.27802434299E-01  0.45460368928E-01  0.51100000000E-03 0.  1.
         11    1    4    4    0    0 -0.56814899567E-01 -0.14396814497E-01  0.64859464007E-01  0.87419747613E-01  0.51100000000E-03 0. -1.
</event>
<event>
 8    1  0.1112958E+005  0.1043930E+01  0.7957747E-01            NaN
         13   -1    0    0    0    0  0.00000000000E+00  0.00000000000E+00  0.74505805969E-08  0.10566000000E+00  0.10566000000E+00 0.  1.
     999900   -1    0    0    0    0 -0.00000000000E+00 -0.00000000000E+00 -0.74505805969E-08  0.93827000000E+00  0.93827000000E+00 0. -1.
     999902    2    1    2    0    0 -0.63480753312E-02  0.21966751067E-01 -0.73401297017E-02  0.10199151355E+01  0.10196323700E+01 0.  0.
     999903    2    3    3    0    0 -0.11000695715E+00 -0.40574743410E-01  0.52068016831E-01  0.12964218287E+00  0.18659495638E-01 0.  0.
         14    1    1    2    0    0  0.63480753312E-02 -0.21966751067E-01  0.73401297017E-02  0.24014864499E-01  0.00000000000E+00 0. -1.
     999901    1    3    3    0    0  0.10365888182E+00  0.62541494477E-01 -0.59408146533E-01  0.89027295263E+00  0.88000000000E+00 0. -1.
        -11    1    4    4    0    0 -0.93727924833E-01 -0.37057132424E-01  0.37597231541E-01  0.10757308166E+00  0.51100000000E-03 0.  1.
         11    1    4    4    0    0 -0.16279032322E-01 -0.35176109860E-02  0.14470785290E-01  0.22069101212E-01  0.51100000000E-03 0. -1.
</event>
<event>
 8    1  0.1112958E+005  0.1043930E+01  0.7957747E-01            NaN
         13   -1    0    0    0    0  0.00000000000E+00  0.00000000000E+00  0.74505805969E-08  0.10566000000E+00  0.10566000000E+00 0. -1.
     999900   -1    0    0    0    0 -0.00000000000E+00 -0.00000000000E+00 -0.74505805969E-08  0.93827000000E+00  0.93827000000E+00 0.  1.
     999902    2    1    2    0    0 -0.10494713859E-02 -0.37001531781E-02 -0.23000874676E-01  0.10206097779E+01  0.10203433177E+01 0.  0.
     999903    2    3    3    0    0 -0.56189284784E-02  0.12872170594E+00 -0.31863001027E-02  0.13046987535E+00  0.20282650936E-01 0.  0.
         14    1    1    2    0    0  0.10494713859E-02  0.37001531781E-02  0.23000874676E-01  0.23320222117E-01  0.00000000000E+00 0. -1.
     999901    1    3    3    0    0  0.45694570926E-02 -0.13242185912E+00 -0.19814574574E-01  0.89013990253E+00  0.88000000000E+00 0.  1.
        -11    1    4    4    0    0 -0.76716989506E-02  0.73537342263E-01  0.71603272619E-02  0.74284097083E-01  0.51100000000E-03 0. -1.
         11    1    4    4    0    0  0.20527704721E-02  0.55184363676E-01 -0.10346627365E-01  0.56185778270E-01  0.51100000000E-03 0.  1.
</event>
<event>
 8    1  0.1112958E+005  0.1043930E+01  0.7957747E-01            NaN
         13   -1    0    0    0    0  0.00000000000E+00  0.00000000000E+00  0.74505805969E-08  0.10566000000E+00  0.10566000000E+00 0.  1.
     999900   -1    0    0    0    0 -0.00000000000E+00 -0.00000000000E+00 -0.74505805969E-08  0.93827000000E+00  0.93827000000E+00 0. -1.
     999902    2    1    2    0    0  0.51519050277E-02  0.64644736960E-02 -0.21514645992E-01  0.10208819732E+01  0.10206217672E+01 0.  0.
     999903    2    3    3    0    0 -0.30230538480E-01 -0.27429301147E-01 -0.12541932633E+00  0.13341541732E+00  0.20085172219E-01 0.  0.
         14    1    1    2    0    0 -0.51519050277E-02 -0.64644736960E-02  0.21514645992E-01  0.23048026765E-01  0.00000000000E+00 0.  1.
     999901    1    3    3    0    0  0.35382443508E-01  0.33893774842E-01  0.10390468033E+00  0.88746655592E+00  0.88000000000E+00 0.  1.
        -11    1    4    4    0    0 -0.29015971621E-01 -0.18785361624E-01 -0.79807649642E-01  0.86973205546E-01  0.51100000000E-03 0.  1.
         11    1    4    4    0    0 -0.12145668593E-02 -0.86439395222E-02 -0.45611676684E-01  0.46442211770E-01  0.51100000000E-03 0. -1.
</event>
<event>
 7    1  0.1112958E+005  0.1043930E+01  0.7957747E-01            NaN
         13   -1    0    0    0    0  0.00000000000E+00  0.00000000000E+00  0.74505805969E-08  0.10566000000E+00  0.10566000000E+00 0. -1.
     999900   -1    0    0    0    0 -0.00000000000E+00 -0.00000000000E+00 -0.74505805969E-08  0.93827000000E+00  0.93827000000E+00 0. -1.
     999903    2    1    2    0    0  0.13708788119E-01  0.92165458313E-01  0.67263547935E-01  0.11644404811E+00  0.18773089283E-01 0.  0.
         14    1    1    2    0    0 -0.21038625313E-01  0.23033290705E-01 -0.23159214351E-01  0.38852354435E-01  0.00000000000E+00 0.  1.
     999901    1    1    2    0    0  0.73298371934E-02 -0.11519874902E+00 -0.44104333584E-01  0.88863359746E+00  0.88000000000E+00 0. -1.
        -11    1    3    3    0    0  0.16026606038E-01  0.46915330020E-01  0.38507789733E-01  0.62777474329E-01  0.51100000000E-03 0. -1.
         11    1    3    3    0    0 -0.23178179184E-02  0.45250128293E-01  0.28755758202E-01  0.53666573779E-01  0.51100000000E-03 0.  1.
</event>
<event>
 8    1  0.1112958E+005  0.1043930E+01  0.7957747E-01            NaN
         13   -1    0    0    0    0  0.00000000000E+00  0.00000000000E+00  0.74505805969E-08  0.10566000000E+00  0.10566000000E+00 0. -1.
     999900   -1    0    0    0    0 -0.00000000000E+00 -0.00000000000E+00 -0.74505805969E-08  0.93827000000E+00  0.93827000000E+00 0. -1.
     999902    2    1    2    0    0 -0.23643393728E-03 -0.21938896896E-01 -0.14535012184E-01  0.10176119895E+01  0.10172716075E+01 0.  0.
     999903    2    3    3    0    0 -0.83184594817E-01 -0.97920124475E-01  0.70224869594E-02  0.13018972805E+00  0.19799554879E-01 0.  0.
         14    1    1    2    0    0  0.23643393728E-03  0.21938896896E-01  0.14535012184E-01  0.26318010510E-01  0.00000000000E+00 0. -1.
     999901    1    3    3    0    0  0.82948160880E-01  0.75981227580E-01 -0.21557499144E-01  0.88742226144E+00  0.88000000000E+00 0. -1.
        -11    1    4    4    0    0 -0.56478060417E-01 -0.77994203478E-01  0.86577008663E-03  0.96300974883E-01  0.51100000000E-03 0. -1.
         11    1    4    4    0    0 -0.26706534400E-01 -0.19925920997E-01  0.61567168728E-02  0.33888753163E-01  0.51100000000E-03 0.  1.
</event>
<event>
 8    1  0.1112958E+005  0.1043930E+01  0.7957747E-01            NaN
         13   -1    0    0    0    0  0.00000000000E+00  0.00000000000E+00  0.74505805969E-08  0.10566000000E+00  0.10566000000E+00 0. -1.
     999900   -1    0    0    0    0 -0.00000000000E+00 -0.00000000000E+00 -0.74505805969E-08  0.93827000000E+00  0.93827000000E+00 0.  1.
     999902    2    1    2    0    0 -0.72849281933E-02 -0.20830622003E-01  0.77851103287E-02  0.10205292963E+01  0.10202609723E+01 0.  0.
     999903    2    3    3    0    0 -0.77783408248E-01 -0.98996982686E-01  0.40199048891E-01  0.13366364747E+00  0.19983641870E-01 0.  0.
         14    1    1    2    0    0  0.72849281933E-02  0.20830622003E-01 -0.77851103287E-02  0.23400703721E-01  0.00000000000E+00 0.  1.
     999901    1    3    3    0    0  0.70498480054E-01  0.78166360682E-01 -0.32413938563E-01  0.88686564881E+00  0.88000000000E+00 0. -1.
        -11    1    4    4    0    0 -0.37882233144E-01 -0.33812027068E-01  0.11832968661E-01  0.52140167153E-01  0.51100000000E-03 0.  1.
         11    1    4    4    0    0 -0.39901175104E-01 -0.65184955618E-01  0.28366080230E-01  0.81523480312E-01  0.51100000000E-03 0. -1.
</event>
<event>
 8    1  0.1112958E+005  0.1043930E+01  0.7957747E-01            NaN
         13   -1    0    0    0    0  0.00000000000E+00  0.00000000000E+00  0.74505805969E-08  0.10566000000E+00  0.10566000000E+00 0. -1.
     999900   -1    0    0    0    0 -0.00000000000E+00 -0.00000000000E+00 -0.74505805969E-08  0.93827000000E+00  0.93827000000E+00 0.  1.
     999902    2    1    2    0    0  0.21651178079E-01 -0.77891098899E-02  0.19059127440E-02  0.10208415560E+01  0.10205804261E+01 0.  0.
     999903    2    3    3    0    0  0.41919752147E-01  0.30563296938E-01  0.12019626920E+00  0.13186780458E+00  0.15830161600E-01 0.  0.
         14    1    1    2    0    0 -0.21651178079E-01  0.77891098899E-02 -0.19059127440E-02  0.23088444046E-01  0.00000000000E+00 0. -1.
     999901    1    3    3    0    0 -0.20268574068E-01 -0.38352406828E-01 -0.11829035645E+00  0.88897375137E+00  0.88000000000E+00 0.  1.
        -11    1    4    4    0    0  0.37472677980E-01  0.31808340019E-01  0.10423357193E+00  0.11524266019E+00  0.51100000000E-03 0. -1.
         11    1    4    4    0    0  0.44470741670E-02 -0.12450430806E-02  0.15962697269E-01  0.16625144391E-01  0.51100000000E-03 0.  1.
</event>
<event>
 8    1  0.1112958E+005  0.1043930E+01  0.7957747E-01            NaN
         13   -1    0    0    0    0  0.00000000000E+00  0.00000000000E+00  0.74505805969E-08  0.10566000000E+00  0.10566000000E+00 0. -1.
     999900   -1    0    0    0    0 -0.00000000000E+00 -0.00000000000E+00 -0.74505805969E-08  0.93827000000E+00  0.93827000000E+00 0. -1.
     999902    2    1    2    0    0 -0.18394304620E-01  0.57246645771E-02 -0.15500818517E-01  0.10192035445E+01  0.10189035614E+01 0.  0.
     999903    2    3    3    0    0 -0.52174166934E-01  0.10909797742E+00 -0.49265058335E-01  0.13186643562E+00  0.18362965364E-01 0.  0.
         14    1    1    2    0    0  0.18394304620E-01 -0.57246645771E-02  0.15500818517E-01  0.24726455502E-01  0.00000000000E+00 0. -1.
     999901    1    3    3    0    0  0.33779862314E-01 -0.10337331284E+00  0.33764239818E-01  0.88733710888E+00  0.88000000000E+00 0.  1.
        -11    1    4    4    0    0 -0.45736208240E-01  0.90775589656E-01 -0.47963625306E-01  0.11239563557E+00  0.51100000000E-03 0. -1.
         11    1    4    4    0    0 -0.64379586936E-02  0.18322387766E-01 -0.13014330291E-02  0.19470800048E-01  0.51100000000E-03 0.  1.
</event>
<event>
 8    1  0.1112958E+005  0.1043930E+01  0.7957747E-01            NaN
         13   -1    0    0    0    0  0.00000000000E+00  0.00000000000E+00  0.74505805969E-08  0.10566000000E+00  0.10566000000E+00 0.  1.
     999900   -1    0    0    0    0 -0.00000000000E+00 -0.00000000000E+00 -0.74505805969E-08  0.93827000000E+00  0.93827000000E+00 0.  1.
     999902    2    1    2    0    0 -0.13368517579E-01  0.19722615802E-01  0.44235485829E-02  0.10196964155E+01  0.10194084133E+01 0.  0.
     999903    2    3    3    0    0  0.62279738138E-01 -0.10678493535E+00  0.23146282635E-01  0.12724061274E+00  0.19303754257E-01 0.  0.
         14    1    1    2    0    0  0.13368517579E-01 -0.19722615802E-01 -0.44235485829E-02  0.24233584514E-01  0.00000000000E+00 0. -1.
     999901    1    3    3    0    0 -0.75648255717E-01  0.12650755116E+00 -0.18722734052E-01  0.89245580275E+00  0.88000000000E+00 0. -1.
        -11    1    4    4    0    0  0.15356837080E-01 -0.42851923420E-01  0.43003080683E-02  0.45726070861E-01  0.51100000000E-03 0. -1.
         11    1    4    4    0    0  0.46922901058E-01 -0.63933011934E-01  0.18845974567E-01  0.81514541875E-01  0.51100000000E-03 0.  1.
</event>
<event>
 8    1  0.1112958E+005  0.1043930E+01  0.7957747E-01            NaN
         13   -1    0    0    0    0  0.00000000000E+00  0.00000000000E+00  0.74505805969E-08  0.10566000000E+00  0.10566000000E+00 0.  1.
     999900   -1    0    0    0    0 -0.00000000000E+00 -0.00000000000E+00 -0.74505805969E-08  0.93827000000E+00  0.93827000000E+00 0. -1.
     999902    2    1    2    0    0 -0.23412053680E-01 -0.21145881136E-02 -0.84142277715E-03  0.10204075908E+01  0.10201364358E+01 0.  0.
     999903    2    3    3    0    0  0.88253673799E-01  0.66365788397E-01 -0.62294292269E-01  0.12859188576E+00  0.21498033052E-01 0.  0.
         14    1    1    2    0    0  0.23412053680E-01  0.21145881136E-02  0.84142277715E-03  0.23522409160E-01  0.00000000000E+00 0.  1.
     999901    1    3    3    0    0 -0.11166572748E+00 -0.68480376510E-01  0.61452869492E-01  0.89181570508E+00  0.88000000000E+00 0.  1.
        -11    1    4    4    0    0  0.53068545837E-01  0.33692650910E-01 -0.24439561987E-01  0.67446412756E-01  0.51100000000E-03 0. -1.
         11    1    4    4    0    0  0.35185127962E-01  0.32673137487E-01 -0.37854730282E-01  0.61145473002E-01  0.51100000000E-03 0.  1.
</event>
<event>
 8    1  0.1112958E+005  0.1043930E+01  0.7957747E-01            NaN
         13   -1    0    0    0    0  0.00000000000E+00  0.00000000000E+00  0.74505805969E-08  0.10566000000E+00  0.10566000000E+00 0. -1.
     999900   -1    0    0    0    0 -0.00000000000E+00 -0.00000000000E+00 -0.74505805969E-08  0.93827000000E+00  0.93827000000E+00 0.  1.
     999902    2    1    2    0    0 -0.17016819771E-01 -0.97577677885E-02 -0.14482099905E-01  0.10195472724E+01  0.10192556712E+01 0.  0.
     999903    2    3    3    0    0 -0.31710668919E-01  0.51977127482E-01  0.11099212093E+00  0.12838461240E+00  0.21358124621E-01 0.  0.
         14    1    1    2    0    0  0.17016819771E-01  0.97577677885E-02  0.14482099905E-01  0.24382727596E-01  0.00000000000E+00 0.  1.
     999901    1    3    3    0    0  0.14693849147E-01 -0.61734895270E-01 -0.12547422083E+00  0.89116266001E+00  0.88000000000E+00 0.  1.
        -11    1    4    4    0    0 -0.29527683986E-01  0.44951803210E-01  0.79117928694E-01  0.95668471793E-01  0.51100000000E-03 0. -1.
         11    1    4    4    0    0 -0.21829849325E-02  0.70253242720E-02  0.31874192235E-01  0.32716140604E-01  0.51100000000E-03 0.  1.
</event>
<event>
 8    1  0.1112958E+005  0.1043930E+01  0.7957747E-01            NaN
         13   -1    0    0    0    0  0.00000000000E+00  0.00000000000E+00  0.74505805969E-08  0.10566000000E+00  0.10566000000E+00 0. -1.
     999900   -1    0    0    0    0 -0.00000000000E+00 -0.00000000000E+00 -0.74505805969E-08  0.93827000000E+00  0.93827000000E+00 0.  1.
     999902    2    1    2    0    0  0.10828650256E-01  0.16520789547E-01 -0.12439133393E-01  0.10205863029E+01  0.10203192998E+01 0.  0.
     999903    2    3    3    0    0 -0.83543823306E-01  0.54534391754E-01  0.81803850832E-01  0.12972551818E+00  0.13537716187E-01 0.  0.
         14    1    1    2    0    0 -0.10828650256E-01 -0.16520789547E-01  0.12439133393E-01  0.23343697077E-01  0.00000000000E+00 0. -1.
     999901    1    3    3    0    0  0.94372473562E-01 -0.38013602206E-01 -0.94242984224E-01  0.89086078474E+00  0.88000000000E+00 0.  1.
        -11    1    4    4    0    0 -0.24789408463E-01  0.22815167373E-01  0.31503040392E-01  0.46127533092E-01  0.51100000000E-03 0. -1.
         11    1    4    4    0    0 -0.58754414843E-01  0.31719224381E-01  0.50300810440E-01  0.83597985088E-01  0.51100000000E-03 0.  1.
</event>
<event>
 8    1  0.1112958E+005  0.1043930E+01  0.7957747E-01            NaN
         13   -1    0    0    0    0  0.00000000000E+00  0.00000000000E+00  0.74505805969E-08  0.10566000000E+00  0.10566000000E+00 0.  1.
     999900   -1    0    0    0    0 -0.00000000000E+00 -0.00000000000E+00 -0.74505805969E-08  0.93827000000E+00  0.93827000000E+00 0. -1.
     999902    2    1    2    0    0 -0.89603033407E-03  0.15763392902E-01 -0.15949775828E-01  0.10214871220E+01  0.10212405483E+01 0.  0.
     999903    2    3    3    0    0  0.26690560068E-01 -0.12451698988E+00 -0.15806968613E-01  0.12994933467E+00  0.20496403505E-01 0.  0.
         14    1    1    2    0    0  0.89603033407E-03 -0.15763392902E-01  0.15949775828E-01  0.22442878048E-01  0.00000000000E+00 0.  1.
     999901    1    3    3    0    0 -0.27586590402E-01  0.14028038279E+00 -0.14280721403E-03  0.89153778729E+00  0.88000000000E+00 0. -1.
        -11    1    4    4    0    0  0.32133468090E-02 -0.27103682650E-01  0.46151834023E-02  0.27685668671E-01  0.51100000000E-03 0.  1.
         11    1    4    4    0    0  0.23477213259E-01 -0.97413307234E-01 -0.20422152016E-01  0.10226366599E+00  0.51100000000E-03 0. -1.
</event>
<event>
 8    1  0.1112958E+005  0.1043930E+01  0.7957747E-01            NaN
         13   -1    0    0    0    0  0.00000000000E+00  0.00000000000E+00  0.74505805969E-08  0.10566000000E+00  0.10566000000E+00 0.  1.
     999900   -1    0    0    0    0 -0.00000000000E+00 -0.00000000000E+00 -0.74505805969E-08  0.93827000000E+00  0.93827000000E+00 0. -1.
     999902    2    1    2    0    0 -0.22433095220E-01 -0.84338121998E-02  0.65614846133E-02  0.10190819411E+01  0.10187789636E+01 0.  0.
     999903    2    3    3    0    0  0.63561555666E-01 -0.87838164091E-01  0.67395401197E-01  0.12924999267E+00  0.20194208935E-01 0.  0.
         14    1    1    2    0    0  0.22433095220E-01  0.84338121998E-02 -0.65614846133E-02  0.24848058872E-01  0.00000000000E+00 0.  1.
     999901    1    3    3    0    0 -0.85994650886E-01  0.79404351891E-01 -0.60833916584E-01  0.88983194845E+00  0.88000000000E+00 0. -1.
        -11    1    4    4    0    0  0.15600646673E-01 -0.35694162522E-01  0.29771181148E-01  0.49030987780E-01  0.51100000000E-03 0.  1.
         11    1    4    4    0    0  0.47960908993E-01 -0.52144001569E-01  0.37624220049E-01  0.80219004895E-01  0.51100000000E-03 0. -1.
</event>
<event>
 8    1  0.1112958E+005  0.1043930E+01  0.7957747E-01            NaN
         13   -1    0    0    0    0  0.00000000000E+00  0.00000000000E+00  0.74505805969E-08  0.10566000000E+00  0.10566000000E+00 0.  1.
     999900   -1    0    0    0    0 -0.00000000000E+00 -0.00000000000E+00 -0.74505805969E-08  0.93827000000E+00  0.93827000000E+00 0.  1.
     999902    2    1    2    0    0  0.18396833499E-01 -0.13554147772E-01  0.74594116482E-02  0.10198925037E+01  0.10196091986E+01 0.  0.
     999903    2    3    3    0    0  0.11115655033E+00  0.29406929953E-01  0.62073817439E-01  0.13229307123E+00  0.20682158320E-01 0.  0.
         14    1    1    2    0    0 -0.18396833499E-01  0.13554147772E-01 -0.74594116482E-02  0.24037496266E-01  0.00000000000E+00 0.  1.
     999901    1    3    3    0    0 -0.92759716831E-01 -0.42961077725E-01 -0.54614405791E-01  0.88759943251E+00  0.88000000000E+00 0.  1.
        -11    1    4    4    0    0  0.43684810189E-01  0.16496804464E-01  0.15132275988E-01  0.49089246239E-01  0.51100000000E-03 0. -1.
         11    1    4    4    0    0  0.67471740141E-01  0.12910125489E-01  0.46941541451E-01  0.83203824988E-01  0.51100000000E-03 0.  1.
</event>
<event>
 8    1  0.1112958E+005  0.1043930E+01  0.7957747E-01            NaN
         13   -1    0    0    0    0  0.00000000000E+00  0.00000000000E+00  0.74505805969E-08  0.10566000000E+00  0.10566000000E+00 0.  1.
     999900   -1    0    0    0    0 -0.00000000000E+00 -0.00000000000E+00 -0.74505805969E-08  0.93827000000E+00  0.93827000000E+00 0.  1.
     999902    2    1    2    0    0 -0.13227349589E-01  0.15465299537E-01  0.13209722463E-01  0.10196681980E+01  0.10193795167E+01 0.  0.
     999903    2    3    3    0    0 -0.33410034331E-01  0.10836620358E+00 -0.62277758439E-01  0.13133477048E+00  0.22601731552E-01 0.  0.
         14    1    1    2    0    0  0.13227349589E-01 -0.15465299537E-01 -0.13209722463E-01  0.24261801962E-01  0.00000000000E+00 0. -1.
     999901    1    3    3    0    0  0.20182684742E-01 -0.92900904045E-01  0.75487480902E-01  0.88833342755E+00  0.88000000000E+00 0. -1.
        -11    1    4    4    0    0 -0.15472465317E-01  0.24147852503E-01 -0.22631988925E-01  0.36537432958E-01  0.51100000000E-03 0. -1.
         11    1    4    4    0    0 -0.17937569015E-01  0.84218351080E-01 -0.39645769514E-01  0.94797337526E-01  0.51100000000E-03 0.  1.
</event>
<event>
 8    1  0.1112958E+005  0.1043930E+01  0.7957747E-01            NaN
         13   -1    0    0    0    0  0.00000000000E+00  0.00000000000E+00  0.74505805969E-08  0.10566000000E+00  0.10566000000E+00 0.  1.
     999900   -1    0    0    0    0 -0.00000000000E+00 -0.00000000000E+00 -0.74505805969E-08  0.93827000000E+00  0.93827000000E+00 0.  1.
     999902    2    1    2    0    0 -0.10679732696E-01  0.68413118596E-03  0.20845214747E-01  0.10204982330E+01  0.10202291879E+01 0.  0.
     999903    2    3    3    0    0  0.28451608671E-01 -0.10467297628E+00 -0.66998385408E-01  0.12901190107E+00  0.19732231761E-01 0.  0.
         14    1    1    2    0    0  0.10679732696E-01 -0.68413118596E-03 -0.20845214747E-01  0.23431766979E-01  0.00000000000E+00 0. -1.
     999901    1    3    3    0    0 -0.39131341366E-01  0.10535710747E+00  0.87843600155E-01  0.89148633195E+00  0.88000000000E+00 0. -1.
        -11    1    4    4    0    0  0.25679034216E-01 -0.58404130582E-01 -0.36163708618E-01  0.73338463369E-01  0.51100000000E-03 0.  1.
         11    1    4    4    0    0  0.27725744549E-02 -0.46268845699E-01 -0.30834676790E-01  0.55673437699E-01  0.51100000000E-03 0. -1.
</event>
<event>
 8    1  0.1112958E+005  0.1043930E+01  0.7957747E-01            NaN
         13   -1    0    0    0    0  0.00000000000E+00  0.00000000000E+00  0.74505805969E-08  0.10566000000E+00  0.10566000000E+00 0.  1.
     999900   -1    0    0    0    0 -0.00000000000E+00 -0.00000000000E+00 -0.74505805969E-08  0.93827000000E+00  0.93827000000E+00 0. -1.
     999902    2    1    2    0    0  0.17058766410E-01 -0.14792150529E-01 -0.93762494434E-02  0.10194816200E+01  0.10191884273E+01 0.  0.
     999903    2    3    3    0    0  0.94981186839E-01  0.66583580626E-01  0.55193618896E-01  0.12995186724E+00  0.19655868602E-01 0.  0.
         14    1    1    2    0    0 -0.17058766410E-01  0.14792150529E-01  0.93762494434E-02  0.24448379953E-01  0.00000000000E+00 0. -1.
     999901    1    3    3    0    0 -0.77922420429E-01 -0.81375731155E-01 -0.64569868340E-01  0.88952975280E+00  0.88000000000E+00 0. -1.
        -11    1    4    4    0    0  0.29098392778E-01  0.21510007130E-01  0.74876648870E-02  0.36955691246E-01  0.51100000000E-03 0.  1.
         11    1    4    4    0    0  0.65882794061E-01  0.45073573496E-01  0.47705954009E-01  0.92996175996E-01  0.51100000000E-03 0. -1.
</event>
<event>
 8    1  0.1112958E+005  0.1043930E+01  0.7957747E-01            NaN
         13   -1    0    0    0    0  0.00000000000E+00  0.00000000000E+00  0.74505805969E-08  0.10566000000E+00  0.10566000000E+00 0. -1.
     999900   -1    0    0    0    0 -0.00000000000E+00 -0.00000000000E+00 -0.74505805969E-08  0.93827000000E+00  0.93827000000E+00 0.  1.
     999902    2    1    2    0    0 -0.18818465079E-01 -0.10038674185E-01  0.10369988521E-01  0.10202140503E+01  0.10199383620E+01 0.  0.
     999903    2    3    3    0    0  0.72332204493E-02  0.87497604443E-01 -0.91748245355E-01  0.12857502602E+00  0.20140668522E-01 0.  0.
         14    1    1    2    0    0  0.18818465079E-01  0.10038674185E-01 -0.10369988521E-01  0.23715949680E-01  0.00000000000E+00 0.  1.
     999901    1    3    3    0    0 -0.26051685528E-01 -0.97536278628E-01  0.10211823388E+00  0.89163902430E+00  0.88000000000E+00 0. -1.
        -11    1    4    4    0    0  0.72208585539E-02  0.43272682617E-01 -0.32310485873E-01  0.54487562594E-01  0.51100000000E-03 0. -1.
         11    1    4    4    0    0  0.12361895430E-04  0.44224921826E-01 -0.59437759482E-01  0.74087463424E-01  0.51100000000E-03 0.  1.
</event>
<event>
 8    1  0.1112958E+005  0.1043930E+01  0.7957747E-01            NaN
         13   -1    0    0    0    0  0.00000000000E+00  0.00000000000E+00  0.74505805969E-08  0.10566000000E+00  0.10566000000E+00 0.  1.
     999900   -1    0    0    0    0 -0.00000000000E+00 -0.00000000000E+00 -0.74505805969E-08  0.93827000000E+00  0.93827000000E+00 0.  1.
     999902    2    1    2    0    0  0.20925637878E-01  0.99533512661E-02 -0.76450554416E-03  0.10207451776E+01  0.10204818379E+01 0.  0.
     999903    2    3    3    0    0 -0.11047128963E-01 -0.68205654527E-01 -0.10847908904E+00  0.13016473792E+00  0.20027378035E-01 0.  0.
         14    1    1    2    0    0 -0.20925637878E-01 -0.99533512661E-02  0.76450554416E-03  0.23184822422E-01  0.00000000000E+00 0.  1.
     999901    1    3    3    0    0  0.31972766841E-01  0.78159005793E-01  0.10771458349E+00  0.89058043966E+00  0.88000000000E+00 0. -1.
        -11    1    4    4    0    0 -0.16198401947E-01 -0.38702739540E-01 -0.65011523711E-01  0.77376027358E-01  0.51100000000E-03 0.  1.
         11    1    4    4    0    0  0.51512729843E-02 -0.29502914987E-01 -0.43467565328E-01  0.52788710561E-01  0.51100000000E-03 0. -1.
</event>
<event>
 8    1  0.1112958E+005  0.1043930E+01  0.7957747E-01            NaN
         13   -1    0    0    0    0  0.00000000000E+00  0.00000000000E+00  0.74505805969E-08  0.10566000000E+00  0.10566000000E+00 0. -1.
     999900   -1    0    0    0    0 -0.00000000000E+00 -0.00000000000E+00 -0.74505805969E-08  0.93827000000E+00  0.93827000000E+00 0.  1.
     999902    2    1    2    0    0 -0.19089032415E-01  0.12638910811E-01 -0.54117515480E-02  0.10204051136E+01  0.10201339008E+01 0.  0.
     999903    2    3    3    0    0 -0.77386851697E-01 -0.85211037242E-01 -0.60188111639E-01  0.13137547535E+00  0.19678949622E-01 0.  0.
         14    1    1    2    0    0  0.19089032415E-01 -0.12638910811E-01  0.54117515480E-02  0.23524886394E-01  0.00000000000E+00 0.  1.
     999901    1    3    3    0    0  0.58297819282E-01  0.97849948053E-01  0.54776360091E-01  0.88902963825E+00  0.88000000000E+00 0.  1.
        -11    1    4    4    0    0 -0.55205884413E-01 -0.64552462996E-01 -0.53326764918E-01  0.10029314598E+00  0.51100000000E-03 0. -1.
         11    1    4    4    0    0 -0.22180967284E-01 -0.20658574245E-01 -0.68613467210E-02  0.31082329374E-01  0.51100000000E-03 0.  1.
</event>
<event>
 8    1  0.1112958E+005  0.1043930E+01  0.7957747E-01            NaN
         13   -1    0    0    0    0  0.00000000000E+00  0.00000000000E+00  0.74505805969E-08  0.10566000000E+00  0.10566000000E+00 0. -1.
     999900   -1    0    0    0    0 -0.00000000000E+00 -0.00000000000E+00 -0.74505805969E-08  0.93827000000E+00  0.93827000000E+00 0.  1.
     999902    2    1    2    0    0  0.78279184603E-02  0.71139935851E-02 -0.21650990965E-01  0.10198333068E+01  0.10195485879E+01 0.  0.
     999903    2    3    3    0    0  0.54876171615E-01 -0.47630170684E-01 -0.10864159918E+00  0.13260288153E+00  0.22371851712E-01 0.  0.
         14    1    1    2    0    0 -0.78279184603E-02 -0.71139935851E-02  0.21650990965E-01  0.24096693173E-01  0.00000000000E+00 0. -1.
     999901    1    3    3    0    0 -0.47048253155E-01  0.54744164269E-01  0.86990608213E-01  0.88723042529E+00  0.88000000000E+00 0. -1.
        -11    1    4    4    0    0  0.13920794249E-01 -0.18331680241E-02 -0.26862718703E-01  0.30315273290E-01  0.51100000000E-03 0.  1.
         11    1    4    4    0    0  0.40955377366E-01 -0.45797002660E-01 -0.81778880474E-01  0.10228760824E+00  0.51100000000E-03 0. -1.
</event>
<event>
 8    1  0.1112958E+005  0.1043930E+01  0.7957747E-01            NaN
         13   -1    0    0    0    0  0.00000000000E+00  0.00000000000E+00  0.74505805969E-08  0.10566000000E+00  0.10566000000E+00 0. -1.
     999900   -1    0    0    0    0 -0.00000000000E+00 -0.00000000000E+00 -0.74505805969E-08  0.93827000000E+00  0.93827000000E+00 0. -1.
     999902    2    1    2    0    0 -0.98718344635E-02 -0.21736193525E-01  0.11728188026E-02  0.10200283112E+01  0.10197482360E+01 0.  0.
     999903    2    3    3    0    0 -0.12083529683E+00 -0.48361252196E-01  0.14915738115E-01  0.13255400081E+00  0.20201589353E-01 0.  0.
         14    1    1    2    0    0  0.98718344635E-02  0.21736193525E-01 -0.11728188026E-02  0.23901688823E-01  0.00000000000E+00 0.  1.
     999901    1    3    3    0    0  0.11096346237E+00  0.26625058671E-01 -0.13742919312E-01  0.88747431037E+00  0.88000000000E+00 0.  1.
        -11    1    4    4    0    0 -0.88256895135E-01 -0.43807134950E-01  0.14915954674E-01  0.99654861578E-01  0.51100000000E-03 0.  1.
         11    1    4    4    0    0 -0.32578401699E-01 -0.45541172465E-02 -0.21655935186E-06  0.32899139232E-01  0.51100000000E-03 0. -1.
</event>
<event>
 8    1  0.1112958E+005  0.1043930E+01  0.7957747E-01            NaN
         13   -1    0    0    0    0  0.00000000000E+00  0.00000000000E+00  0.74505805969E-08  0.10566000000E+00  0.10566000000E+00 0.  1.
     999900   -1    0    0    0    0 -0.00000000000E+00 -0.00000000000E+00 -0.74505805969E-08  0.93827000000E+00  0.93827000000E+00 0. -1.
     999902    2    1    2    0    0  0.21888863149E-01  0.44078204285E-02  0.50092533044E-02  0.10210467347E+01  0.10207902775E+01 0.  0.
     999903    2    3    3    0    0  0.21973066480E-01 -0.79932130431E-01 -0.99273669404E-01  0.13088486048E+00  0.20090399177E-01 0.  0.
         14    1    1    2    0    0 -0.21888863149E-01 -0.44078204285E-02 -0.50092533044E-02  0.22883265273E-01  0.00000000000E+00 0.  1.
     999901    1    3    3    0    0 -0.84203330555E-04  0.84339950860E-01  0.10428292271E+00  0.89016187425E+00  0.88000000000E+00 0. -1.
        -11    1    4    4    0    0  0.22633249496E-01 -0.80874007826E-01 -0.97169758048E-01  0.12843322049E+00  0.51100000000E-03 0. -1.
         11    1    4    4    0    0 -0.66018301659E-03  0.94187739442E-03 -0.21039113565E-02  0.24516399894E-02  0.51100000000E-03 0.  1.
</event>
<event>
 8    1  0.1112958E+005  0.1043930E+01  0.7957747E-01            NaN
         13   -1    0    0    0    0  0.00000000000E+00  0.00000000000E+00  0.74505805969E-08  0.10566000000E+00  0.10566000000E+00 0. -1.
     999900   -1    0    0    0    0 -0.00000000000E+00 -0.00000000000E+00 -0.74505805969E-08  0.93827000000E+00  0.93827000000E+00 0. -1.
     999902    2    1    2    0    0  0.40822359008E-02 -0.25460117414E-02 -0.23296619885E-01  0.10201417818E+01  0.10198643908E+01 0.  0.
     999903    2    3    3    0    0 -0.11634637448E+00 -0.50955124239E-01 -0.23212687724E-01  0.13062140577E+00  0.19753967558E-01 0.  0.
         14    1    1    2    0    0 -0.40822359008E-02  0.25460117414E-02  0.23296619885E-01  0.23788218172E-01  0.00000000000E+00 0. -1.
     999901    1    3    3    0    0  0.12042861038E+00  0.48409112498E-01 -0.83932161276E-04  0.88952037605E+00  0.88000000000E+00 0.  1.
        -11    1    4    4    0    0 -0.81974133018E-01 -0.27716157982E-01 -0.21120496688E-01  0.89074577735E-01  0.51100000000E-03 0. -1.
         11    1    4    4    0    0 -0.34372241461E-01 -0.23238966257E-01 -0.20921910361E-02  0.41546828039E-01  0.51100000000E-03 0.  1.
</event>
<event>
 8    1  0.1112958E+005  0.1043930E+01  0.7957747E-01            NaN
         13   -1    0    0    0    0  0.00000000000E+00  0.00000000000E+00  0.74505805969E-08  0.10566000000E+00  0.10566000000E+00 0. -1.
     999900   -1    0    0    0    0 -0.00000000000E+00 -0.00000000000E+00 -0.74505805969E-08  0.93827000000E+00  0.93827000000E+00 0.  1.
     999902    2    1    2    0    0 -0.89756407472E-02  0.20833163962E-01  0.80665519955E-02  0.10198540346E+01  0.10195698112E+01 0.  0.
     999903    2    3    3    0    0  0.67906136984E-01  0.10489155752E+00  0.37502873140E-01  0.13202346618E+00  0.20254575984E-01 0.  0.
         14    1    1    2    0    0  0.89756407472E-02 -0.20833163962E-01 -0.80665519955E-02  0.24075965372E-01  0.00000000000E+00 0.  1.
     999901    1    3    3    0    0 -0.76881777731E-01 -0.84058393559E-01 -0.29436321144E-01  0.88783056845E+00  0.88000000000E+00 0. -1.
        -11    1    4    4    0    0  0.13282060372E-01  0.92626736409E-02  0.20715321593E-02  0.16332869227E-01  0.51100000000E-03 0.  1.
         11    1    4    4    0    0  0.54624076612E-01  0.95628883880E-01  0.35431340980E-01  0.11569059695E+00  0.51100000000E-03 0. -1.
</event>
<event>
 8    1  0.1112958E+005  0.1043930E+01  0.7957747E-01            NaN
         13   -1    0    0    0    0  0.00000000000E+00  0.00000000000E+00  0.74505805969E-08  0.10566000000E+00  0.10566000000E+00 0.  1.
     999900   -1    0    0    0    0 -0.00000000000E+00 -0.00000000000E+00 -0.74505805969E-08  0.93827000000E+00  0.93827000000E+00 0. -1.
     999902    2    1    2    0    0  0.81568601439E-03  0.22679673881E-01 -0.68214238153E-02  0.10202326420E+01  0.10199573908E+01 0.  0.
     999903    2    3    3    0    0  0.19632014741E-01 -0.10249902475E+00 -0.72464291877E-01  0.12875479771E+00  0.20862843965E-01 0.  0.
         14    1    1    2    0    0 -0.81568601439E-03 -0.22679673881E-01  0.68214238153E-02  0.23697357951E-01  0.00000000000E+00 0.  1.
     999901    1    3    3    0    0 -0.18816328726E-01  0.12517869863E+00  0.65642868062E-01  0.89147784434E+00  0.88000000000E+00 0.  1.
        -11    1    4    4    0    0  0.14406375254E-01 -0.42562876627E-01 -0.41129889124E-01  0.60918560514E-01  0.51100000000E-03 0. -1.
         11    1    4    4    0    0  0.52256394868E-02 -0.59936148125E-01 -0.31334402753E-01  0.67836237197E-01  0.51100000000E-03 0.  1.
</event>
<event>
 8    1  0.1112958E+005  0.1043930E+01  0.7957747E-01            NaN
         13   -1    0    0    0    0  0.00000000000E+00  0.00000000000E+00  0.74505805969E-08  0.10566000000E+00  0.10566000000E+00 0.  1.
     999900   -1    0    0    0    0 -0.00000000000E+00 -0.00000000000E+00 -0.74505805969E-08  0.93827000000E+00  0.93827000000E+00 0.  1.
     999902    2    1    2    0    0 -0.23751048619E-01 -0.34951081310E-02  0.69336466727E-02  0.10189419319E+01  0.10186354878E+01 0.  0.
     999903    2    3    3    0    0 -0.60567697372E-01  0.88901874856E-01  0.72620450017E-01  0.13090622078E+00  0.17050500270E-01 0.  0.
         14    1    1    2    0    0  0.23751048619E-01  0.34951081310E-02 -0.69336466727E-02  0.24988068103E-01  0.00000000000E+00 0.  1.
     999901    1    3    3    0    0  0.36816648753E-01 -0.92396982987E-01 -0.65686803345E-01  0.88803571112E+00  0.88000000000E+00 0.  1.
        -11    1    4    4    0    0 -0.23418697639E-01  0.22204053941E-01  0.26045757486E-01  0.41474064360E-01  0.51100000000E-03 0. -1.
         11    1    4    4    0    0 -0.37148999733E-01  0.66697820915E-01  0.46574692531E-01  0.89432156417E-01  0.51100000000E-03 0.  1.
</event>
<event>
 8    1  0.1112958E+005  0.1043930E+01  0.7957747E-01            NaN
         13   -1    0    0    0    0  0.00000000000E+00  0.00000000000E+00  0.74505805969E-08  0.10566000000E+00  0.10566000000E+00 0. -1.
     999900   -1    0    0    0    0 -0.00000000000E+00 -0.00000000000E+00 -0.74505805969E-08  0.93827000000E+00  0.93827000000E+00 0. -1.
     999902    2    1    2    0    0 -0.21117364093E-01 -0.15647320763E-01  0.60156424675E-02  0.10169676250E+01  0.10166101419E+01 0.  0.
     999903    2    3    3    0    0  0.11940350175E+00 -0.31086457768E-01 -0.11338936267E-01  0.12551618933E+00  0.20054381633E-01 0.  0.
         14    1    1    2    0    0  0.21117364093E-01  0.15647320763E-01 -0.60156424675E-02  0.26962375037E-01  0.00000000000E+00 0.  1.
     999901    1    3    3    0    0 -0.14052086584E+00  0.15439137004E-01  0.17354578734E-01  0.89145143563E+00  0.88000000000E+00 0. -1.
        -11    1    4    4    0    0  0.58352567339E-01 -0.13866737696E-01  0.44538424184E-02  0.60144878108E-01  0.51100000000E-03 0.  1.
         11    1    4    4    0    0  0.61050934407E-01 -0.17219720072E-01 -0.15792778685E-01  0.65371311222E-01  0.51100000000E-03 0. -1.
</event>
<event>
 8    1  0.1112958E+005  0.1043930E+01  0.7957747E-01            NaN
         13   -1    0    0    0    0  0.00000000000E+00  0.00000000000E+00  0.74505805969E-08  0.10566000000E+00  0.10566000000E+00 0.  1.
     999900   -1    0    0    0    0 -0.00000000000E+00 -0.00000000000E+00 -0.74505805969E-08  0.93827000000E+00  0.93827000000E+00 0. -1.
     999902    2    1    2    0    0 -0.61471188523E-02  0.22043885848E-01  0.78108534163E-02  0.10197488213E+01  0.10194620783E+01 0.  0.
     999903    2    3    3    0    0  0.45852175936E-01 -0.90581410742E-01 -0.74078447315E-01  0.12728356051E+00  0.20151288056E-01 0.  0.
         14    1    1    2    0    0  0.61471188523E-02 -0.22043885848E-01 -0.78108534163E-02  0.24181178726E-01  0.00000000000E+00 0. -1.
     999901    1    3    3    0    0 -0.51999294789E-01  0.11262529659E+00  0.81889300731E-01  0.89246526076E+00  0.88000000000E+00 0.  1.
        -11    1    4    4    0    0  0.38452312452E-01 -0.62175521995E-01 -0.60695156739E-01  0.95018624704E-01  0.51100000000E-03 0. -1.
         11    1    4    4    0    0  0.73998634845E-02 -0.28405888747E-01 -0.13383290576E-01  0.32264935809E-01  0.51100000000E-03 0.  1.
</event>
<event>
 8    1  0.1112958E+005  0.1043930E+01  0.7957747E-01            NaN
         13   -1    0    0    0    0  0.00000000000E+00  0.00000000000E+00  0.74505805969E-08  0.10566000000E+00  0.10566000000E+00 0.  1.
     999900   -1    0    0    0    0 -0.00000000000E+00 -0.00000000000E+00 -0.74505805969E-08  0.93827000000E+00  0.93827000000E+00 0.  1.
     999902    2    1    2    0    0  0.14747775642E-01  0.10288639084E-02 -0.18436734839E-01  0.10202980589E+01  0.10200243430E+01 0.  0.
     999903    2    3    3    0    0 -0.12162255704E+00 -0.31926885601E-01  0.17302364328E-01  0.12846834857E+00  0.19833617123E-01 0.  0.
         14    1    1    2    0    0 -0.14747775642E-01 -0.10288639084E-02  0.18436734839E-01  0.23631941072E-01  0.00000000000E+00 0.  1.
     999901    1    3    3    0    0  0.13637033268E+00  0.32955749509E-01 -0.35739099167E-01  0.89182971035E+00  0.88000000000E+00 0. -1.
        -11    1    4    4    0    0 -0.10314073521E+00 -0.31051382488E-01  0.87237203736E-02  0.10806740504E+00  0.51100000000E-03 0. -1.
         11    1    4    4    0    0 -0.18481821834E-01 -0.87550311336E-03  0.85786439541E-02  0.20400943534E-01  0.51100000000E-03 0.  1.
</event>
<event>
 8    1  0.1112958E+005  0.1043930E+01  0.7957747E-01            NaN
         13   -1    0    0    0    0  0.00000000000E+00  0.00000000000E+00  0.74505805969E-08  0.10566000000E+00  0.10566000000E+00 0. -1.
     999900   -1    0    0    0    0 -0.00000000000E+00 -0.00000000000E+00 -0.74505805969E-08  0.93827000000E+00  0.93827000000E+00 0.  1.
     999902    2    1    2    0    0  0.22902001177E-01  0.22506520117E-02 -0.51787163753E-02  0.10203421600E+01  0.10200694767E+01 0.  0.
     999903    2    3    3    0    0 -0.18906542952E-01 -0.12508611583E+00 -0.21494567665E-01  0.13004512316E+00  0.21112173747E-01 0.  0.
         14    1    1    2    0    0 -0.22902001177E-01 -0.22506520117E-02  0.51787163753E-02  0.23587839997E-01  0.00000000000E+00 0. -1.
     999901    1    3    3    0    0  0.41808544130E-01  0.12733676784E+00  0.16315851290E-01  0.89029703684E+00  0.88000000000E+00 0. -1.
        -11    1    4    4    0    0  0.41198637821E-02 -0.15938489430E-01 -0.54346572070E-02  0.17343740739E-01  0.51100000000E-03 0.  1.
         11    1    4    4    0    0 -0.23026406734E-01 -0.10914762640E+00 -0.16059910458E-01  0.11270138242E+00  0.51100000000E-03 0. -1.
</event>
<event>
 8    1  0.1112958E+005  0.1043930E+01  0.7957747E-01            NaN
         13   -1    0    0    0    0  0.00000000000E+00  0.00000000000E+00  0.74505805969E-08  0.10566000000E+00  0.10566000000E+00 0.  1.
     999900   -1    0    0    0    0 -0.00000000000E+00 -0.00000000000E+00 -0.74505805969E-08  0.93827000000E+00  0.93827000000E+00 0. -1.
     999902    2    1    2    0    0  0.52921903961E-02 -0.24540024001E-01  0.13999764266E-01  0.10151860710E+01  0.10147790623E+01 0.  0.
     999903    2    3    3    0    0  0.17072188654E-01 -0.12542889330E+00  0.16795415884E-01  0.12933893518E+00  0.20557413684E-01 0.  0.
         14    1    1    2    0    0 -0.52921903961E-02  0.24540024001E-01 -0.13999764266E-01  0.28743929040E-01  0.00000000000E+00 0. -1.
     999901    1    3    3    0    0 -0.11779998258E-01  0.10088886930E+00 -0.27956516186E-02  0.88584713578E+00  0.88000000000E+00 0.  1.
        -11    1    4    4    0    0  0.13916361940E-01 -0.84687448739E-01  0.19109767097E-02  0.85846036930E-01  0.51100000000E-03 0. -1.
         11    1    4    4    0    0  0.31558267142E-02 -0.40741444563E-01  0.14884439175E-01  0.43492898246E-01  0.51100000000E-03 0.  1.
</event>
<event>
 8    1  0.1112958E+005  0.1043930E+01  0.7957747E-01            NaN
         13   -1    0    0    0    0  0.00000000000E+00  0.00000000000E+00  0.74505805969E-08  0.10566000000E+00  0.10566000000E+00 0.  1.
     999900   -1    0    0    0    0 -0.00000000000E+00 -0.00000000000E+00 -0.74505805969E-08  0.93827000000E+00  0.93827000000E+00 0.  1.
     999902    2    1    2    0    0 -0.77960483672E-02  0.16837137701E-01 -0.14814117078E-01  0.10201870928E+01  0.10199107700E+01 0.  0.
     999903    2    3    3    0    0  0.10542961874E+00 -0.70414169609E-02 -0.74061200427E-01  0.13063638941E+00  0.20391634808E-01 0.  0.
         14    1    1    2    0    0  0.77960483672E-02 -0.16837137701E-01  0.14814117078E-01  0.23742907170E-01  0.00000000000E+00 0.  1.
     999901    1    3    3    0    0 -0.11322566711E+00  0.23878554662E-01  0.59247083348E-01  0.88955070342E+00  0.88000000000E+00 0. -1.
        -11    1    4    4    0    0  0.15803828907E-01  0.57402941213E-02 -0.84315314181E-02  0.18816583849E-01  0.51100000000E-03 0.  1.
         11    1    4    4    0    0  0.89625789831E-01 -0.12781711082E-01 -0.65629669009E-01  0.11181980556E+00  0.51100000000E-03 0. -1.
</event>
<event>
 8    1  0.1112958E+005  0.1043930E+01  0.7957747E-01            NaN
         13   -1    0    0    0    0  0.00000000000E+00  0.00000000000E+00  0.74505805969E-08  0.10566000000E+00  0.10566000000E+00 0. -1.
     999900   -1    0    0    0    0 -0.00000000000E+00 -0.00000000000E+00 -0.74505805969E-08  0.93827000000E+00  0.93827000000E+00 0. -1.
     999902    2    1    2    0    0 -0.17567968051E-01 -0.15219980485E-01 -0.47905360672E-02  0.10201975213E+01  0.10199214440E+01 0.  0.
     999903    2    3    3    0    0  0.99815910090E-01 -0.70767914168E-01 -0.38447006517E-01  0.13003051129E+00  0.21411398210E-01 0.  0.
         14    1    1    2    0    0  0.17567968051E-01  0.15219980485E-01  0.47905360672E-02  0.23732478657E-01  0.00000000000E+00 0. -1.
     999901    1    3    3    0    0 -0.11738387814E+00  0.55547933683E-01  0.33656470450E-01  0.89016701005E+00  0.88000000000E+00 0.  1.
        -11    1    4    4    0    0  0.80603517542E-01 -0.49280632273E-01 -0.35983828638E-01  0.10109700689E+00  0.51100000000E-03 0.  1.
         11    1    4    4    0    0  0.19212392547E-01 -0.21487281896E-01 -0.24631778797E-02  0.28933504401E-01  0.51100000000E-03 0. -1.
</event>
<event>
 8    1  0.1112958E+005  0.1043930E+01  0.7957747E-01            NaN
         13   -1    0    0    0    0  0.00000000000E+00  0.00000000000E+00  0.74505805969E-08  0.10566000000E+00  0.10566000000E+00 0.  1.
     999900   -1    0    0    0    0 -0.00000000000E+00 -0.00000000000E+00 -0.74505805969E-08  0.93827000000E+00  0.93827000000E+00 0.  1.
     999902    2    1    2    0    0  0.66236268051E-02  0.20250182978E-01  0.89239643064E-02  0.10208306606E+01  0.10205692814E+01 0.  0.
     999903    2    3    3    0    0  0.70596345760E-01  0.10928126864E+00  0.23760718301E-01  0.13390384722E+00  0.20962558451E-01 0.  0.
         14    1    1    2    0    0 -0.66236268051E-02 -0.20250182978E-01 -0.89239643064E-02  0.23099339420E-01  0.00000000000E+00 0. -1.
     999901    1    3    3    0    0 -0.63972718955E-01 -0.89031085660E-01 -0.14836753995E-01  0.88692681336E+00  0.88000000000E+00 0. -1.
        -11    1    4    4    0    0  0.21763138741E-01  0.33813399414E-01  0.17309391448E-01  0.43781917970E-01  0.51100000000E-03 0.  1.
         11    1    4    4    0    0  0.48833207018E-01  0.75467869224E-01  0.64513268529E-02  0.90121929252E-01  0.51100000000E-03 0. -1.
</event>
<event>
 8    1  0.1112958E+005  0.1043930E+01  0.7957747E-01            NaN
         13   -1    0    0    0    0  0.00000000000E+00  0.00000000000E+00  0.74505805969E-08  0.10566000000E+00  0.10566000000E+00 0. -1.
     999900   -1    0    0    0    0 -0.00000000000E+00 -0.00000000000E+00 -0.74505805969E-08  0.93827000000E+00  0.93827000000E+00 0.  1.
     999902    2    1    2    0    0 -0.97275106276E-02  0.13697942373E-01 -0.17061286413E-01  0.10199853642E+01  0.10197042697E+01 0.  0.
     999903    2    3    3    0    0 -0.11616319336E+00  0.12930613185E-01 -0.59220388827E-01  0.13256971569E+00  0.20163997987E-01 0.  0.
         14    1    1    2    0    0  0.97275106276E-02 -0.13697942373E-01  0.17061286413E-01  0.23944635773E-01  0.00000000000E+00 0. -1.
     999901    1    3    3    0    0  0.10643568274E+00  0.76732918791E-03  0.42159102414E-01  0.88741564854E+00  0.88000000000E+00 0.  1.
        -11    1    4    4    0    0 -0.35144268979E-01  0.41900397078E-02 -0.79071205129E-02  0.36269267302E-01  0.51100000000E-03 0. -1.
         11    1    4    4    0    0 -0.81018924386E-01  0.87405734773E-02 -0.51313268314E-01  0.96300448387E-01  0.51100000000E-03 0.  1.
</event>
<event>
 8    1  0.1112958E+005  0.1043930E+01  0.7957747E-01            NaN
         13   -1    0    0    0    0  0.00000000000E+00  0.00000000000E+00  0.74505805969E-08  0.10566000000E+00  0.10566000000E+00 0.  1.
     999900   -1    0    0    0    0 -0.00000000000E+00 -0.00000000000E+00 -0.74505805969E-08  0.93827000000E+00  0.93827000000E+00 0.  1.
     999902    2    1    2    0    0 -0.88502646517E-02  0.51946034159E-02  0.22027939487E-01  0.10196289464E+01  0.10193393189E+01 0.  0.
     999903    2    3    3    0    0 -0.22803346531E-01 -0.12564539120E+00 -0.14808984603E-01  0.12908374727E+00  0.11685497025E-01 0.  0.
         14    1    1    2    0    0  0.88502646517E-02 -0.51946034159E-02 -0.22027939487E-01  0.24301053621E-01  0.00000000000E+00 0. -1.
     999901    1    3    3    0    0  0.13953081879E-01  0.13083999462E+00  0.36836924090E-01  0.89054519911E+00  0.88000000000E+00 0.  1.
        -11    1    4    4    0    0 -0.19366622506E-01 -0.87358764714E-01 -0.62543265244E-02  0.89699484730E-01  0.51100000000E-03 0. -1.
         11    1    4    4    0    0 -0.34367240245E-02 -0.38286626486E-01 -0.85546580785E-02  0.39384262536E-01  0.51100000000E-03 0.  1.
</event>
<event>
 8    1  0.1112958E+005  0.1043930E+01  0.7957747E-01            NaN
         13   -1    0    0    0    0  0.00000000000E+00  0.00000000000E+00  0.74505805969E-08  0.10566000000E+00  0.10566000000E+00 0.  1.
     999900   -1    0    0    0    0 -0.00000000000E+00 -0.00000000000E+00 -0.74505805969E-08  0.93827000000E+00  0.93827000000E+00 0.  1.
     999902    2    1    2    0    0  0.18870050300E-01 -0.13592291681E-01  0.17444551368E-02  0.10206089298E+01  0.10203424500E+01 0.  0.
     999903    2    3    3    0    0 -0.71302776243E-01  0.29879398195E-01  0.10160149682E+00  0.12932202019E+00  0.20602340003E-01 0.  0.
         14    1    1    2    0    0 -0.18870050300E-01  0.13592291681E-01 -0.17444551368E-02  0.23321070198E-01  0.00000000000E+00 0.  1.
     999901    1    3    3    0    0  0.90172826543E-01 -0.43471689876E-01 -0.99857041685E-01  0.89128690961E+00  0.88000000000E+00 0.  1.
        -11    1    4    4    0    0 -0.47211391488E-02  0.88974698576E-02  0.10659745678E-01  0.14674652420E-01  0.51100000000E-03 0. -1.
         11    1    4    4    0    0 -0.66581637094E-01  0.20981928338E-01  0.90941751144E-01  0.11464736777E+00  0.51100000000E-03 0.  1.
</event>
<event>
 8    1  0.1112958E+005  0.1043930E+01  0.7957747E-01            NaN
         13   -1    0    0    0    0  0.00000000000E+00  0.00000000000E+00  0.74505805969E-08  0.10566000000E+00  0.10566000000E+00 0.  1.
     999900   -1    0    0    0    0 -0.00000000000E+00 -0.00000000000E+00 -0.74505805969E-08  0.93827000000E+00  0.93827000000E+00 0. -1.
     999902    2    1    2    0    0 -0.22078514397E-01  0.72113587444E-02  0.19556606471E-02  0.10206214372E+01  0.10203552464E+01 0.  0.
     999903    2    3    3    0    0  0.28506708906E-01 -0.26557333904E-01  0.12254957790E+00  0.13031694863E+00  0.21123058959E-01 0.  0.
         14    1    1    2    0    0  0.22078514397E-01 -0.72113587444E-02 -0.19556606471E-02  0.23308562836E-01  0.00000000000E+00 0.  1.
     999901    1    3    3    0    0 -0.50585223303E-01  0.33768692649E-01 -0.12059391726E+00  0.89030448853E+00  0.88000000000E+00 0. -1.
        -11    1    4    4    0    0  0.19753387948E-01 -0.24766476225E-01  0.67761507325E-01  0.74802791899E-01  0.51100000000E-03 0.  1.
         11    1    4    4    0    0  0.87533209575E-02 -0.17908576794E-02  0.54788070579E-01  0.55514156733E-01  0.51100000000E-03 0. -1.
</event>
<event>
 8    1  0.1112958E+005  0.1043930E+01  0.7957747E-01            NaN
         13   -1    0    0    0    0  0.00000000000E+00  0.00000000000E+00  0.74505805969E-08  0.10566000000E+00  0.10566000000E+00 0.  1.
     999900   -1    0    0    0    0 -0.00000000000E+00 -0.00000000000E+00 -0.74505805969E-08  0.93827000000E+00  0.93827000000E+00 0.  1.
     999902    2    1    2    0    0  0.46752557131E-03 -0.22372556901E-02  0.23696247691E-01  0.10201237813E+01  0.10198459654E+01 0.  0.
     999903    2    3    3    0    0 -0.10128773688E+00  0.36635382892E-01 -0.67647097029E-01  0.12871544498E+00  0.19752952142E-01 0.  0.
         14    1    1    2    0    0 -0.46752557131E-03  0.22372556901E-02 -0.23696247691E-01  0.23806218679E-01  0.00000000000E+00 0. -1.
     999901    1    3    3    0    0  0.10175526245E+00 -0.38872638582E-01  0.91343344719E-01  0.89140833634E+00  0.88000000000E+00 0. -1.
        -11    1    4    4    0    0 -0.61939792749E-01  0.30101168525E-01 -0.49951175890E-01  0.85076432496E-01  0.51100000000E-03 0.  1.
         11    1    4    4    0    0 -0.39347944134E-01  0.65342143673E-02 -0.17695921138E-01  0.43639012488E-01  0.51100000000E-03 0. -1.
</event>
<event>
 8    1  0.1112958E+005  0.1043930E+01  0.7957747E-01            NaN
         13   -1    0    0    0    0  0.00000000000E+00  0.00000000000E+00  0.74505805969E-08  0.10566000000E+00  0.10566000000E+00 0. -1.
     999900   -1    0    0    0    0 -0.00000000000E+00 -0.00000000000E+00 -0.74505805969E-08  0.93827000000E+00  0.93827000000E+00 0.  1.
     999902    2    1    2    0    0 -0.79776326596E-02  0.22216027567E-01  0.41228144283E-02  0.10199676941E+01  0.10196861797E+01 0.  0.
     999903    2    3    3    0    0  0.46402013113E-01  0.10242455341E+00  0.66815254942E-01  0.13243127483E+00  0.20732300811E-01 0.  0.
         14    1    1    2    0    0  0.79776326596E-02 -0.22216027567E-01 -0.41228144283E-02  0.23962305869E-01  0.00000000000E+00 0.  1.
     999901    1    3    3    0    0 -0.54379645772E-01 -0.80208525845E-01 -0.62692440514E-01  0.88753641930E+00  0.88000000000E+00 0.  1.
        -11    1    4    4    0    0  0.48313960254E-01  0.96571071317E-01  0.61425329579E-01  0.12423181076E+00  0.51100000000E-03 0. -1.
         11    1    4    4    0    0 -0.19119471418E-02  0.58534820957E-02  0.53899253637E-02  0.81994640644E-02  0.51100000000E-03 0.  1.
</event>
<event>
 8    1  0.1112958E+005  0.1043930E+01  0.7957747E-01            NaN
         13   -1    0    0    0    0  0.00000000000E+00  0.00000000000E+00  0.74505805969E-08  0.10566000000E+00  0.10566000000E+00 0.  1.
     999900   -1    0    0    0    0 -0.00000000000E+00 -0.00000000000E+00 -0.74505805969E-08  0.93827000000E+00  0.93827000000E+00 0. -1.
     999902    2    1    2    0    0 -0.35903775082E-02  0.14365403363E-01 -0.22336438225E-01  0.10171312669E+01  0.10167781675E+01 0.  0.
     999903    2    3    3    0    0 -0.24180725856E-01 -0.12150339870E+00  0.81637509177E-02  0.12594410620E+00  0.21153904076E-01 0.  0.
         14    1    1    2    0    0  0.35903775082E-02 -0.14365403363E-01  0.22336438225E-01  0.26798733123E-01  0.00000000000E+00 0.  1.
     999901    1    3    3    0    0  0.20590348347E-01  0.13586880207E+00 -0.30500189142E-01  0.89118716068E+00  0.88000000000E+00 0. -1.
        -11    1    4    4    0    0 -0.25264794310E-01 -0.75831738699E-01  0.33139270826E-02  0.80000035371E-01  0.51100000000E-03 0.  1.
         11    1    4    4    0    0  0.10840684540E-02 -0.45671660004E-01  0.48498238351E-02  0.45944070827E-01  0.51100000000E-03 0. -1.
</event>
<event>
 8    1  0.1112958E+005  0.1043930E+01  0.7957747E-01            NaN
         13   -1    0    0    0    0  0.00000000000E+00  0.00000000000E+00  0.74505805969E-08  0.10566000000E+00  0.10566000000E+00 0.  1.
     999900   -1    0    0    0    0 -0.00000000000E+00 -0.00000000000E+00 -0.74505805969E-08  0.93827000000E+00  0.93827000000E+00 0. -1.
     999902    2    1    2    0    0 -0.17646451592E-01  0.38944731981E-02  0.13344503897E-01  0.10214658072E+01  0.10212187597E+01 0.  0.
     999903    2    3    3    0    0 -0.99817016678E-01  0.83467924616E-01  0.24056053008E-01  0.13399824538E+00  0.21130660694E-01 0.  0.
         14    1    1    2    0    0  0.17646451592E-01 -0.38944731981E-02 -0.13344503897E-01  0.22464192831E-01  0.00000000000E+00 0.  1.
     999901    1    3    3    0    0  0.82170565085E-01 -0.79573451418E-01 -0.10711549111E-01  0.88746756179E+00  0.88000000000E+00 0. -1.
        -11    1    4    4    0    0 -0.61998031848E-01  0.39020114183E-01  0.97006005970E-02  0.73896468365E-01  0.51100000000E-03 0.  1.
         11    1    4    4    0    0 -0.37818984830E-01  0.44447810433E-01  0.14355452411E-01  0.60101777018E-01  0.51100000000E-03 0. -1.
</event>
<event>
 8    1  0.1112958E+005  0.1043930E+01  0.7957747E-01            NaN
         13   -1    0    0    0    0  0.00000000000E+00  0.00000000000E+00  0.74505805969E-08  0.10566000000E+00  0.10566000000E+00 0.  1.
     999900   -1    0    0    0    0 -0.00000000000E+00 -0.00000000000E+00 -0.74505805969E-08  0.93827000000E+00  0.93827000000E+00 0.  1.
     999902    2    1    2    0    0  0.10027207413E-01  0.61456717235E-02  0.20122448944E-01  0.10206227668E+01  0.10203566067E+01 0.  0.
     999903    2    3    3    0    0  0.57827481560E-01  0.93473959074E-01 -0.67583121268E-01  0.13067705886E+00  0.20678897040E-01 0.  0.
         14    1    1    2    0    0 -0.10027207413E-01 -0.61456717235E-02 -0.20122448944E-01  0.23307233233E-01  0.00000000000E+00 0. -1.
     999901    1    3    3    0    0 -0.47800274147E-01 -0.87328287351E-01  0.87705570213E-01  0.88994570791E+00  0.88000000000E+00 0.  1.
        -11    1    4    4    0    0 -0.53651716450E-03 -0.50066139026E-03 -0.16972006270E-02  0.19183647891E-02  0.51100000000E-03 0. -1.
         11    1    4    4    0    0  0.58363998725E-01  0.93974620464E-01 -0.65885920641E-01  0.12875869407E+00  0.51100000000E-03 0.  1.
</event>
<event>
 8    1  0.1112958E+005  0.1043930E+01  0.7957747E-01            NaN
         13   -1    0    0    0    0  0.00000000000E+00  0.00000000000E+00  0.74505805969E-08  0.10566000000E+00  0.10566000000E+00 0.  1.
     999900   -1    0    0    0    0 -0.00000000000E+00 -0.00000000000E+00 -0.74505805969E-08  0.93827000000E+00  0.93827000000E+00 0.  1.
     999902    2    1    2    0    0  0.90911599042E-02 -0.16444726360E-01 -0.12663208557E-01  0.10212708944E+01  0.10210194929E+01 0.  0.
     999903    2    3    3    0    0  0.17313079896E-01 -0.45527105122E-02  0.12713248377E+00  0.13011891212E+00  0.21161118938E-01 0.  0.
         14    1    1    2    0    0 -0.90911599042E-02  0.16444726360E-01  0.12663208557E-01  0.22659105552E-01  0.00000000000E+00 0. -1.
     999901    1    3    3    0    0 -0.82219199923E-02 -0.11892015848E-01 -0.13979569232E+00  0.89115198232E+00  0.88000000000E+00 0.  1.
        -11    1    4    4    0    0  0.86880376534E-04 -0.97053181522E-02  0.42874537466E-01  0.43962345621E-01  0.51100000000E-03 0.  1.
         11    1    4    4    0    0  0.17226199520E-01  0.51526076399E-02  0.84257946301E-01  0.86156566501E-01  0.51100000000E-03 0. -1.
</event>
<event>
 8    1  0.1112958E+005  0.1043930E+01  0.7957747E-01            NaN
         13   -1    0    0    0    0  0.00000000000E+00  0.00000000000E+00  0.74505805969E-08  0.10566000000E+00  0.10566000000E+00 0.  1.
     999900   -1    0    0    0    0 -0.00000000000E+00 -0.00000000000E+00 -0.74505805969E-08  0.93827000000E+00  0.93827000000E+00 0. -1.
     999902    2    1    2    0    0 -0.28792390033E-02  0.24357736902E-01 -0.47026826696E-02  0.10189559217E+01  0.10186498249E+01 0.  0.
     999903    2    3    3    0    0 -0.64115875402E-01  0.27468889693E-01 -0.10894444737E+00  0.13068459464E+00  0.18552231261E-01 0.  0.
         14    1    1    2    0    0  0.28792390033E-02 -0.24357736902E-01  0.47026826696E-02  0.24974078331E-01  0.00000000000E+00 0.  1.
     999901    1    3    3    0    0  0.61236636399E-01 -0.31111527913E-02  0.10424176470E+00  0.88827132703E+00  0.88000000000E+00 0.  1.
        -11    1    4    4    0    0 -0.32420512785E-01  0.17445664945E-01 -0.41421560509E-01  0.55420643001E-01  0.51100000000E-03 0.  1.
         11    1    4    4    0    0 -0.31695362617E-01  0.10023224748E-01 -0.67522886860E-01  0.75263951642E-01  0.51100000000E-03 0. -1.
</event>
<event>
 8    1  0.1112958E+005  0.1043930E+01  0.7957747E-01            NaN
         13   -1    0    0    0    0  0.00000000000E+00  0.00000000000E+00  0.74505805969E-08  0.10566000000E+00  0.10566000000E+00 0.  1.
     999900   -1    0    0    0    0 -0.00000000000E+00 -0.00000000000E+00 -0.74505805969E-08  0.93827000000E+00  0.93827000000E+00 0. -1.
     999902    2    1    2    0    0 -0.15113104128E-01  0.28371474527E-02 -0.16988040208E-01  0.10210160559E+01  0.10207589028E+01 0.  0.
     999903    2    3    3    0    0 -0.81860601936E-01 -0.55264040911E-01  0.83030503926E-01  0.13094039302E+00  0.22272170439E-01 0.  0.
         14    1    1    2    0    0  0.15113104128E-01 -0.28371474527E-02  0.16988040208E-01  0.22913944055E-01  0.00000000000E+00 0.  1.
     999901    1    3    3    0    0  0.66747497808E-01  0.58101188364E-01 -0.10001854413E+00  0.89007566292E+00  0.88000000000E+00 0. -1.
        -11    1    4    4    0    0 -0.73252663842E-01 -0.56503291447E-01  0.76654663516E-01  0.12014480124E+00  0.51100000000E-03 0. -1.
         11    1    4    4    0    0 -0.86079380940E-02  0.12392505366E-02  0.63758404108E-02  0.10795591789E-01  0.51100000000E-03 0.  1.
</event>
<event>
 8    1  0.1112958E+005  0.1043930E+01  0.7957747E-01            NaN
         13   -1    0    0    0    0  0.00000000000E+00  0.00000000000E+00  0.74505805969E-08  0.10566000000E+00  0.10566000000E+00 0. -1.
     999900   -1    0    0    0    0 -0.00000000000E+00 -0.00000000000E+00 -0.74505805969E-08  0.93827000000E+00  0.93827000000E+00 0. -1.
     999902    2    1    2    0    0  0.51686927230E-02  0.22046311548E-01 -0.48711588333E-02  0.10207678881E+01  0.10205050701E+01 0.  0.
     999903    2    3    3    0    0  0.53359176873E-01  0.89198381512E-02 -0.11883383972E+00  0.13201476173E+00  0.19484624316E-01 0.  0.
         14    1    1    2    0    0 -0.51686927230E-02 -0.22046311548E-01  0.48711588333E-02  0.23162111858E-01  0.00000000000E+00 0.  1.
     999901    1    3    3    0    0 -0.48190484150E-01  0.13126473397E-01  0.11396268088E+00  0.88875312641E+00  0.88000000000E+00 0.  1.
        -11    1    4    4    0    0  0.42108190386E-01  0.68394636129E-02 -0.10850897759E+00  0.11659475674E+00  0.51100000000E-03 0. -1.
         11    1    4    4    0    0  0.11250986488E-01  0.20803745383E-02 -0.10324862126E-01  0.15420004997E-01  0.51100000000E-03 0.  1.
</event>
<event>
 8    1  0.1112958E+005  0.1043930E+01  0.7957747E-01            NaN
         13   -1    0    0    0    0  0.00000000000E+00  0.00000000000E+00  0.74505805969E-08  0.10566000000E+00  0.10566000000E+00 0.  1.
     999900   -1    0    0    0    0 -0.00000000000E+00 -0.00000000000E+00 -0.74505805969E-08  0.93827000000E+00  0.93827000000E+00 0.  1.
     999902    2    1    2    0    0  0.20341405305E-01 -0.10677751590E-01 -0.55286199383E-02  0.10203005102E+01  0.10200268518E+01 0.  0.
     999903    2    3    3    0    0  0.84519759783E-01 -0.14863920397E-02  0.99058425660E-01  0.13173886780E+00  0.19918796149E-01 0.  0.
         14    1    1    2    0    0 -0.20341405305E-01  0.10677751590E-01  0.55286199383E-02  0.23629489779E-01  0.00000000000E+00 0.  1.
     999901    1    3    3    0    0 -0.64178354478E-01 -0.91913595500E-02 -0.10458704560E+00  0.88856164242E+00  0.88000000000E+00 0.  1.
        -11    1    4    4    0    0  0.29133543743E-01  0.89457708161E-02  0.35452390250E-01  0.46753858471E-01  0.51100000000E-03 0.  1.
         11    1    4    4    0    0  0.55386216040E-01 -0.10432162856E-01  0.63606035410E-01  0.84985009329E-01  0.51100000000E-03 0. -1.
</event>
<event>
 8    1  0.1112958E+005  0.1043930E+01  0.7957747E-01            NaN
         13   -1    0    0    0    0  0.00000000000E+00  0.00000000000E+00  0.74505805969E-08  0.10566000000E+00  0.10566000000E+00 0. -1.
     999900   -1    0    0    0    0 -0.00000000000E+00 -0.00000000000E+00 -0.74505805969E-08  0.93827000000E+00  0.93827000000E+00 0. -1.
     999902    2    1    2    0    0  0.14502411304E-01  0.17680830199E-01 -0.67591655985E-02  0.10200842874E+01  0.10198055380E+01 0.  0.
     999903    2    3    3    0    0 -0.85843188978E-02 -0.11113971283E+00 -0.61972185112E-01  0.12869424541E+00  0.17202638652E-01 0.  0.
         14    1    1    2    0    0 -0.14502411304E-01 -0.17680830199E-01  0.67591655985E-02  0.23845712607E-01  0.00000000000E+00 0.  1.
     999901    1    3    3    0    0  0.23086730202E-01  0.12882054303E+00  0.55213019514E-01  0.89139004198E+00  0.88000000000E+00 0.  1.
        -11    1    4    4    0    0 -0.13087350678E-01 -0.81979631845E-01 -0.49502874501E-01  0.96657821671E-01  0.51100000000E-03 0. -1.
         11    1    4    4    0    0  0.45030317798E-02 -0.29160080982E-01 -0.12469310611E-01  0.32036423742E-01  0.51100000000E-03 0.  1.
</event>
<event>
 8    1  0.1112958E+005  0.1043930E+01  0.7957747E-01            NaN
         13   -1    0    0    0    0  0.00000000000E+00  0.00000000000E+00  0.74505805969E-08  0.10566000000E+00  0.10566000000E+00 0. -1.
     999900   -1    0    0    0    0 -0.00000000000E+00 -0.00000000000E+00 -0.74505805969E-08  0.93827000000E+00  0.93827000000E+00 0.  1.
     999902    2    1    2    0    0  0.49867826848E-02 -0.23724400417E-01 -0.41005419838E-02  0.10193428159E+01  0.10190462437E+01 0.  0.
     999903    2    3    3    0    0  0.99502808015E-01  0.54316374931E-01 -0.58850136681E-01  0.12916240736E+00  0.19196653308E-01 0.  0.
         14    1    1    2    0    0 -0.49867826848E-02  0.23724400417E-01  0.41005419838E-02  0.24587184086E-01  0.00000000000E+00 0. -1.
     999901    1    3    3    0    0 -0.94516025330E-01 -0.78040775348E-01  0.54749594697E-01  0.89018040856E+00  0.88000000000E+00 0.  1.
        -11    1    4    4    0    0  0.41309965474E-01  0.28779023558E-01 -0.34833594416E-01  0.61224062797E-01  0.51100000000E-03 0. -1.
         11    1    4    4    0    0  0.58192842541E-01  0.25537351373E-01 -0.24016542265E-01  0.67938344559E-01  0.51100000000E-03 0.  1.
</event>
<event>
 8    1  0.1112958E+005  0.1043930E+01  0.7957747E-01            NaN
         13   -1    0    0    0    0  0.00000000000E+00  0.00000000000E+00  0.74505805969E-08  0.10566000000E+00  0.10566000000E+00 0. -1.
     999900   -1    0    0    0    0 -0.00000000000E+00 -0.00000000000E+00 -0.74505805969E-08  0.93827000000E+00  0.93827000000E+00 0.  1.
     999902    2    1    2    0    0  0.58430395156E-02  0.23013867137E-01 -0.35456682876E-02  0.10199226896E+01  0.10196401040E+01 0.  0.
     999903    2    3    3    0    0  0.12327801307E+00  0.31232248187E-01  0.26666055538E-01  0.13156957110E+00  0.20653127801E-01 0.  0.
         14    1    1    2    0    0 -0.58430395156E-02 -0.23013867137E-01  0.35456682876E-02  0.24007310449E-01  0.00000000000E+00 0.  1.
     999901    1    3    3    0    0 -0.11743497356E+00 -0.82183810501E-02 -0.30211723826E-01  0.88835311845E+00  0.88000000000E+00 0.  1.
        -11    1    4    4    0    0  0.65373084803E-01  0.17386253891E-01  0.24641201669E-01  0.71995638630E-01  0.51100000000E-03 0. -1.
         11    1    4    4    0    0  0.57904928270E-01  0.13845994296E-01  0.20248538684E-02  0.59573932472E-01  0.51100000000E-03 0.  1.
</event>
<event>
 8    1  0.1112958E+005  0.1043930E+01  0.7957747E-01            NaN
         13   -1    0    0    0    0  0.00000000000E+00  0.00000000000E+00  0.74505805969E-08  0.10566000000E+00  0.10566000000E+00 0. -1.
     999900   -1    0    0    0    0 -0.00000000000E+00 -0.00000000000E+00 -0.74505805969E-08  0.93827000000E+00  0.93827000000E+00 0. -1.
     999902    2    1    2    0    0 -0.67075416360E-03 -0.22094796831E-01 -0.92730050688E-02  0.10199587968E+01  0.10196770708E+01 0.  0.
     999903    2    3    3    0    0  0.39774089525E-01  0.46392648301E-01 -0.11314513043E+00  0.13028709674E+00  0.20943997312E-01 0.  0.
         14    1    1    2    0    0  0.67075416360E-03  0.22094796831E-01  0.92730050688E-02  0.23971203164E-01  0.00000000000E+00 0. -1.
     999901    1    3    3    0    0 -0.40444843689E-01 -0.68487445132E-01  0.10387212536E+00  0.88967170009E+00  0.88000000000E+00 0.  1.
        -11    1    4    4    0    0  0.13392394152E-01  0.31268472474E-01 -0.55081106257E-01  0.64739964315E-01  0.51100000000E-03 0.  1.
         11    1    4    4    0    0  0.26381695373E-01  0.15124175827E-01 -0.58064024173E-01  0.65547132427E-01  0.51100000000E-03 0. -1.
</event>
<event>
 8    1  0.1112958E+005  0.1043930E+01  0.7957747E-01            NaN
         13   -1    0    0    0    0  0.00000000000E+00  0.00000000000E+00  0.74505805969E-08  0.10566000000E+00  0.10566000000E+00 0.  1.
     999900   -1    0    0    0    0 -0.00000000000E+00 -0.00000000000E+00 -0.74505805969E-08  0.93827000000E+00  0.93827000000E+00 0.  1.
     999902    2    1    2    0    0 -0.93182524224E-02  0.15559492222E-01 -0.16522620642E-01  0.10193958479E+01  0.10191005692E+01 0.  0.
     999903    2    3    3    0    0  0.81488271737E-01 -0.90698990460E-01 -0.32000141898E-01  0.12823018225E+00  0.23501601155E-01 0.  0.
         14    1    1    2    0    0  0.93182524224E-02 -0.15559492222E-01  0.16522620642E-01  0.24534152100E-01  0.00000000000E+00 0.  1.
     999901    1    3    3    0    0 -0.90806524159E-01  0.10625848268E+00  0.15477521256E-01  0.89116566565E+00  0.88000000000E+00 0.  1.
        -11    1    4    4    0    0  0.78136560729E-01 -0.76218333311E-01 -0.26112697231E-01  0.11223497910E+00  0.51100000000E-03 0.  1.
         11    1    4    4    0    0  0.33517110078E-02 -0.14480657149E-01 -0.58874446662E-02  0.15995203151E-01  0.51100000000E-03 0. -1.
</event>
<event>
 8    1  0.1112958E+005  0.1043930E+01  0.7957747E-01            NaN
         13   -1    0    0    0    0  0.00000000000E+00  0.00000000000E+00  0.74505805969E-08  0.10566000000E+00  0.10566000000E+00 0. -1.
     999900   -1    0    0    0    0 -0.00000000000E+00 -0.00000000000E+00 -0.74505805969E-08  0.93827000000E+00  0.93827000000E+00 0.  1.
     999902    2    1    2    0    0 -0.15006656526E-01 -0.41829994110E-02 -0.17773107308E-01  0.10202956909E+01  0.10200219195E+01 0.  0.
     999903    2    3    3    0    0  0.44820317474E-01  0.59036188600E-01  0.10197600977E+00  0.12793041612E+00  0.21747468292E-01 0.  0.
         14    1    1    2    0    0  0.15006656526E-01  0.41829994110E-02  0.17773107308E-01  0.23634309119E-01  0.00000000000E+00 0. -1.
     999901    1    3    3    0    0 -0.59826974000E-01 -0.63219188011E-01 -0.11974911708E+00  0.89236527476E+00  0.88000000000E+00 0.  1.
        -11    1    4    4    0    0  0.22823540471E-01  0.13130156323E-01  0.34118765383E-01  0.43100652860E-01  0.51100000000E-03 0. -1.
         11    1    4    4    0    0  0.21996777003E-01  0.45906032277E-01  0.67857244391E-01  0.84829763263E-01  0.51100000000E-03 0.  1.
</event>
<event>
 8    1  0.1112958E+005  0.1043930E+01  0.7957747E-01            NaN
         13   -1    0    0    0    0  0.00000000000E+00  0.00000000000E+00  0.74505805969E-08  0.10566000000E+00  0.10566000000E+00 0.  1.
     999900   -1    0    0    0    0 -0.00000000000E+00 -0.00000000000E+00 -0.74505805969E-08  0.93827000000E+00  0.93827000000E+00 0. -1.
     999902    2    1    2    0    0 -0.50982142809E-02  0.23051239617E-01  0.17982614654E-01  0.10142529741E+01  0.10138187065E+01 0.  0.
     999903    2    3    3    0    0  0.10804510940E-01  0.12235479293E+00 -0.26684289575E-01  0.12739942096E+00  0.20763630248E-01 0.  0.
         14    1    1    2    0    0  0.50982142809E-02 -0.23051239617E-01 -0.17982614654E-01  0.29677025904E-01  0.00000000000E+00 0. -1.
     999901    1    3    3    0    0 -0.15902725221E-01 -0.99303553317E-01  0.44666904229E-01  0.88685355313E+00  0.88000000000E+00 0. -1.
        -11    1    4    4    0    0  0.78530297389E-02  0.18766156918E-01  0.14859491201E-03  0.20349985823E-01  0.51100000000E-03 0.  1.
         11    1    4    4    0    0  0.29514812015E-02  0.10358863602E+00 -0.26832884487E-01  0.10704943514E+00  0.51100000000E-03 0. -1.
</event>
<event>
 8    1  0.1112958E+005  0.1043930E+01  0.7957747E-01            NaN
         13   -1    0    0    0    0  0.00000000000E+00  0.00000000000E+00  0.74505805969E-08  0.10566000000E+00  0.10566000000E+00 0. -1.
     999900   -1    0    0    0    0 -0.00000000000E+00 -0.00000000000E+00 -0.74505805969E-08  0.93827000000E+00  0.93827000000E+00 0.  1.
     999902    2    1    2    0    0  0.48760032117E-02 -0.15301192143E-01  0.16262195744E-01  0.10210747840E+01  0.10208189622E+01 0.  0.
     999903    2    3    3    0    0  0.51378111790E-02  0.12617431324E+00 -0.17249117242E-01  0.12914519301E+00  0.20846928031E-01 0.  0.
         14    1    1    2    0    0 -0.48760032117E-02  0.15301192143E-01 -0.16262195744E-01  0.22855216007E-01  0.00000000000E+00 0.  1.
     999901    1    3    3    0    0 -0.26180796729E-03 -0.14147550538E+00  0.33511312985E-01  0.89192959098E+00  0.88000000000E+00 0.  1.
        -11    1    4    4    0    0  0.83788717733E-02  0.33412006234E-01 -0.10789204878E-01  0.36100356171E-01  0.51100000000E-03 0. -1.
         11    1    4    4    0    0 -0.32410605943E-02  0.92762307003E-01 -0.64599123636E-02  0.93044836842E-01  0.51100000000E-03 0.  1.
</event>
<event>
 8    1  0.1112958E+005  0.1043930E+01  0.7957747E-01            NaN
         13   -1    0    0    0    0  0.00000000000E+00  0.00000000000E+00  0.74505805969E-08  0.10566000000E+00  0.10566000000E+00 0.  1.
     999900   -1    0    0    0    0 -0.00000000000E+00 -0.00000000000E+00 -0.74505805969E-08  0.93827000000E+00  0.93827000000E+00 0. -1.
     999902    2    1    2    0    0 -0.27763982294E-02 -0.16678657510E-01  0.16639684020E-01  0.10202073297E+01  0.10199314832E+01 0.  0.
     999903    2    3    3    0    0 -0.16433704534E-02 -0.13730092108E-02 -0.12701395608E+00  0.12842713537E+00  0.18878512688E-01 0.  0.
         14    1    1    2    0    0  0.27763982294E-02  0.16678657510E-01 -0.16639684020E-01  0.23722670333E-01  0.00000000000E+00 0.  1.
     999901    1    3    3    0    0 -0.11330277760E-02 -0.15305648300E-01  0.14365364010E+00  0.89178019429E+00  0.88000000000E+00 0.  1.
        -11    1    4    4    0    0 -0.52649944138E-03 -0.96823456241E-02 -0.48306868905E-01  0.49273113590E-01  0.51100000000E-03 0.  1.
         11    1    4    4    0    0 -0.11168710121E-02  0.83093364134E-02 -0.78707087171E-01  0.79154021783E-01  0.51100000000E-03 0. -1.
</event>
<event>
 8    1  0.1112958E+005  0.1043930E+01  0.7957747E-01            NaN
         13   -1    0    0    0    0  0.00000000000E+00  0.00000000000E+00  0.74505805969E-08  0.10566000000E+00  0.10566000000E+00 0. -1.
     999900   -1    0    0    0    0 -0.00000000000E+00 -0.00000000000E+00 -0.74505805969E-08  0.93827000000E+00  0.93827000000E+00 0.  1.
     999902    2    1    2    0    0  0.15430192304E-01  0.64668404656E-02 -0.16276485470E-01  0.10205883026E+01  0.10203213457E+01 0.  0.
     999903    2    3    3    0    0 -0.67071135713E-01  0.78849751872E-01  0.74390405713E-01  0.12914776043E+00  0.20721750573E-01 0.  0.
         14    1    1    2    0    0 -0.15430192304E-01 -0.64668404656E-02  0.16276485470E-01  0.23341697441E-01  0.00000000000E+00 0. -1.
     999901    1    3    3    0    0  0.82501328017E-01 -0.72382911406E-01 -0.90666891183E-01  0.89144054213E+00  0.88000000000E+00 0.  1.
        -11    1    4    4    0    0 -0.57936190038E-01  0.70345168762E-01  0.56158484426E-01  0.10704709888E+00  0.51100000000E-03 0.  1.
         11    1    4    4    0    0 -0.91349456750E-02  0.85045831097E-02  0.18231921287E-01  0.22100661555E-01  0.51100000000E-03 0. -1.
</event>
<event>
 8    1  0.1112958E+005  0.1043930E+01  0.7957747E-01            NaN
         13   -1    0    0    0    0  0.00000000000E+00  0.00000000000E+00  0.74505805969E-08  0.10566000000E+00  0.10566000000E+00 0. -1.
     999900   -1    0    0    0    0 -0.00000000000E+00 -0.00000000000E+00 -0.74505805969E-08  0.93827000000E+00  0.93827000000E+00 0. -1.
     999902    2    1    2    0    0  0.13895789631E-01  0.42474154352E-02  0.18940335545E-01  0.10200580537E+01  0.10197786834E+01 0.  0.
     999903    2    3    3    0    0  0.73063888510E-01  0.96779658592E-01 -0.44983037075E-01  0.13092967296E+00  0.20358573529E-01 0.  0.
         14    1    1    2    0    0 -0.13895789631E-01 -0.42474154352E-02 -0.18940335545E-01  0.23871946253E-01  0.00000000000E+00 0.  1.
     999901    1    3    3    0    0 -0.59168098878E-01 -0.92532243157E-01  0.63923372621E-01  0.88912838078E+00  0.88000000000E+00 0.  1.
        -11    1    4    4    0    0  0.41948959558E-01  0.39240653219E-01 -0.18390934524E-01  0.60316097907E-01  0.51100000000E-03 0. -1.
         11    1    4    4    0    0  0.31114928951E-01  0.57539005373E-01 -0.26592102552E-01  0.70613575055E-01  0.51100000000E-03 0.  1.
</event>
<event>
 8    1  0.1112958E+005  0.1043930E+01  0.7957747E-01            NaN
         13   -1    0    0    0    0  0.00000000000E+00  0.00000000000E+00  0.74505805969E-08  0.10566000000E+00  0.10566000000E+00 0. -1.
     999900   -1    0    0    0    0 -0.00000000000E+00 -0.00000000000E+00 -0.74505805969E-08  0.93827000000E+00  0.93827000000E+00 0.  1.
     999902    2    1    2    0    0  0.39619956741E-04  0.98969472014E-02 -0.23387212080E-01  0.10185348662E+01  0.10182182285E+01 0.  0.
     999903    2    3    3    0    0 -0.49369912312E-01  0.22312663084E-01  0.11273553249E+00  0.12661286651E+00  0.19653867386E-01 0.  0.
         14    1    1    2    0    0 -0.39619956741E-04 -0.98969472014E-02  0.23387212080E-01  0.25395133835E-01  0.00000000000E+00 0. -1.
     999901    1    3    3    0    0  0.49409532269E-01 -0.12415715882E-01 -0.13612274457E+00  0.89192199966E+00  0.88000000000E+00 0.  1.
        -11    1    4    4    0    0 -0.27900340515E-01  0.35953860740E-02  0.67825743162E-01  0.73429887364E-01  0.51100000000E-03 0.  1.
         11    1    4    4    0    0 -0.21469571797E-01  0.18717277010E-01  0.44909789332E-01  0.53182979144E-01  0.51100000000E-03 0. -1.
</event>
<event>
 8    1  0.1112958E+005  0.1043930E+01  0.7957747E-01            NaN
         13   -1    0    0    0    0  0.00000000000E+00  0.00000000000E+00  0.74505805969E-08  0.10566000000E+00  0.10566000000E+00 0. -1.
     999900   -1    0    0    0    0 -0.00000000000E+00 -0.00000000000E+00 -0.74505805969E-08  0.93827000000E+00  0.93827000000E+00 0. -1.
     999902    2    1    2    0    0  0.10498592878E-01 -0.21492181874E-01  0.13866043544E-02  0.10199705132E+01  0.10196890658E+01 0.  0.
     999903    2    3    3    0    0  0.70192488943E-02 -0.12514121995E+00 -0.38455652439E-01  0.13298537562E+00  0.22286276947E-01 0.  0.
         14    1    1    2    0    0 -0.10498592878E-01  0.21492181874E-01 -0.13866043544E-02  0.23959486759E-01  0.00000000000E+00 0. -1.
     999901    1    3    3    0    0  0.34793439839E-02  0.10364903807E+00  0.39842256793E-01  0.88698513762E+00  0.88000000000E+00 0.  1.
        -11    1    4    4    0    0  0.10669833219E-01 -0.26268636785E-01 -0.80726093101E-02  0.29484144240E-01  0.51100000000E-03 0.  1.
         11    1    4    4    0    0 -0.36505843249E-02 -0.98872583163E-01 -0.30383043129E-01  0.10350123138E+00  0.51100000000E-03 0. -1.
</event>
<event>
 8    1  0.1112958E+005  0.1043930E+01  0.7957747E-01            NaN
         13   -1    0    0    0    0  0.00000000000E+00  0.00000000000E+00  0.74505805969E-08  0.10566000000E+00  0.10566000000E+00 0. -1.
     999900   -1    0    0    0    0 -0.00000000000E+00 -0.00000000000E+00 -0.74505805969E-08  0.93827000000E+00  0.93827000000E+00 0. -1.
     999902    2    1    2    0    0  0.16068783495E-01 -0.16835849135E-01 -0.23676798551E-02  0.10205364640E+01  0.10202683063E+01 0.  0.
     999903    2    3    3    0    0 -0.47322014846E-01  0.10091762107E+00  0.59580288280E-01  0.12827987320E+00  0.21958501425E-01 0.  0.
         14    1    1    2    0    0 -0.16068783495E-01  0.16835849135E-01  0.23676798551E-02  0.23393536009E-01  0.00000000000E+00 0. -1.
     999901    1    3    3    0    0  0.63390798341E-01 -0.11775347020E+00 -0.61947968135E-01  0.89225659079E+00  0.88000000000E+00 0.  1.
        -11    1    4    4    0    0 -0.19582884449E-01  0.21130691329E-01  0.19410498214E-01  0.34742251529E-01  0.51100000000E-03 0. -1.
         11    1    4    4    0    0 -0.27739130397E-01  0.79786929740E-01  0.40169790066E-01  0.93537621669E-01  0.51100000000E-03 0.  1.
</event>
<event>
 8    1  0.1112958E+005  0.1043930E+01  0.7957747E-01            NaN
         13   -1    0    0    0    0  0.00000000000E+00  0.00000000000E+00  0.74505805969E-08  0.10566000000E+00  0.10566000000E+00 0. -1.
     999900   -1    0    0    0    0 -0.00000000000E+00 -0.00000000000E+00 -0.74505805969E-08  0.93827000000E+00  0.93827000000E+00 0.  1.
     999902    2    1    2    0    0 -0.94233753582E-03  0.34908575243E-01  0.10117910352E-02  0.10089940537E+01  0.10083890519E+01 0.  0.
     999903    2    3    3    0    0  0.51058251841E-01  0.32547684806E-01  0.10299764691E+00  0.12157602933E+00  0.22492638166E-01 0.  0.
         14    1    1    2    0    0  0.94233753582E-03 -0.34908575243E-01 -0.10117910352E-02  0.34935946339E-01  0.00000000000E+00 0. -1.
     999901    1    3    3    0    0 -0.52000589377E-01  0.23608904365E-02 -0.10198585588E+00  0.88741802433E+00  0.88000000000E+00 0.  1.
        -11    1    4    4    0    0  0.15914494408E-01 -0.63112564986E-03  0.20540769136E-01  0.25997187723E-01  0.51100000000E-03 0. -1.
         11    1    4    4    0    0  0.35143757434E-01  0.33178810456E-01  0.82456877778E-01  0.95578841611E-01  0.51100000000E-03 0.  1.
</event>
<event>
 8    1  0.1112958E+005  0.1043930E+01  0.7957747E-01            NaN
         13   -1    0    0    0    0  0.00000000000E+00  0.00000000000E+00  0.74505805969E-08  0.10566000000E+00  0.10566000000E+00 0. -1.
     999900   -1    0    0    0    0 -0.00000000000E+00 -0.00000000000E+00 -0.74505805969E-08  0.93827000000E+00  0.93827000000E+00 0.  1.
     999902    2    1    2    0    0 -0.15368893197E-01 -0.95502804665E-02 -0.17207823188E-01  0.10189596193E+01  0.10186536142E+01 0.  0.
     999903    2    3    3    0    0  0.10092816941E-02  0.71285466730E-02 -0.12961478185E+00  0.13150159083E+00  0.20996235092E-01 0.  0.
         14    1    1    2    0    0  0.15368893197E-01  0.95502804665E-02  0.17207823188E-01  0.24970380734E-01  0.00000000000E+00 0. -1.
     999901    1    3    3    0    0 -0.16378174892E-01 -0.16678827140E-01  0.11240695866E+00  0.88745802844E+00  0.88000000000E+00 0. -1.
        -11    1    4    4    0    0  0.95046873985E-02  0.45226148451E-02 -0.10064696885E+00  0.10119716689E+00  0.51100000000E-03 0. -1.
         11    1    4    4    0    0 -0.84954057044E-02  0.26059318279E-02 -0.28967813004E-01  0.30304423935E-01  0.51100000000E-03 0.  1.
</event>
<event>
 8    1  0.1112958E+005  0.1043930E+01  0.7957747E-01            NaN
         13   -1    0    0    0    0  0.00000000000E+00  0.00000000000E+00  0.74505805969E-08  0.10566000000E+00  0.10566000000E+00 0.  1.
     999900   -1    0    0    0    0 -0.00000000000E+00 -0.00000000000E+00 -0.74505805969E-08  0.93827000000E+00  0.93827000000E+00 0. -1.
     999902    2    1    2    0    0  0.19032267384E-02 -0.22429846180E-01  0.78451722266E-02  0.10200916486E+01  0.10198130733E+01 0.  0.
     999903    2    3    3    0    0  0.10330338783E+00  0.68337000029E-01 -0.27889529409E-01  0.12891401087E+00  0.22348620483E-01 0.  0.
         14    1    1    2    0    0 -0.19032267384E-02  0.22429846180E-01 -0.78451722266E-02  0.23838351430E-01  0.00000000000E+00 0. -1.
     999901    1    3    3    0    0 -0.10140016109E+00 -0.90766846208E-01  0.35734701635E-01  0.89117763770E+00  0.88000000000E+00 0.  1.
        -11    1    4    4    0    0  0.17784184026E-01  0.17801691641E-01 -0.13442384172E-01  0.28533072740E-01  0.51100000000E-03 0.  1.
         11    1    4    4    0    0  0.85519203803E-01  0.50535308388E-01 -0.14447145237E-01  0.10038093813E+00  0.51100000000E-03 0. -1.
</event>
<event>
 8    1  0.1112958E+005  0.1043930E+01  0.7957747E-01            NaN
         13   -1    0    0    0    0  0.00000000000E+00  0.00000000000E+00  0.74505805969E-08  0.10566000000E+00  0.10566000000E+00 0.  1.
     999900   -1    0    0    0    0 -0.00000000000E+00 -0.00000000000E+00 -0.74505805969E-08  0.93827000000E+00  0.93827000000E+00 0. -1.
     999902    2    1    2    0    0 -0.12551383898E-01  0.15286874781E-01 -0.11544849675E-01  0.10210278313E+01  0.10207709454E+01 0.  0.
     999903    2    3    3    0    0 -0.12406361444E+00  0.25092725448E-01  0.34651481807E-01  0.13273439253E+00  0.19906493171E-01 0.  0.
         14    1    1    2    0    0  0.12551383898E-01 -0.15286874781E-01  0.11544849675E-01  0.22902168726E-01  0.00000000000E+00 0.  1.
     999901    1    3    3    0    0  0.11151223055E+00 -0.98058506669E-02 -0.46196331482E-01  0.88829343874E+00  0.88000000000E+00 0. -1.
        -11    1    4    4    0    0 -0.37889570601E-01  0.39116809327E-03  0.16182797643E-01  0.41205783980E-01  0.51100000000E-03 0.  1.
         11    1    4    4    0    0 -0.86174043842E-01  0.24701557355E-01  0.18468684164E-01  0.91528608553E-01  0.51100000000E-03 0. -1.
</event>
<event>
 8    1  0.1112958E+005  0.1043930E+01  0.7957747E-01            NaN
         13   -1    0    0    0    0  0.00000000000E+00  0.00000000000E+00  0.74505805969E-08  0.10566000000E+00  0.10566000000E+00 0. -1.
     999900   -1    0    0    0    0 -0.00000000000E+00 -0.00000000000E+00 -0.74505805969E-08  0.93827000000E+00  0.93827000000E+00 0. -1.
     999902    2    1    2    0    0 -0.24259616268E-04  0.22713411585E-01 -0.63719381675E-02  0.10203397213E+01  0.10200669809E+01 0.  0.
     999903    2    3    3    0    0  0.51983103096E-01  0.79179938569E-01  0.88990944081E-01  0.13186500933E+00  0.22299930023E-01 0.  0.
         14    1    1    2    0    0  0.24259616268E-04 -0.22713411585E-01  0.63719381675E-02  0.23590278726E-01  0.00000000000E+00 0. -1.
     999901    1    3    3    0    0 -0.52007362713E-01 -0.56466526984E-01 -0.95362882248E-01  0.88847471194E+00  0.88000000000E+00 0. -1.
        -11    1    4    4    0    0  0.35554434125E-01  0.52258388610E-01  0.44394690834E-01  0.77241223847E-01  0.51100000000E-03 0. -1.
         11    1    4    4    0    0  0.16428668972E-01  0.26921549958E-01  0.44596253247E-01  0.54623785488E-01  0.51100000000E-03 0.  1.
</event>
<event>
 8    1  0.1112958E+005  0.1043930E+01  0.7957747E-01            NaN
         13   -1    0    0    0    0  0.00000000000E+00  0.00000000000E+00  0.74505805969E-08  0.10566000000E+00  0.10566000000E+00 0.  1.
     999900   -1    0    0    0    0 -0.00000000000E+00 -0.00000000000E+00 -0.74505805969E-08  0.93827000000E+00  0.93827000000E+00 0.  1.
     999902    2    1    2    0    0 -0.41636041902E-02  0.86737211565E-02 -0.21755813616E-01  0.10201416738E+01  0.10198642802E+01 0.  0.
     999903    2    3    3    0    0  0.16075175206E-01  0.63853504003E-01  0.10837742300E+00  0.12863223698E+00  0.21561663720E-01 0.  0.
         14    1    1    2    0    0  0.41636041902E-02 -0.86737211565E-02  0.21755813616E-01  0.23788326227E-01  0.00000000000E+00 0.  1.
     999901    1    3    3    0    0 -0.20238779396E-01 -0.55179782846E-01 -0.13013323662E+00  0.89150943680E+00  0.88000000000E+00 0.  1.
        -11    1    4    4    0    0  0.14789092798E-01  0.64147989630E-01  0.97384550382E-01  0.11754868614E+00  0.51100000000E-03 0.  1.
         11    1    4    4    0    0  0.12860824071E-02 -0.29448562784E-03  0.10992872617E-01  0.11083550835E-01  0.51100000000E-03 0. -1.
</event>
<event>
 8    1  0.1112958E+005  0.1043930E+01  0.7957747E-01            NaN
         13   -1    0    0    0    0  0.00000000000E+00  0.00000000000E+00  0.74505805969E-08  0.10566000000E+00  0.10566000000E+00 0.  1.
     999900   -1    0    0    0    0 -0.00000000000E+00 -0.00000000000E+00 -0.74505805969E-08  0.93827000000E+00  0.93827000000E+00 0. -1.
     999902    2    1    2    0    0 -0.13140383983E-01  0.11405231303E-01 -0.15657321067E-01  0.10205227213E+01  0.10202542448E+01 0.  0.
     999903    2    3    3    0    0 -0.77433982989E-01 -0.76837145552E-01 -0.72000885303E-01  0.13198742029E+00  0.18346197735E-01 0.  0.
         14    1    1    2    0    0  0.13140383983E-01 -0.11405231303E-01  0.15657321067E-01  0.23407278683E-01  0.00000000000E+00 0.  1.
     999901    1    3    3    0    0  0.64293599006E-01  0.88242376856E-01  0.56343564236E-01  0.88853530103E+00  0.88000000000E+00 0.  1.
        -11    1    4    4    0    0 -0.34745506740E-01 -0.23453729879E-01 -0.22399421844E-01  0.47532335350E-01  0.51100000000E-03 0. -1.
         11    1    4    4    0    0 -0.42688476249E-01 -0.53383415673E-01 -0.49601463459E-01  0.84455084937E-01  0.51100000000E-03 0.  1.
</event>
<event>
 8    1  0.1112958E+005  0.1043930E+01  0.7957747E-01            NaN
         13   -1    0    0    0    0  0.00000000000E+00  0.00000000000E+00  0.74505805969E-08  0.10566000000E+00  0.10566000000E+00 0.  1.
     999900   -1    0    0    0    0 -0.00000000000E+00 -0.00000000000E+00 -0.74505805969E-08  0.93827000000E+00  0.93827000000E+00 0. -1.
     999902    2    1    2    0    0  0.28823089960E-02 -0.10759793781E-01  0.20189083922E-01  0.10208718132E+01  0.10206113751E+01 0.  0.
     999903    2    3    3    0    0  0.12337441510E+00 -0.32440365698E-01 -0.23954930799E-01  0.13130051824E+00  0.19808173939E-01 0.  0.
         14    1    1    2    0    0 -0.28823089960E-02  0.10759793781E-01 -0.20189083922E-01  0.23058186767E-01  0.00000000000E+00 0. -1.
     999901    1    3    3    0    0 -0.12049210610E+00  0.21680571917E-01  0.44144014721E-01  0.88957129499E+00  0.88000000000E+00 0.  1.
        -11    1    4    4    0    0  0.40268136980E-01 -0.50628789229E-02 -0.15284605425E-01  0.43370910561E-01  0.51100000000E-03 0.  1.
         11    1    4    4    0    0  0.83106278116E-01 -0.27377486775E-01 -0.86703253735E-02  0.87929607684E-01  0.51100000000E-03 0. -1.
</event>
<event>
 8    1  0.1112958E+005  0.1043930E+01  0.7957747E-01            NaN
         13   -1    0    0    0    0  0.00000000000E+00  0.00000000000E+00  0.74505805969E-08  0.10566000000E+00  0.10566000000E+00 0.  1.
     999900   -1    0    0    0    0 -0.00000000000E+00 -0.00000000000E+00 -0.74505805969E-08  0.93827000000E+00  0.93827000000E+00 0. -1.
     999902    2    1    2    0    0 -0.13917617558E-01 -0.39395528915E-02 -0.19170223029E-01  0.10199150545E+01  0.10196322871E+01 0.  0.
     999903    2    3    3    0    0 -0.38591047058E-01 -0.58437473232E-01 -0.11134321644E+00  0.13308098765E+00  0.20224495966E-01 0.  0.
         14    1    1    2    0    0  0.13917617558E-01  0.39395528915E-02  0.19170223029E-01  0.24014945481E-01  0.00000000000E+00 0.  1.
     999901    1    3    3    0    0  0.24673429500E-01  0.54497920340E-01  0.92172993407E-01  0.88683406687E+00  0.88000000000E+00 0.  1.
        -11    1    4    4    0    0 -0.24359444427E-01 -0.30051087492E-01 -0.43769467262E-01  0.58416417021E-01  0.51100000000E-03 0.  1.
         11    1    4    4    0    0 -0.14231602631E-01 -0.28386385740E-01 -0.67573749174E-01  0.74664570630E-01  0.51100000000E-03 0. -1.
</event>
<event>
 8    1  0.1112958E+005  0.1043930E+01  0.7957747E-01            NaN
         13   -1    0    0    0    0  0.00000000000E+00  0.00000000000E+00  0.74505805969E-08  0.10566000000E+00  0.10566000000E+00 0. -1.
     999900   -1    0    0    0    0 -0.00000000000E+00 -0.00000000000E+00 -0.74505805969E-08  0.93827000000E+00  0.93827000000E+00 0. -1.
     999902    2    1    2    0    0 -0.10899186215E-01  0.25069638087E-02 -0.35259121253E-03  0.10327406547E+01  0.10326800368E+01 0.  0.
     999903    2    3    3    0    0  0.16707243921E-01 -0.86017109065E-01 -0.10806596209E+00  0.14133681988E+00  0.24895169007E-01 0.  0.
         14    1    1    2    0    0  0.10899186215E-01 -0.25069638087E-02  0.35259121253E-03  0.11189345301E-01  0.00000000000E+00 0. -1.
     999901    1    3    3    0    0 -0.27606430136E-01  0.88524072874E-01  0.10771337088E+00  0.89140383482E+00  0.88000000000E+00 0.  1.
        -11    1    4    4    0    0 -0.34230418966E-02 -0.47524801224E-01 -0.56286734533E-01  0.73748095248E-01  0.51100000000E-03 0.  1.
         11    1    4    4    0    0  0.20130285817E-01 -0.38492307841E-01 -0.51779227559E-01  0.67588724633E-01  0.51100000000E-03 0. -1.
</event>
<event>
 8    1  0.1112958E+005  0.1043930E+01  0.7957747E-01            NaN
         13   -1    0    0    0    0  0.00000000000E+00  0.00000000000E+00  0.74505805969E-08  0.10566000000E+00  0.10566000000E+00 0. -1.
     999900   -1    0    0    0    0 -0.00000000000E+00 -0.00000000000E+00 -0.74505805969E-08  0.93827000000E+00  0.93827000000E+00 0. -1.
     999902    2    1    2    0    0  0.34532058136E-02  0.23388870259E-01 -0.31737920347E-03  0.10202854528E+01  0.10200114414E+01 0.  0.
     999903    2    3    3    0    0 -0.21014340708E-01 -0.13956690034E-01  0.12610361685E+00  0.13013062361E+00  0.19886309530E-01 0.  0.
         14    1    1    2    0    0 -0.34532058136E-02 -0.23388870259E-01  0.31737920347E-03  0.23644547193E-01  0.00000000000E+00 0. -1.
     999901    1    3    3    0    0  0.24467546521E-01  0.37345560293E-01 -0.12642099605E+00  0.89015482920E+00  0.88000000000E+00 0. -1.
        -11    1    4    4    0    0 -0.14098403815E-01  0.23158236781E-02  0.62401652870E-01  0.64018399162E-01  0.51100000000E-03 0. -1.
         11    1    4    4    0    0 -0.69159368925E-02 -0.16272513713E-01  0.63701963976E-01  0.66112224445E-01  0.51100000000E-03 0.  1.
</event>
<event>
 8    1  0.1112958E+005  0.1043930E+01  0.7957747E-01            NaN
         13   -1    0    0    0    0  0.00000000000E+00  0.00000000000E+00  0.74505805969E-08  0.10566000000E+00  0.10566000000E+00 0.  1.
     999900   -1    0    0    0    0 -0.00000000000E+00 -0.00000000000E+00 -0.74505805969E-08  0.93827000000E+00  0.93827000000E+00 0.  1.
     999902    2    1    2    0    0 -0.22439427174E-01  0.34204172554E-02  0.90361102001E-02  0.10194989044E+01  0.10192061311E+01 0.  0.
     999903    2    3    3    0    0 -0.12054588301E+00 -0.20954602988E-01 -0.45310297040E-01  0.13204606040E+00  0.20315849762E-01 0.  0.
         14    1    1    2    0    0  0.22439427174E-01 -0.34204172554E-02 -0.90361102001E-02  0.24431095629E-01  0.00000000000E+00 0.  1.
     999901    1    3    3    0    0  0.98106455840E-01  0.24375020244E-01  0.54346407240E-01  0.88745284397E+00  0.88000000000E+00 0.  1.
        -11    1    4    4    0    0 -0.48043176087E-01 -0.11609583428E-01 -0.83475458687E-02  0.50128553130E-01  0.51100000000E-03 0.  1.
         11    1    4    4    0    0 -0.72502706927E-01 -0.93450195609E-02 -0.36962751171E-01  0.81917507271E-01  0.51100000000E-03 0. -1.
</event>
<event>
 8    1  0.1112958E+005  0.1043930E+01  0.7957747E-01            NaN
         13   -1    0    0    0    0  0.00000000000E+00  0.00000000000E+00  0.74505805969E-08  0.10566000000E+00  0.10566000000E+00 0. -1.
     999900   -1    0    0    0    0 -0.00000000000E+00 -0.00000000000E+00 -0.74505805969E-08  0.93827000000E+00  0.93827000000E+00 0.  1.
     999902    2    1    2    0    0  0.48856259664E-03  0.28050330591E-02 -0.24140702186E-01  0.10196219683E+01  0.10193321725E+01 0.  0.
     999903    2    3    3    0    0  0.88874782620E-01  0.87677243167E-01  0.28294715968E-01  0.12958551453E+00  0.20144196896E-01 0.  0.
         14    1    1    2    0    0 -0.48856259664E-03 -0.28050330591E-02  0.24140702186E-01  0.24308031716E-01  0.00000000000E+00 0. -1.
     999901    1    3    3    0    0 -0.88386220023E-01 -0.84872210108E-01 -0.52435418154E-01  0.89003645376E+00  0.88000000000E+00 0.  1.
        -11    1    4    4    0    0  0.47576618644E-01  0.48826880926E-01  0.52427623108E-02  0.68376506347E-01  0.51100000000E-03 0.  1.
         11    1    4    4    0    0  0.41298163975E-01  0.38850362241E-01  0.23051953658E-01  0.61209008180E-01  0.51100000000E-03 0. -1.
</event>
<event>
 8    1  0.1204651E+005  0.1043930E+01  0.7957747E-01            NaN
         13   -1    0    0    0    0  0.00000000000E+00  0.00000000000E+00  0.74505805969E-08  0.10566000000E+00  0.10566000000E+00 0.  1.
     999900   -1    0    0    0    0 -0.00000000000E+00 -0.00000000000E+00 -0.74505805969E-08  0.93827000000E+00  0.93827000000E+00 0.  1.
     999902    2    1    2    0    0  0.20076945059E-01  0.89606221873E-02 -0.76157757421E-02  0.10206625009E+01  0.10203972581E+01 0.  0.
     999903    2    3    3    0    0 -0.27931387128E-01  0.31484103751E-01 -0.12267501835E+00  0.13158953627E+00  0.22253870483E-01 0.  0.
         14    1    1    2    0    0 -0.20076945059E-01 -0.89606221873E-02  0.76157757421E-02  0.23267499072E-01  0.00000000000E+00 0. -1.
     999901    1    3    3    0    0  0.48008332187E-01 -0.22523481564E-01  0.11505924261E+00  0.88907296466E+00  0.88000000000E+00 0. -1.
        -11    1    4    4    0    0 -0.23140249176E-01  0.17164216617E-01 -0.53324106393E-01  0.60611904009E-01  0.51100000000E-03 0.  1.
         11    1    4    4    0    0 -0.47911379521E-02  0.14319887134E-01 -0.69350911960E-01  0.70977632258E-01  0.51100000000E-03 0. -1.
</event>
<event>
 8    1  0.1112958E+005  0.1043930E+01  0.7957747E-01            NaN
         13   -1    0    0    0    0  0.00000000000E+00  0.00000000000E+00  0.74505805969E-08  0.10566000000E+00  0.10566000000E+00 0. -1.
     999900   -1    0    0    0    0 -0.00000000000E+00 -0.00000000000E+00 -0.74505805969E-08  0.93827000000E+00  0.93827000000E+00 0.  1.
     999902    2    1    2    0    0 -0.15775246955E-01 -0.60431533916E-02 -0.18539152696E-01  0.10188485666E+01  0.10185397996E+01 0.  0.
     999903    2    3    3    0    0 -0.61825105997E-01  0.90182151173E-01 -0.69276056704E-01  0.13095548058E+00  0.19874650654E-01 0.  0.
         14    1    1    2    0    0  0.15775246955E-01  0.60431533916E-02  0.18539152696E-01  0.25081433414E-01  0.00000000000E+00 0. -1.
     999901    1    3    3    0    0  0.46049859042E-01 -0.96225304565E-01  0.50736904008E-01  0.88789308601E+00  0.88000000000E+00 0.  1.
        -11    1    4    4    0    0 -0.43305229155E-01  0.67968611313E-01 -0.40670359873E-01  0.90274106415E-01  0.51100000000E-03 0.  1.
         11    1    4    4    0    0 -0.18519876842E-01  0.22213539861E-01 -0.28605696831E-01  0.40681374161E-01  0.51100000000E-03 0. -1.
</event>
<event>
 8    1  0.1112958E+005  0.1043930E+01  0.7957747E-01            NaN
         13   -1    0    0    0    0  0.00000000000E+00  0.00000000000E+00  0.74505805969E-08  0.10566000000E+00  0.10566000000E+00 0. -1.
     999900   -1    0    0    0    0 -0.00000000000E+00 -0.00000000000E+00 -0.74505805969E-08  0.93827000000E+00  0.93827000000E+00 0. -1.
     999902    2    1    2    0    0 -0.19063957976E-01 -0.15667377194E-01  0.41646578978E-02  0.10189051009E+01  0.10185977415E+01 0.  0.
     999903    2    3    3    0    0  0.71209946651E-02  0.11518916331E+00  0.50747440295E-01  0.12762566008E+00  0.19843248350E-01 0.  0.
         14    1    1    2    0    0  0.19063957976E-01  0.15667377194E-01 -0.41646578978E-02  0.25024899146E-01  0.00000000000E+00 0.  1.
     999901    1    3    3    0    0 -0.26184952641E-01 -0.13085654050E+00 -0.46582782397E-01  0.89127944078E+00  0.88000000000E+00 0.  1.
        -11    1    4    4    0    0 -0.59180631530E-02  0.60531243406E-01  0.23924891080E-01  0.65358369272E-01  0.51100000000E-03 0. -1.
         11    1    4    4    0    0  0.13039057818E-01  0.54657919901E-01  0.26822549216E-01  0.62267290805E-01  0.51100000000E-03 0.  1.
</event>
<event>
 8    1  0.1112958E+005  0.1043930E+01  0.7957747E-01            NaN
         13   -1    0    0    0    0  0.00000000000E+00  0.00000000000E+00  0.74505805969E-08  0.10566000000E+00  0.10566000000E+00 0. -1.
     999900   -1    0    0    0    0 -0.00000000000E+00 -0.00000000000E+00 -0.74505805969E-08  0.93827000000E+00  0.93827000000E+00 0.  1.
     999902    2    1    2    0    0  0.22719440836E-01 -0.44544381127E-02  0.65500123644E-02  0.10198692919E+01  0.10195854329E+01 0.  0.
     999903    2    3    3    0    0 -0.11650779289E+00  0.46298003305E-01  0.89854074506E-02  0.12747590106E+00  0.21255514338E-01 0.  0.
         14    1    1    2    0    0 -0.22719440836E-01  0.44544381127E-02 -0.65500123644E-02  0.24060708069E-01  0.00000000000E+00 0. -1.
     999901    1    3    3    0    0  0.13922723373E+00 -0.50752441418E-01 -0.24353950862E-02  0.89239339087E+00  0.88000000000E+00 0. -1.
        -11    1    4    4    0    0 -0.55546670888E-01  0.13222144795E-01  0.10709023349E-01  0.58096489239E-01  0.51100000000E-03 0.  1.
         11    1    4    4    0    0 -0.60961122002E-01  0.33075858510E-01 -0.17236158981E-02  0.69379411822E-01  0.51100000000E-03 0. -1.
</event>
<event>
 8    1  0.1112958E+005  0.1043930E+01  0.7957747E-01            NaN
         13   -1    0    0    0    0  0.00000000000E+00  0.00000000000E+00  0.74505805969E-08  0.10566000000E+00  0.10566000000E+00 0.  1.
     999900   -1    0    0    0    0 -0.00000000000E+00 -0.00000000000E+00 -0.74505805969E-08  0.93827000000E+00  0.93827000000E+00 0.  1.
     999902    2    1    2    0    0  0.18956412903E-01  0.13560772932E-01  0.63787365491E-02  0.10197653888E+01  0.10194790434E+01 0.  0.
     999903    2    3    3    0    0  0.82369586354E-01 -0.29930642622E-01  0.96431863251E-01  0.13183391658E+00  0.20012126005E-01 0.  0.
         14    1    1    2    0    0 -0.18956412903E-01 -0.13560772932E-01 -0.63787365491E-02  0.24164611162E-01  0.00000000000E+00 0.  1.
     999901    1    3    3    0    0 -0.63413173451E-01  0.43491415554E-01 -0.90053126702E-01  0.88793147226E+00  0.88000000000E+00 0.  1.
        -11    1    4    4    0    0  0.40250279105E-01 -0.24961914624E-01  0.47534452316E-01  0.67104153580E-01  0.51100000000E-03 0.  1.
         11    1    4    4    0    0  0.42119307249E-01 -0.49687279980E-02  0.48897410936E-01  0.64729763002E-01  0.51100000000E-03 0. -1.
</event>
<event>
 8    1  0.1112958E+005  0.1043930E+01  0.7957747E-01            NaN
         13   -1    0    0    0    0  0.00000000000E+00  0.00000000000E+00  0.74505805969E-08  0.10566000000E+00  0.10566000000E+00 0. -1.
     999900   -1    0    0    0    0 -0.00000000000E+00 -0.00000000000E+00 -0.74505805969E-08  0.93827000000E+00  0.93827000000E+00 0. -1.
     999902    2    1    2    0    0 -0.17948947991E-02 -0.32089064995E-02 -0.22973307547E-01  0.10206643260E+01  0.10203991252E+01 0.  0.
     999903    2    3    3    0    0  0.79830571235E-01  0.94281638091E-01  0.34365091848E-01  0.12967902024E+00  0.19332391663E-01 0.  0.
         14    1    1    2    0    0  0.17948947991E-02  0.32089064995E-02  0.22973307547E-01  0.23265674027E-01  0.00000000000E+00 0. -1.
     999901    1    3    3    0    0 -0.81625466034E-01 -0.97490544591E-01 -0.57338399395E-01  0.89098530573E+00  0.88000000000E+00 0. -1.
        -11    1    4    4    0    0  0.50472725984E-01  0.67299462631E-01  0.31020790629E-01  0.89661944608E-01  0.51100000000E-03 0.  1.
         11    1    4    4    0    0  0.29357845251E-01  0.26982175461E-01  0.33443012188E-02  0.40017075631E-01  0.51100000000E-03 0. -1.
</event>
<event>
 8    1  0.1112958E+005  0.1043930E+01  0.7957747E-01            NaN
         13   -1    0    0    0    0  0.00000000000E+00  0.00000000000E+00  0.74505805969E-08  0.10566000000E+00  0.10566000000E+00 0. -1.
     999900   -1    0    0    0    0 -0.00000000000E+00 -0.00000000000E+00 -0.74505805969E-08  0.93827000000E+00  0.93827000000E+00 0. -1.
     999902    2    1    2    0    0  0.11039777639E-01  0.21135093673E-01  0.79835135762E-03  0.10200719565E+01  0.10197929153E+01 0.  0.
     999903    2    3    3    0    0  0.11040794461E+00 -0.59082307646E-01  0.30509209159E-01  0.13035762080E+00  0.19536226524E-01 0.  0.
         14    1    1    2    0    0 -0.11039777639E-01 -0.21135093673E-01 -0.79835135762E-03  0.23858043503E-01  0.00000000000E+00 0. -1.
     999901    1    3    3    0    0 -0.99368166968E-01  0.80217401319E-01 -0.29710857802E-01  0.88971433570E+00  0.88000000000E+00 0. -1.
        -11    1    4    4    0    0  0.79750824358E-01 -0.32964788106E-01  0.17705166142E-01  0.88094297601E-01  0.51100000000E-03 0. -1.
         11    1    4    4    0    0  0.30657120250E-01 -0.26117519540E-01  0.12804043017E-01  0.42263323196E-01  0.51100000000E-03 0.  1.
</event>
<event>
 8    1  0.1112958E+005  0.1043930E+01  0.7957747E-01            NaN
         13   -1    0    0    0    0  0.00000000000E+00  0.00000000000E+00  0.74505805969E-08  0.10566000000E+00  0.10566000000E+00 0.  1.
     999900   -1    0    0    0    0 -0.00000000000E+00 -0.00000000000E+00 -0.74505805969E-08  0.93827000000E+00  0.93827000000E+00 0.  1.
     999902    2    1    2    0    0  0.57388657036E-02  0.12698593686E-01 -0.17824899014E-01  0.10213044418E+01  0.10210537923E+01 0.  0.
     999903    2    3    3    0    0 -0.14931169614E-01 -0.11971782133E+00 -0.46231005912E-01  0.13070449552E+00  0.19775304552E-01 0.  0.
         14    1    1    2    0    0 -0.57388657036E-02 -0.12698593686E-01  0.17824899014E-01  0.22625558248E-01  0.00000000000E+00 0.  1.
     999901    1    3    3    0    0  0.20670035318E-01  0.13241641502E+00  0.28406106897E-01  0.89059994624E+00  0.88000000000E+00 0.  1.
        -11    1    4    4    0    0 -0.71000425589E-02 -0.95499733400E-01 -0.43231203210E-01  0.10507048937E+00  0.51100000000E-03 0. -1.
         11    1    4    4    0    0 -0.78311270555E-02 -0.24218087931E-01 -0.29998027018E-02  0.25634006149E-01  0.51100000000E-03 0.  1.
</event>
<event>
 8    1  0.1112958E+005  0.1043930E+01  0.7957747E-01            NaN
         13   -1    0    0    0    0  0.00000000000E+00  0.00000000000E+00  0.74505805969E-08  0.10566000000E+00  0.10566000000E+00 0.  1.
     999900   -1    0    0    0    0 -0.00000000000E+00 -0.00000000000E+00 -0.74505805969E-08  0.93827000000E+00  0.93827000000E+00 0.  1.
     999902    2    1    2    0    0  0.19264108231E-01  0.42716069541E-02  0.13469827397E-01  0.10200388146E+01  0.10197589884E+01 0.  0.
     999903    2    3    3    0    0  0.85401998150E-01  0.60633648946E-01  0.79949884656E-01  0.13326347758E+00  0.19930622832E-01 0.  0.
         14    1    1    2    0    0 -0.19264108231E-01 -0.42716069541E-02 -0.13469827397E-01  0.23891185446E-01  0.00000000000E+00 0. -1.
     999901    1    3    3    0    0 -0.66137889919E-01 -0.56362041992E-01 -0.66480057259E-01  0.88677533698E+00  0.88000000000E+00 0.  1.
        -11    1    4    4    0    0  0.54238747236E-01  0.41887175619E-01  0.40494039991E-01  0.79601542566E-01  0.51100000000E-03 0.  1.
         11    1    4    4    0    0  0.31163250914E-01  0.18746473327E-01  0.39455844665E-01  0.53661935009E-01  0.51100000000E-03 0. -1.
</event>
<event>
 8    1  0.1112958E+005  0.1043930E+01  0.7957747E-01            NaN
         13   -1    0    0    0    0  0.00000000000E+00  0.00000000000E+00  0.74505805969E-08  0.10566000000E+00  0.10566000000E+00 0.  1.
     999900   -1    0    0    0    0 -0.00000000000E+00 -0.00000000000E+00 -0.74505805969E-08  0.93827000000E+00  0.93827000000E+00 0. -1.
     999902    2    1    2    0    0 -0.19277004012E-01 -0.14572066820E-01  0.78404832697E-03  0.10197522675E+01  0.10194656073E+01 0.  0.
     999903    2    3    3    0    0  0.71395405945E-01  0.30177002586E-01 -0.99859877768E-01  0.12826297148E+00  0.21712650429E-01 0.  0.
         14    1    1    2    0    0  0.19277004012E-01  0.14572066820E-01 -0.78404832697E-03  0.24177732459E-01  0.00000000000E+00 0.  1.
     999901    1    3    3    0    0 -0.90672409957E-01 -0.44749069405E-01  0.10064392610E+00  0.89148929607E+00  0.88000000000E+00 0.  1.
        -11    1    4    4    0    0  0.47708046264E-01  0.30786003819E-01 -0.69401042188E-01  0.89669401064E-01  0.51100000000E-03 0.  1.
         11    1    4    4    0    0  0.23687359681E-01 -0.60900123271E-03 -0.30458835580E-01  0.38593570411E-01  0.51100000000E-03 0. -1.
</event>
<event>
 8    1  0.1112958E+005  0.1043930E+01  0.7957747E-01            NaN
         13   -1    0    0    0    0  0.00000000000E+00  0.00000000000E+00  0.74505805969E-08  0.10566000000E+00  0.10566000000E+00 0.  1.
     999900   -1    0    0    0    0 -0.00000000000E+00 -0.00000000000E+00 -0.74505805969E-08  0.93827000000E+00  0.93827000000E+00 0.  1.
     999902    2    1    2    0    0 -0.27816041582E-02  0.22341043612E-01 -0.12086569903E-01  0.10183772169E+01  0.10180565855E+01 0.  0.
     999903    2    3    3    0    0  0.11831646483E+00 -0.16324123849E-01 -0.43184548456E-01  0.12869928544E+00  0.20816771514E-01 0.  0.
         14    1    1    2    0    0  0.27816041582E-02 -0.22341043612E-01  0.12086569903E-01  0.25552783085E-01  0.00000000000E+00 0.  1.
     999901    1    3    3    0    0 -0.12109806899E+00  0.38665167462E-01  0.31097978553E-01  0.88967793148E+00  0.88000000000E+00 0. -1.
        -11    1    4    4    0    0  0.86309175158E-01 -0.20420274439E-01 -0.35431323575E-01  0.95508644299E-01  0.51100000000E-03 0. -1.
         11    1    4    4    0    0  0.32007289676E-01  0.40961505894E-02 -0.77532248813E-02  0.33190641138E-01  0.51100000000E-03 0.  1.
</event>
<event>
 8    1  0.1112958E+005  0.1043930E+01  0.7957747E-01            NaN
         13   -1    0    0    0    0  0.00000000000E+00  0.00000000000E+00  0.74505805969E-08  0.10566000000E+00  0.10566000000E+00 0.  1.
     999900   -1    0    0    0    0 -0.00000000000E+00 -0.00000000000E+00 -0.74505805969E-08  0.93827000000E+00  0.93827000000E+00 0.  1.
     999902    2    1    2    0    0  0.11648723378E-02 -0.22820214418E-01  0.56448901694E-02  0.10203931375E+01  0.10201216452E+01 0.  0.
     999903    2    3    3    0    0 -0.11364553303E+00 -0.22011046474E-02  0.61813347394E-01  0.13092055639E+00  0.19978741948E-01 0.  0.
         14    1    1    2    0    0 -0.11648723378E-02  0.22820214418E-01 -0.56448901694E-02  0.23536862549E-01  0.00000000000E+00 0.  1.
     999901    1    3    3    0    0  0.11481040537E+00 -0.20619109771E-01 -0.56168457224E-01  0.88947258106E+00  0.88000000000E+00 0. -1.
        -11    1    4    4    0    0 -0.46993838076E-01  0.57889892265E-02  0.17496400571E-01  0.50480871301E-01  0.51100000000E-03 0.  1.
         11    1    4    4    0    0 -0.66651694957E-01 -0.79900938739E-02  0.44316946823E-01  0.80439685090E-01  0.51100000000E-03 0. -1.
</event>
<event>
 8    1  0.1112958E+005  0.1043930E+01  0.7957747E-01            NaN
         13   -1    0    0    0    0  0.00000000000E+00  0.00000000000E+00  0.74505805969E-08  0.10566000000E+00  0.10566000000E+00 0.  1.
     999900   -1    0    0    0    0 -0.00000000000E+00 -0.00000000000E+00 -0.74505805969E-08  0.93827000000E+00  0.93827000000E+00 0.  1.
     999902    2    1    2    0    0  0.14675385185E-01 -0.17362283882E-01  0.31474067411E-02  0.10209795751E+01  0.10207215932E+01 0.  0.
     999903    2    3    3    0    0  0.32305617036E-02  0.12276762991E+00 -0.33980978266E-01  0.12904578068E+00  0.20390663175E-01 0.  0.
         14    1    1    2    0    0 -0.14675385185E-01  0.17362283882E-01 -0.31474067411E-02  0.22950424857E-01  0.00000000000E+00 0.  1.
     999901    1    3    3    0    0  0.11444823481E-01 -0.14012991380E+00  0.37128385007E-01  0.89193379446E+00  0.88000000000E+00 0.  1.
        -11    1    4    4    0    0 -0.65911554771E-02  0.90162835108E-01 -0.25956374689E-01  0.94057294630E-01  0.51100000000E-03 0.  1.
         11    1    4    4    0    0  0.98217171806E-02  0.32604794807E-01 -0.80246035770E-02  0.34988486054E-01  0.51100000000E-03 0. -1.
</event>
<event>
 8    1  0.1112958E+005  0.1043930E+01  0.7957747E-01            NaN
         13   -1    0    0    0    0  0.00000000000E+00  0.00000000000E+00  0.74505805969E-08  0.10566000000E+00  0.10566000000E+00 0.  1.
     999900   -1    0    0    0    0 -0.00000000000E+00 -0.00000000000E+00 -0.74505805969E-08  0.93827000000E+00  0.93827000000E+00 0.  1.
     999902    2    1    2    0    0  0.16533144309E-01 -0.16586929063E-01 -0.13250872370E-02  0.10204730835E+01  0.10202034538E+01 0.  0.
     999903    2    3    3    0    0  0.92737197340E-01 -0.79128967285E-01  0.50464634364E-01  0.13345519217E+00  0.20050629933E-01 0.  0.
         14    1    1    2    0    0 -0.16533144309E-01  0.16586929063E-01  0.13250872370E-02  0.23456916521E-01  0.00000000000E+00 0. -1.
     999901    1    3    3    0    0 -0.76204053031E-01  0.62542038222E-01 -0.51789721601E-01  0.88701789131E+00  0.88000000000E+00 0.  1.
        -11    1    4    4    0    0  0.56172885085E-01 -0.38466895232E-01  0.20528039984E-01  0.71110875358E-01  0.51100000000E-03 0.  1.
         11    1    4    4    0    0  0.36564312255E-01 -0.40662072054E-01  0.29936594379E-01  0.62344316809E-01  0.51100000000E-03 0. -1.
</event>
<event>
 8    1  0.1112958E+005  0.1043930E+01  0.7957747E-01            NaN
         13   -1    0    0    0    0  0.00000000000E+00  0.00000000000E+00  0.74505805969E-08  0.10566000000E+00  0.10566000000E+00 0.  1.
     999900   -1    0    0    0    0 -0.00000000000E+00 -0.00000000000E+00 -0.74505805969E-08  0.93827000000E+00  0.93827000000E+00 0.  1.
     999902    2    1    2    0    0 -0.10120167833E-02  0.11627359465E-01  0.20094521200E-01  0.10206918966E+01  0.10204273313E+01 0.  0.
     999903    2    3    3    0    0 -0.11314605145E+00 -0.49832903973E-01  0.39232143956E-01  0.13124394744E+00  0.20011630188E-01 0.  0.
         14    1    1    2    0    0  0.10120167833E-02 -0.11627359465E-01 -0.20094521200E-01  0.23238103373E-01  0.00000000000E+00 0. -1.
     999901    1    3    3    0    0  0.11213403467E+00  0.61460263438E-01 -0.19137622755E-01  0.88944794919E+00  0.88000000000E+00 0. -1.
        -11    1    4    4    0    0 -0.51429850837E-01 -0.33558591506E-01  0.19676288122E-01  0.64487410060E-01  0.51100000000E-03 0.  1.
         11    1    4    4    0    0 -0.61716200612E-01 -0.16274312467E-01  0.19555855833E-01  0.66756537378E-01  0.51100000000E-03 0. -1.
</event>
<event>
 8    1  0.1112958E+005  0.1043930E+01  0.7957747E-01            NaN
         13   -1    0    0    0    0  0.00000000000E+00  0.00000000000E+00  0.74505805969E-08  0.10566000000E+00  0.10566000000E+00 0.  1.
     999900   -1    0    0    0    0 -0.00000000000E+00 -0.00000000000E+00 -0.74505805969E-08  0.93827000000E+00  0.93827000000E+00 0. -1.
     999902    2    1    2    0    0  0.16099424719E-04  0.19922662289E-01 -0.12975033108E-01  0.10201547142E+01  0.10198776283E+01 0.  0.
     999903    2    3    3    0    0  0.25606879760E-01  0.12698539691E+00 -0.23598569821E-01  0.13323297202E+00  0.20325575423E-01 0.  0.
         14    1    1    2    0    0 -0.16099424719E-04 -0.19922662289E-01  0.12975033108E-01  0.23775285825E-01  0.00000000000E+00 0.  1.
     999901    1    3    3    0    0 -0.25590780335E-01 -0.10706273462E+00  0.10623536713E-01  0.88692174216E+00  0.88000000000E+00 0. -1.
        -11    1    4    4    0    0  0.68404948470E-02  0.82340458677E-01 -0.16964011409E-01  0.84349168988E-01  0.51100000000E-03 0.  1.
         11    1    4    4    0    0  0.18766384913E-01  0.44644938229E-01 -0.66345584124E-02  0.48883803028E-01  0.51100000000E-03 0. -1.
</event>
<event>
 8    1  0.1112958E+005  0.1043930E+01  0.7957747E-01            NaN
         13   -1    0    0    0    0  0.00000000000E+00  0.00000000000E+00  0.74505805969E-08  0.10566000000E+00  0.10566000000E+00 0.  1.
     999900   -1    0    0    0    0 -0.00000000000E+00 -0.00000000000E+00 -0.74505805969E-08  0.93827000000E+00  0.93827000000E+00 0.  1.
     999902    2    1    2    0    0 -0.15234338599E-01  0.19803820480E-01 -0.49491176094E-02  0.10184590333E+01  0.10181404777E+01 0.  0.
     999903    2    3    3    0    0 -0.24891516383E-01  0.90458935793E-01 -0.89886525018E-01  0.13149805922E+00  0.20242172497E-01 0.  0.
         14    1    1    2    0    0  0.15234338599E-01 -0.19803820480E-01  0.49491176094E-02  0.25470966673E-01  0.00000000000E+00 0. -1.
     999901    1    3    3    0    0  0.96571777838E-02 -0.70655115313E-01  0.84937407408E-01  0.88696097410E+00  0.88000000000E+00 0. -1.
        -11    1    4    4    0    0 -0.17481082799E-01  0.31546120826E-01 -0.27387511462E-01  0.45288882743E-01  0.51100000000E-03 0. -1.
         11    1    4    4    0    0 -0.74104335840E-02  0.58912814967E-01 -0.62499013556E-01  0.86209176482E-01  0.51100000000E-03 0.  1.
</event>
<event>
 8    1  0.1112958E+005  0.1043930E+01  0.7957747E-01            NaN
         13   -1    0    0    0    0  0.00000000000E+00  0.00000000000E+00  0.74505805969E-08  0.10566000000E+00  0.10566000000E+00 0. -1.
     999900   -1    0    0    0    0 -0.00000000000E+00 -0.00000000000E+00 -0.74505805969E-08  0.93827000000E+00  0.93827000000E+00 0. -1.
     999902    2    1    2    0    0 -0.15554149178E-02  0.22173904277E-01  0.63566175495E-02  0.10208105724E+01  0.10205487332E+01 0.  0.
     999903    2    3    3    0    0 -0.47931598905E-01  0.92144488045E-01 -0.80017460938E-01  0.13260613957E+00  0.19838078213E-01 0.  0.
         14    1    1    2    0    0  0.15554149178E-02 -0.22173904277E-01 -0.63566175495E-02  0.23119427612E-01  0.00000000000E+00 0.  1.
     999901    1    3    3    0    0  0.46376183988E-01 -0.69970583769E-01  0.86374078488E-01  0.88820443281E+00  0.88000000000E+00 0.  1.
        -11    1    4    4    0    0 -0.17811392536E-01  0.49799545163E-01 -0.31797962189E-01  0.61713952417E-01  0.51100000000E-03 0.  1.
         11    1    4    4    0    0 -0.30120206369E-01  0.42344942882E-01 -0.48219498749E-01  0.70892187158E-01  0.51100000000E-03 0. -1.
</event>
<event>
 8    1  0.1157340E+005  0.1043930E+01  0.7957747E-01            NaN
         13   -1    0    0    0    0  0.00000000000E+00  0.00000000000E+00  0.74505805969E-08  0.10566000000E+00  0.10566000000E+00 0. -1.
     999900   -1    0    0    0    0 -0.00000000000E+00 -0.00000000000E+00 -0.74505805969E-08  0.93827000000E+00  0.93827000000E+00 0.  1.
     999902    2    1    2    0    0 -0.20268209197E-01  0.55131513212E-02 -0.10459140895E-01  0.10204653719E+01  0.10201955629E+01 0.  0.
     999903    2    3    3    0    0 -0.89302596299E-01  0.59525107203E-01  0.73953272404E-01  0.13209129899E+00  0.21467013671E-01 0.  0.
         14    1    1    2    0    0  0.20268209197E-01 -0.55131513212E-02  0.10459140895E-01  0.23464628056E-01  0.00000000000E+00 0. -1.
     999901    1    3    3    0    0  0.69034387102E-01 -0.54011955882E-01 -0.84412413299E-01  0.88837407296E+00  0.88000000000E+00 0.  1.
        -11    1    4    4    0    0 -0.41980639460E-01  0.40265819876E-01  0.43176685947E-01  0.72444445406E-01  0.51100000000E-03 0.  1.
         11    1    4    4    0    0 -0.47321956839E-01  0.19259287327E-01  0.30776586457E-01  0.59646853583E-01  0.51100000000E-03 0. -1.
</event>
<event>
 8    1  0.1112958E+005  0.1043930E+01  0.7957747E-01            NaN
         13   -1    0    0    0    0  0.00000000000E+00  0.00000000000E+00  0.74505805969E-08  0.10566000000E+00  0.10566000000E+00 0.  1.
     999900   -1    0    0    0    0 -0.00000000000E+00 -0.00000000000E+00 -0.74505805969E-08  0.93827000000E+00  0.93827000000E+00 0.  1.
     999902    2    1    2    0    0  0.96025985060E-02  0.20499024261E-01 -0.71204768865E-03  0.10212821103E+01  0.10210309604E+01 0.  0.
     999903    2    3    3    0    0  0.53108676086E-01 -0.59104166761E-01  0.10181559366E+00  0.13069726653E+00  0.20038122667E-01 0.  0.
         14    1    1    2    0    0 -0.96025985060E-02 -0.20499024261E-01  0.71204768865E-03  0.22647889651E-01  0.00000000000E+00 0. -1.
     999901    1    3    3    0    0 -0.43506077580E-01  0.79603191022E-01 -0.10252764135E+00  0.89058484382E+00  0.88000000000E+00 0.  1.
        -11    1    4    4    0    0  0.39569033286E-01 -0.29668113756E-01  0.64382494949E-01  0.81186650047E-01  0.51100000000E-03 0. -1.
         11    1    4    4    0    0  0.13539642800E-01 -0.29436053005E-01  0.37433098715E-01  0.49510616479E-01  0.51100000000E-03 0.  1.
</event>
<event>
 8    1  0.1112958E+005  0.1043930E+01  0.7957747E-01            NaN
         13   -1    0    0    0    0  0.00000000000E+00  0.00000000000E+00  0.74505805969E-08  0.10566000000E+00  0.10566000000E+00 0. -1.
     999900   -1    0    0    0    0 -0.00000000000E+00 -0.00000000000E+00 -0.74505805969E-08  0.93827000000E+00  0.93827000000E+00 0. -1.
     999902    2    1    2    0    0  0.77536759367E-02 -0.20293169082E-01  0.89249977107E-02  0.10204440939E+01  0.10201737896E+01 0.  0.
     999903    2    3    3    0    0 -0.85339036474E-01 -0.98420001023E-01 -0.60534986312E-02  0.13196538827E+00  0.20223034110E-01 0.  0.
         14    1    1    2    0    0 -0.77536759367E-02  0.20293169082E-01 -0.89249977107E-02  0.23485906115E-01  0.00000000000E+00 0.  1.
     999901    1    3    3    0    0  0.93092712411E-01  0.78126831941E-01  0.14978496342E-01  0.88847870561E+00  0.88000000000E+00 0.  1.
        -11    1    4    4    0    0 -0.24010455687E-01 -0.42328890487E-01 -0.39343859101E-02  0.48825991701E-01  0.51100000000E-03 0.  1.
         11    1    4    4    0    0 -0.61328580787E-01 -0.56091110536E-01 -0.21191127210E-02  0.83139396571E-01  0.51100000000E-03 0. -1.
</event>
<event>
 8    1  0.1112958E+005  0.1043930E+01  0.7957747E-01            NaN
         13   -1    0    0    0    0  0.00000000000E+00  0.00000000000E+00  0.74505805969E-08  0.10566000000E+00  0.10566000000E+00 0.  1.
     999900   -1    0    0    0    0 -0.00000000000E+00 -0.00000000000E+00 -0.74505805969E-08  0.93827000000E+00  0.93827000000E+00 0.  1.
     999902    2    1    2    0    0  0.23046715742E-01  0.44271681490E-02 -0.50118194597E-02  0.10199327239E+01  0.10196503774E+01 0.  0.
     999903    2    3    3    0    0  0.53606296859E-01 -0.10365507223E+00 -0.56854849735E-01  0.13128017177E+00  0.19595930651E-01 0.  0.
         14    1    1    2    0    0 -0.23046715742E-01 -0.44271681490E-02  0.50118194597E-02  0.23997276067E-01  0.00000000000E+00 0. -1.
     999901    1    3    3    0    0 -0.30559581117E-01  0.10808224038E+00  0.51843030275E-01  0.88865255217E+00  0.88000000000E+00 0. -1.
        -11    1    4    4    0    0 -0.13871311594E-02 -0.66625547850E-02 -0.35962388138E-02  0.77141314302E-02  0.51100000000E-03 0.  1.
         11    1    4    4    0    0  0.54993428019E-01 -0.96992517448E-01 -0.53258610921E-01  0.12356604034E+00  0.51100000000E-03 0. -1.
</event>
<event>
 8    1  0.1112958E+005  0.1043930E+01  0.7957747E-01            NaN
         13   -1    0    0    0    0  0.00000000000E+00  0.00000000000E+00  0.74505805969E-08  0.10566000000E+00  0.10566000000E+00 0.  1.
     999900   -1    0    0    0    0 -0.00000000000E+00 -0.00000000000E+00 -0.74505805969E-08  0.93827000000E+00  0.93827000000E+00 0. -1.
     999902    2    1    2    0    0 -0.26188294830E-01  0.86699887143E-02 -0.13706568618E-01  0.10131263393E+01  0.10126579451E+01 0.  0.
     999903    2    3    3    0    0  0.64100232599E-01 -0.10133945565E+00 -0.92775674557E-03  0.12160102048E+00  0.20184706036E-01 0.  0.
         14    1    1    2    0    0  0.26188294830E-01 -0.86699887143E-02  0.13706568618E-01  0.30803660719E-01  0.00000000000E+00 0.  1.
     999901    1    3    3    0    0 -0.90288527429E-01  0.11000944436E+00 -0.12778811872E-01  0.89152531880E+00  0.88000000000E+00 0. -1.
        -11    1    4    4    0    0  0.37098385945E-01 -0.40568089926E-01  0.22662635961E-02  0.55022333934E-01  0.51100000000E-03 0.  1.
         11    1    4    4    0    0  0.27001846654E-01 -0.60771365725E-01 -0.31940203417E-02  0.66578686543E-01  0.51100000000E-03 0. -1.
</event>
<event>
 8    1  0.1112958E+005  0.1043930E+01  0.7957747E-01            NaN
         13   -1    0    0    0    0  0.00000000000E+00  0.00000000000E+00  0.74505805969E-08  0.10566000000E+00  0.10566000000E+00 0. -1.
     999900   -1    0    0    0    0 -0.00000000000E+00 -0.00000000000E+00 -0.74505805969E-08  0.93827000000E+00  0.93827000000E+00 0. -1.
     999902    2    1    2    0    0 -0.84311999678E-02  0.13559043001E-01  0.16903990222E-01  0.10206775235E+01  0.10204126269E+01 0.  0.
     999903    2    3    3    0    0 -0.11658599685E+00 -0.55985976237E-01  0.49205259736E-02  0.13125210601E+00  0.21821538894E-01 0.  0.
         14    1    1    2    0    0  0.84311999678E-02 -0.13559043001E-01 -0.16903990222E-01  0.23252476544E-01  0.00000000000E+00 0.  1.
     999901    1    3    3    0    0  0.10815479688E+00  0.69545019239E-01  0.11983464248E-01  0.88942541745E+00  0.88000000000E+00 0.  1.
        -11    1    4    4    0    0 -0.34986651191E-01 -0.12731775796E-01  0.10622183852E-01  0.38720224525E-01  0.51100000000E-03 0. -1.
         11    1    4    4    0    0 -0.81599345655E-01 -0.43254200441E-01 -0.57016578782E-02  0.92531881482E-01  0.51100000000E-03 0.  1.
</event>
<event>
 8    1  0.1112958E+005  0.1043930E+01  0.7957747E-01            NaN
         13   -1    0    0    0    0  0.00000000000E+00  0.00000000000E+00  0.74505805969E-08  0.10566000000E+00  0.10566000000E+00 0. -1.
     999900   -1    0    0    0    0 -0.00000000000E+00 -0.00000000000E+00 -0.74505805969E-08  0.93827000000E+00  0.93827000000E+00 0.  1.
     999902    2    1    2    0    0 -0.42335624090E-02  0.93824477417E-02  0.23472853233E-01  0.10182993891E+01  0.10179767766E+01 0.  0.
     999903    2    3    3    0    0 -0.64783045019E-01 -0.22058643671E-01  0.11043519818E+00  0.13138494480E+00  0.19561289334E-01 0.  0.
         14    1    1    2    0    0  0.42335624090E-02 -0.93824477417E-02 -0.23472853233E-01  0.25630610901E-01  0.00000000000E+00 0.  1.
     999901    1    3    3    0    0  0.60549482610E-01  0.31441091413E-01 -0.86962344944E-01  0.88691444430E+00  0.88000000000E+00 0.  1.
        -11    1    4    4    0    0 -0.57260008013E-01 -0.12062189822E-01  0.93930821009E-01  0.11066826644E+00  0.51100000000E-03 0.  1.
         11    1    4    4    0    0 -0.75230370058E-02 -0.99964538486E-02  0.16504377167E-01  0.20716678354E-01  0.51100000000E-03 0. -1.
</event>
<event>
 8    1  0.1112958E+005  0.1043930E+01  0.7957747E-01            NaN
         13   -1    0    0    0    0  0.00000000000E+00  0.00000000000E+00  0.74505805969E-08  0.10566000000E+00  0.10566000000E+00 0.  1.
     999900   -1    0    0    0    0 -0.00000000000E+00 -0.00000000000E+00 -0.74505805969E-08  0.93827000000E+00  0.93827000000E+00 0.  1.
     999902    2    1    2    0    0 -0.27846466742E-02  0.87851985995E-02  0.20173833889E-01  0.10217507857E+01  0.10215100345E+01 0.  0.
     999903    2    3    3    0    0 -0.69167219678E-01 -0.85917718441E-01 -0.65962415119E-01  0.13001386159E+00  0.19662283111E-01 0.  0.
         14    1    1    2    0    0  0.27846466742E-02 -0.87851985995E-02 -0.20173833889E-01  0.22179214263E-01  0.00000000000E+00 0. -1.
     999901    1    3    3    0    0  0.66382573004E-01  0.94702917040E-01  0.86136249008E-01  0.89173692415E+00  0.88000000000E+00 0. -1.
        -11    1    4    4    0    0 -0.37381692599E-01 -0.36747319001E-01 -0.22265543018E-01  0.56954121205E-01  0.51100000000E-03 0. -1.
         11    1    4    4    0    0 -0.31785527079E-01 -0.49170399439E-01 -0.43696872100E-01  0.73059740385E-01  0.51100000000E-03 0.  1.
</event>
<event>
 8    1  0.1112958E+005  0.1043930E+01  0.7957747E-01            NaN
         13   -1    0    0    0    0  0.00000000000E+00  0.00000000000E+00  0.74505805969E-08  0.10566000000E+00  0.10566000000E+00 0. -1.
     999900   -1    0    0    0    0 -0.00000000000E+00 -0.00000000000E+00 -0.74505805969E-08  0.93827000000E+00  0.93827000000E+00 0.  1.
     999902    2    1    2    0    0  0.14349253322E-01 -0.13901044261E-01 -0.13410804435E-01  0.10198677936E+01  0.10195838988E+01 0.  0.
     999903    2    3    3    0    0 -0.11464810448E+00 -0.15473908549E-01  0.51738490197E-01  0.12807901656E+00  0.18540048779E-01 0.  0.
         14    1    1    2    0    0 -0.14349253322E-01  0.13901044261E-01  0.13410804435E-01  0.24062206425E-01  0.00000000000E+00 0. -1.
     999901    1    3    3    0    0  0.12899735780E+00  0.15728642882E-02 -0.65149294632E-01  0.89178877702E+00  0.88000000000E+00 0. -1.
        -11    1    4    4    0    0 -0.72600550679E-01 -0.83741565665E-02  0.42154329672E-01  0.84369515160E-01  0.51100000000E-03 0.  1.
         11    1    4    4    0    0 -0.42047553798E-01 -0.70997519822E-02  0.95841605253E-02  0.43709501399E-01  0.51100000000E-03 0. -1.
</event>
<event>
 8    1  0.1112958E+005  0.1043930E+01  0.7957747E-01            NaN
         13   -1    0    0    0    0  0.00000000000E+00  0.00000000000E+00  0.74505805969E-08  0.10566000000E+00  0.10566000000E+00 0.  1.
     999900   -1    0    0    0    0 -0.00000000000E+00 -0.00000000000E+00 -0.74505805969E-08  0.93827000000E+00  0.93827000000E+00 0. -1.
     999902    2    1    2    0    0 -0.21748442028E-01  0.87380406410E-02 -0.87616744543E-02  0.10189077095E+01  0.10186004150E+01 0.  0.
     999903    2    3    3    0    0 -0.82774752918E-01  0.64568318035E-01  0.74841318434E-01  0.13108413975E+00  0.23687577672E-01 0.  0.
         14    1    1    2    0    0  0.21748442028E-01 -0.87380406410E-02  0.87616744543E-02  0.25022290545E-01  0.00000000000E+00 0. -1.
     999901    1    3    3    0    0  0.61026310889E-01 -0.55830277394E-01 -0.83602992888E-01  0.88782356970E+00  0.88000000000E+00 0. -1.
        -11    1    4    4    0    0  0.69681432609E-03  0.36795904043E-02  0.54176971671E-02  0.66058685532E-02  0.51100000000E-03 0. -1.
         11    1    4    4    0    0 -0.83471567244E-01  0.60888727631E-01  0.69423621266E-01  0.12447827120E+00  0.51100000000E-03 0.  1.
</event>
<event>
 8    1  0.1112958E+005  0.1043930E+01  0.7957747E-01            NaN
         13   -1    0    0    0    0  0.00000000000E+00  0.00000000000E+00  0.74505805969E-08  0.10566000000E+00  0.10566000000E+00 0.  1.
     999900   -1    0    0    0    0 -0.00000000000E+00 -0.00000000000E+00 -0.74505805969E-08  0.93827000000E+00  0.93827000000E+00 0. -1.
     999902    2    1    2    0    0 -0.11012768048E-01  0.15928575162E-01  0.14011003618E-01  0.10200279334E+01  0.10197478493E+01 0.  0.
     999903    2    3    3    0    0 -0.12952661981E+00 -0.52479424506E-02  0.87774765449E-02  0.13181547694E+00  0.22216879305E-01 0.  0.
         14    1    1    2    0    0  0.11012768048E-01 -0.15928575162E-01 -0.14011003618E-01  0.23902066630E-01  0.00000000000E+00 0.  1.
     999901    1    3    3    0    0  0.11851385176E+00  0.21176517613E-01  0.52335270734E-02  0.88821245643E+00  0.88000000000E+00 0.  1.
        -11    1    4    4    0    0 -0.38299357301E-01 -0.11741574023E-01  0.23969493492E-02  0.40133674357E-01  0.51100000000E-03 0. -1.
         11    1    4    4    0    0 -0.91227262510E-01  0.64936315724E-02  0.63805271956E-02  0.91681802580E-01  0.51100000000E-03 0.  1.
</event>
<event>
 8    1  0.1112958E+005  0.1043930E+01  0.7957747E-01            NaN
         13   -1    0    0    0    0  0.00000000000E+00  0.00000000000E+00  0.74505805969E-08  0.10566000000E+00  0.10566000000E+00 0.  1.
     999900   -1    0    0    0    0 -0.00000000000E+00 -0.00000000000E+00 -0.74505805969E-08  0.93827000000E+00  0.93827000000E+00 0. -1.
     999902    2    1    2    0    0 -0.99539494259E-02 -0.22159353926E-01  0.51159841601E-02  0.10191047836E+01  0.10188023697E+01 0.  0.
     999903    2    3    3    0    0 -0.89928272354E-01 -0.92034908327E-01  0.24815346998E-01  0.13250084139E+00  0.19574294478E-01 0.  0.
         14    1    1    2    0    0  0.99539494259E-02  0.22159353926E-01 -0.51159841601E-02  0.24825216404E-01  0.00000000000E+00 0.  1.
     999901    1    3    3    0    0  0.79974322928E-01  0.69875554401E-01 -0.19699362838E-01  0.88660394220E+00  0.88000000000E+00 0. -1.
        -11    1    4    4    0    0 -0.72054469467E-01 -0.70977305929E-01  0.27304479281E-01  0.10476363986E+00  0.51100000000E-03 0. -1.
         11    1    4    4    0    0 -0.17873802887E-01 -0.21057602398E-01 -0.24891322833E-02  0.27737201533E-01  0.51100000000E-03 0.  1.
</event>
<event>
 8    1  0.1112958E+005  0.1043930E+01  0.7957747E-01            NaN
         13   -1    0    0    0    0  0.00000000000E+00  0.00000000000E+00  0.74505805969E-08  0.10566000000E+00  0.10566000000E+00 0.  1.
     999900   -1    0    0    0    0 -0.00000000000E+00 -0.00000000000E+00 -0.74505805969E-08  0.93827000000E+00  0.93827000000E+00 0.  1.
     999902    2    1    2    0    0 -0.17386308633E-01  0.12139737306E-01 -0.99760345165E-02  0.10204954483E+01  0.10202263385E+01 0.  0.
     999903    2    3    3    0    0  0.69176994873E-01  0.73459901438E-01 -0.81879363428E-01  0.13121289658E+00  0.18187367457E-01 0.  0.
         14    1    1    2    0    0  0.17386308633E-01 -0.12139737306E-01  0.99760345165E-02  0.23434551722E-01  0.00000000000E+00 0. -1.
     999901    1    3    3    0    0 -0.86563303506E-01 -0.61320164133E-01  0.71903328912E-01  0.88928255170E+00  0.88000000000E+00 0. -1.
        -11    1    4    4    0    0  0.53529630393E-01  0.48519996296E-01 -0.65486981446E-01  0.97511113368E-01  0.51100000000E-03 0. -1.
         11    1    4    4    0    0  0.15647364481E-01  0.24939905143E-01 -0.16392381983E-01  0.33701783214E-01  0.51100000000E-03 0.  1.
</event>
<event>
 8    1  0.1112958E+005  0.1043930E+01  0.7957747E-01            NaN
         13   -1    0    0    0    0  0.00000000000E+00  0.00000000000E+00  0.74505805969E-08  0.10566000000E+00  0.10566000000E+00 0. -1.
     999900   -1    0    0    0    0 -0.00000000000E+00 -0.00000000000E+00 -0.74505805969E-08  0.93827000000E+00  0.93827000000E+00 0. -1.
     999902    2    1    2    0    0  0.98497620576E-02 -0.21066015089E-01 -0.67480743583E-02  0.10197157209E+01  0.10194281829E+01 0.  0.
     999903    2    3    3    0    0  0.12182216958E+00  0.91166883541E-02 -0.43845666503E-01  0.13133233128E+00  0.20049532659E-01 0.  0.
         14    1    1    2    0    0 -0.98497620576E-02  0.21066015089E-01  0.67480743583E-02  0.24214279090E-01  0.00000000000E+00 0.  1.
     999901    1    3    3    0    0 -0.11197240752E+00 -0.30182703443E-01  0.37097592144E-01  0.88838338963E+00  0.88000000000E+00 0.  1.
        -11    1    4    4    0    0  0.94830766472E-01 -0.13065005506E-02 -0.32657746862E-01  0.10030638447E+00  0.51100000000E-03 0. -1.
         11    1    4    4    0    0  0.26991403108E-01  0.10423188905E-01 -0.11187919641E-01  0.31025946812E-01  0.51100000000E-03 0.  1.
</event>
<event>
 8    1  0.1112958E+005  0.1043930E+01  0.7957747E-01            NaN
         13   -1    0    0    0    0  0.00000000000E+00  0.00000000000E+00  0.74505805969E-08  0.10566000000E+00  0.10566000000E+00 0. -1.
     999900   -1    0    0    0    0 -0.00000000000E+00 -0.00000000000E+00 -0.74505805969E-08  0.93827000000E+00  0.93827000000E+00 0. -1.
     999902    2    1    2    0    0 -0.14248430647E-01  0.16878353029E-01 -0.97221314693E-02  0.10197966949E+01  0.10195110997E+01 0.  0.
     999903    2    3    3    0    0  0.50173875434E-01 -0.12512480715E-01  0.11491886861E+00  0.12819732657E+00  0.23542052330E-01 0.  0.
         14    1    1    2    0    0  0.14248430647E-01 -0.16878353029E-01  0.97221314693E-02  0.24133305144E-01  0.00000000000E+00 0. -1.
     999901    1    3    3    0    0 -0.64422306081E-01  0.29390833744E-01 -0.12464100008E+00  0.89159936829E+00  0.88000000000E+00 0. -1.
        -11    1    4    4    0    0  0.21695443764E-01 -0.31468817711E-02  0.24225237307E-01  0.32675960408E-01  0.51100000000E-03 0. -1.
         11    1    4    4    0    0  0.28478431670E-01 -0.93655989441E-02  0.90693631300E-01  0.95521366162E-01  0.51100000000E-03 0.  1.
</event>
<event>
 8    1  0.1112958E+005  0.1043930E+01  0.7957747E-01            NaN
         13   -1    0    0    0    0  0.00000000000E+00  0.00000000000E+00  0.74505805969E-08  0.10566000000E+00  0.10566000000E+00 0.  1.
     999900   -1    0    0    0    0 -0.00000000000E+00 -0.00000000000E+00 -0.74505805969E-08  0.93827000000E+00  0.93827000000E+00 0.  1.
     999902    2    1    2    0    0  0.32637626180E-02 -0.23796931756E-01 -0.45887524520E-02  0.10194759051E+01  0.10191825736E+01 0.  0.
     999903    2    3    3    0    0  0.24890449070E-01 -0.51258386886E-01 -0.11696853034E+00  0.13164086438E+00  0.20018076896E-01 0.  0.
         14    1    1    2    0    0 -0.32637626180E-02  0.23796931756E-01  0.45887524520E-02  0.24454094881E-01  0.00000000000E+00 0.  1.
     999901    1    3    3    0    0 -0.21626686452E-01  0.27461455131E-01  0.11237977789E+00  0.88783504074E+00  0.88000000000E+00 0. -1.
        -11    1    4    4    0    0 -0.42060705673E-03 -0.18857678215E-01 -0.29980964427E-01  0.35424684712E-01  0.51100000000E-03 0.  1.
         11    1    4    4    0    0  0.25311056126E-01 -0.32400708671E-01 -0.86987565917E-01  0.96216179668E-01  0.51100000000E-03 0. -1.
</event>
<event>
 7    1  0.1112958E+005  0.1043930E+01  0.7957747E-01            NaN
         13   -1    0    0    0    0  0.00000000000E+00  0.00000000000E+00  0.74505805969E-08  0.10566000000E+00  0.10566000000E+00 0.  1.
     999900   -1    0    0    0    0 -0.00000000000E+00 -0.00000000000E+00 -0.74505805969E-08  0.93827000000E+00  0.93827000000E+00 0.  1.
     999903    2    1    2    0    0  0.14922061986E-01 -0.99305170586E-01 -0.60448217077E-01  0.11886047518E+00  0.19739320505E-01 0.  0.
         14    1    1    2    0    0 -0.33016348152E-01  0.18192474184E-01 -0.78992403871E-02  0.38515495075E-01  0.00000000000E+00 0. -1.
     999901    1    1    2    0    0  0.18094286165E-01  0.81112696402E-01  0.68347457464E-01  0.88655402974E+00  0.88000000000E+00 0.  1.
        -11    1    3    3    0    0  0.33970419857E-02 -0.73894089175E-01 -0.38738076534E-01  0.83503149664E-01  0.51100000000E-03 0. -1.
         11    1    3    3    0    0  0.11525020001E-01 -0.25411081411E-01 -0.21710140543E-01  0.35357325519E-01  0.51100000000E-03 0.  1.
</event>
<event>
 8    1  0.1112958E+005  0.1043930E+01  0.7957747E-01            NaN
         13   -1    0    0    0    0  0.00000000000E+00  0.00000000000E+00  0.74505805969E-08  0.10566000000E+00  0.10566000000E+00 0.  1.
     999900   -1    0    0    0    0 -0.00000000000E+00 -0.00000000000E+00 -0.74505805969E-08  0.93827000000E+00  0.93827000000E+00 0. -1.
     999902    2    1    2    0    0  0.19932951376E-01  0.57828280780E-02 -0.10471245555E-01  0.10206832662E+01  0.10204185020E+01 0.  0.
     999903    2    3    3    0    0 -0.70144433612E-01  0.10691335622E+00 -0.15207647149E-01  0.13031044957E+00  0.19970814475E-01 0.  0.
         14    1    1    2    0    0 -0.19932951376E-01 -0.57828280780E-02  0.10471245555E-01  0.23246733849E-01  0.00000000000E+00 0.  1.
     999901    1    3    3    0    0  0.90077384989E-01 -0.10113052814E+00  0.47364015937E-02  0.89037281658E+00  0.88000000000E+00 0.  1.
        -11    1    4    4    0    0 -0.57247358381E-01  0.85439303945E-01 -0.20075194557E-01  0.10478744800E+00  0.51100000000E-03 0.  1.
         11    1    4    4    0    0 -0.12897075231E-01  0.21474052272E-01  0.48675474077E-02  0.25523001572E-01  0.51100000000E-03 0. -1.
</event>
<event>
 8    1  0.1112958E+005  0.1043930E+01  0.7957747E-01            NaN
         13   -1    0    0    0    0  0.00000000000E+00  0.00000000000E+00  0.74505805969E-08  0.10566000000E+00  0.10566000000E+00 0. -1.
     999900   -1    0    0    0    0 -0.00000000000E+00 -0.00000000000E+00 -0.74505805969E-08  0.93827000000E+00  0.93827000000E+00 0. -1.
     999902    2    1    2    0    0  0.66692629376E-02  0.14298215609E-01  0.15834287590E-01  0.10215773111E+01  0.10213327371E+01 0.  0.
     999903    2    3    3    0    0 -0.44902273090E-01  0.12268976508E+00 -0.14791420039E-01  0.13290060650E+00  0.19359558825E-01 0.  0.
         14    1    1    2    0    0 -0.66692629376E-02 -0.14298215609E-01 -0.15834287590E-01  0.22352688904E-01  0.00000000000E+00 0.  1.
     999901    1    3    3    0    0  0.51571536028E-01 -0.10839154947E+00  0.30625707629E-01  0.88867670460E+00  0.88000000000E+00 0.  1.
        -11    1    4    4    0    0 -0.30549753580E-01  0.68824530945E-01 -0.16658458682E-01  0.77122427804E-01  0.51100000000E-03 0.  1.
         11    1    4    4    0    0 -0.14352519510E-01  0.53865234132E-01  0.18670386438E-02  0.55778178696E-01  0.51100000000E-03 0. -1.
</event>
<event>
 8    1  0.1112958E+005  0.1043930E+01  0.7957747E-01            NaN
         13   -1    0    0    0    0  0.00000000000E+00  0.00000000000E+00  0.74505805969E-08  0.10566000000E+00  0.10566000000E+00 0.  1.
     999900   -1    0    0    0    0 -0.00000000000E+00 -0.00000000000E+00 -0.74505805969E-08  0.93827000000E+00  0.93827000000E+00 0. -1.
     999902    2    1    2    0    0  0.18228042156E-01 -0.11502607035E-01  0.92362771154E-02  0.10204804733E+01  0.10202110154E+01 0.  0.
     999903    2    3    3    0    0  0.50300747274E-01 -0.29520888482E-01  0.11788613747E+00  0.13303576566E+00  0.19993136440E-01 0.  0.
         14    1    1    2    0    0 -0.18228042156E-01  0.11502607035E-01 -0.92362771154E-02  0.23449526742E-01  0.00000000000E+00 0. -1.
     999901    1    3    3    0    0 -0.32072705118E-01  0.18018281446E-01 -0.10864986036E+00  0.88744470759E+00  0.88000000000E+00 0. -1.
        -11    1    4    4    0    0  0.37761800026E-01 -0.15537532999E-01  0.63518865764E-01  0.75513415377E-01  0.51100000000E-03 0.  1.
         11    1    4    4    0    0  0.12538947248E-01 -0.13983355483E-01  0.54367271709E-01  0.57522350288E-01  0.51100000000E-03 0. -1.
</event>
<event>
 8    1  0.1112958E+005  0.1043930E+01  0.7957747E-01            NaN
         13   -1    0    0    0    0  0.00000000000E+00  0.00000000000E+00  0.74505805969E-08  0.10566000000E+00  0.10566000000E+00 0.  1.
     999900   -1    0    0    0    0 -0.00000000000E+00 -0.00000000000E+00 -0.74505805969E-08  0.93827000000E+00  0.93827000000E+00 0. -1.
     999902    2    1    2    0    0  0.19228651901E-01 -0.10194211082E-02 -0.14200090705E-01  0.10200046400E+01  0.10197240033E+01 0.  0.
     999903    2    3    3    0    0  0.12787506808E-01 -0.10947996868E+00  0.64953450560E-01  0.12979653975E+00  0.21881661656E-01 0.  0.
         14    1    1    2    0    0 -0.19228651901E-01  0.10194211082E-02  0.14200090705E-01  0.23925359963E-01  0.00000000000E+00 0.  1.
     999901    1    3    3    0    0  0.64411450936E-02  0.10846054758E+00 -0.79153541264E-01  0.89020810029E+00  0.88000000000E+00 0. -1.
        -11    1    4    4    0    0  0.16085768225E-01 -0.44772302519E-01  0.26925698610E-01  0.54667772763E-01  0.51100000000E-03 0.  1.
         11    1    4    4    0    0 -0.32982614176E-02 -0.64707666165E-01  0.38027751950E-01  0.75128766982E-01  0.51100000000E-03 0. -1.
</event>
<event>
 8    1  0.1112958E+005  0.1043930E+01  0.7957747E-01            NaN
         13   -1    0    0    0    0  0.00000000000E+00  0.00000000000E+00  0.74505805969E-08  0.10566000000E+00  0.10566000000E+00 0.  1.
     999900   -1    0    0    0    0 -0.00000000000E+00 -0.00000000000E+00 -0.74505805969E-08  0.93827000000E+00  0.93827000000E+00 0. -1.
     999902    2    1    2    0    0 -0.42049522785E-02 -0.23567369105E-01  0.90256154575E-03  0.10199734325E+01  0.10196920544E+01 0.  0.
     999903    2    3    3    0    0  0.15096285079E-02 -0.88626069059E-01  0.96364565389E-01  0.13240468300E+00  0.19698008067E-01 0.  0.
         14    1    1    2    0    0  0.42049522785E-02  0.23567369105E-01 -0.90256154575E-03  0.23956567524E-01  0.00000000000E+00 0.  1.
     999901    1    3    3    0    0 -0.57145807864E-02  0.65058699954E-01 -0.95462003843E-01  0.88756874948E+00  0.88000000000E+00 0. -1.
        -11    1    4    4    0    0  0.86665158436E-02 -0.58637738546E-01  0.70893744852E-01  0.92410373113E-01  0.51100000000E-03 0. -1.
         11    1    4    4    0    0 -0.71568873357E-02 -0.29988330513E-01  0.25470820536E-01  0.39994309884E-01  0.51100000000E-03 0.  1.
</event>
<event>
 8    1  0.1112958E+005  0.1043930E+01  0.7957747E-01            NaN
         13   -1    0    0    0    0  0.00000000000E+00  0.00000000000E+00  0.74505805969E-08  0.10566000000E+00  0.10566000000E+00 0.  1.
     999900   -1    0    0    0    0 -0.00000000000E+00 -0.00000000000E+00 -0.74505805969E-08  0.93827000000E+00  0.93827000000E+00 0.  1.
     999902    2    1    2    0    0  0.14740008833E-01  0.24126926904E-02  0.18221911533E-01  0.10203688666E+01  0.10200968076E+01 0.  0.
     999903    2    3    3    0    0 -0.45629841010E-01  0.85343162156E-01  0.87208460639E-01  0.13172882391E+00  0.19535345538E-01 0.  0.
         14    1    1    2    0    0 -0.14740008833E-01 -0.24126926904E-02 -0.18221911533E-01  0.23561133384E-01  0.00000000000E+00 0. -1.
     999901    1    3    3    0    0  0.60369849843E-01 -0.82930469465E-01 -0.68986549106E-01  0.88864004270E+00  0.88000000000E+00 0.  1.
        -11    1    4    4    0    0 -0.94020139888E-03  0.15818972554E-01  0.10915354682E-01  0.19249154791E-01  0.51100000000E-03 0. -1.
         11    1    4    4    0    0 -0.44689639611E-01  0.69524189602E-01  0.76293105958E-01  0.11247966912E+00  0.51100000000E-03 0.  1.
</event>
<event>
 8    1  0.1112958E+005  0.1043930E+01  0.7957747E-01            NaN
         13   -1    0    0    0    0  0.00000000000E+00  0.00000000000E+00  0.74505805969E-08  0.10566000000E+00  0.10566000000E+00 0. -1.
     999900   -1    0    0    0    0 -0.00000000000E+00 -0.00000000000E+00 -0.74505805969E-08  0.93827000000E+00  0.93827000000E+00 0.  1.
     999902    2    1    2    0    0  0.11566880465E-01  0.44107513773E-02 -0.18346439887E-01  0.10217976863E+01  0.10215579634E+01 0.  0.
     999903    2    3    3    0    0  0.10474908663E-01  0.12113725122E+00 -0.51301469408E-01  0.13347775403E+00  0.20012813704E-01 0.  0.
         14    1    1    2    0    0 -0.11566880465E-01 -0.44107513773E-02  0.18346439887E-01  0.22132313660E-01  0.00000000000E+00 0. -1.
     999901    1    3    3    0    0  0.10919718019E-02 -0.11672649985E+00  0.32955029520E-01  0.88831993231E+00  0.88000000000E+00 0.  1.
        -11    1    4    4    0    0 -0.15092918957E-02  0.30783096894E-01 -0.49402083175E-02  0.31217684021E-01  0.51100000000E-03 0. -1.
         11    1    4    4    0    0  0.11984200558E-01  0.90354154329E-01 -0.46361261090E-01  0.10226007001E+00  0.51100000000E-03 0.  1.
</event>
<event>
 8    1  0.1112958E+005  0.1043930E+01  0.7957747E-01            NaN
         13   -1    0    0    0    0  0.00000000000E+00  0.00000000000E+00  0.74505805969E-08  0.10566000000E+00  0.10566000000E+00 0.  1.
     999900   -1    0    0    0    0 -0.00000000000E+00 -0.00000000000E+00 -0.74505805969E-08  0.93827000000E+00  0.93827000000E+00 0.  1.
     999902    2    1    2    0    0  0.21560799133E-01 -0.68531092846E-02  0.63256169600E-02  0.10204385846E+01  0.10201681520E+01 0.  0.
     999903    2    3    3    0    0  0.10399372758E+00  0.70439826910E-01 -0.35063408686E-01  0.13224804363E+00  0.21991767215E-01 0.  0.
         14    1    1    2    0    0 -0.21560799133E-01  0.68531092846E-02 -0.63256169600E-02  0.23491415369E-01  0.00000000000E+00 0. -1.
     999901    1    3    3    0    0 -0.82432928444E-01 -0.77292936195E-01  0.41389025646E-01  0.88819054100E+00  0.88000000000E+00 0. -1.
        -11    1    4    4    0    0  0.78099905593E-01  0.49776972179E-01 -0.15890296899E-01  0.93968637691E-01  0.51100000000E-03 0. -1.
         11    1    4    4    0    0  0.25893821983E-01  0.20662854731E-01 -0.19173111787E-01  0.38279405940E-01  0.51100000000E-03 0.  1.
</event>
<event>
 8    1  0.1112958E+005  0.1043930E+01  0.7957747E-01            NaN
         13   -1    0    0    0    0  0.00000000000E+00  0.00000000000E+00  0.74505805969E-08  0.10566000000E+00  0.10566000000E+00 0.  1.
     999900   -1    0    0    0    0 -0.00000000000E+00 -0.00000000000E+00 -0.74505805969E-08  0.93827000000E+00  0.93827000000E+00 0.  1.
     999902    2    1    2    0    0  0.13795305857E-01  0.10147107717E-02 -0.15415128137E-01  0.10232184989E+01  0.10230088613E+01 0.  0.
     999903    2    3    3    0    0  0.36785562019E-01  0.12235583453E+00 -0.36551560799E-01  0.13434338453E+00  0.19697729630E-01 0.  0.
         14    1    1    2    0    0 -0.13795305857E-01 -0.10147107717E-02  0.15415128137E-01  0.20711501083E-01  0.00000000000E+00 0.  1.
     999901    1    3    3    0    0 -0.22990256163E-01 -0.12134112376E+00  0.21136432662E-01  0.88887511439E+00  0.88000000000E+00 0.  1.
        -11    1    4    4    0    0  0.71499824406E-02  0.65147168956E-02 -0.33015140746E-02  0.10233518521E-01  0.51100000000E-03 0. -1.
         11    1    4    4    0    0  0.29635579579E-01  0.11584111764E+00 -0.33250046724E-01  0.12410986601E+00  0.51100000000E-03 0.  1.
</event>
<event>
 8    1  0.1112958E+005  0.1043930E+01  0.7957747E-01            NaN
         13   -1    0    0    0    0  0.00000000000E+00  0.00000000000E+00  0.74505805969E-08  0.10566000000E+00  0.10566000000E+00 0. -1.
     999900   -1    0    0    0    0 -0.00000000000E+00 -0.00000000000E+00 -0.74505805969E-08  0.93827000000E+00  0.93827000000E+00 0.  1.
     999902    2    1    2    0    0 -0.45028411745E-02  0.19133335145E-01 -0.12798248036E-01  0.10204746116E+01  0.10202050175E+01 0.  0.
     999903    2    3    3    0    0  0.11754586494E-01 -0.12563281122E+00 -0.14128865766E-01  0.12849741927E+00  0.19753185896E-01 0.  0.
         14    1    1    2    0    0  0.45028411745E-02 -0.19133335145E-01  0.12798248036E-01  0.23455388405E-01  0.00000000000E+00 0.  1.
     999901    1    3    3    0    0 -0.16257427668E-01  0.14476614636E+00  0.13306177292E-02  0.89197719233E+00  0.88000000000E+00 0. -1.
        -11    1    4    4    0    0 -0.47172885891E-02 -0.39518183981E-01 -0.80631280329E-02  0.40610526117E-01  0.51100000000E-03 0. -1.
         11    1    4    4    0    0  0.16471875083E-01 -0.86114627236E-01 -0.60657377327E-02  0.87886893152E-01  0.51100000000E-03 0.  1.
</event>
<event>
 8    1  0.1112958E+005  0.1043930E+01  0.7957747E-01            NaN
         13   -1    0    0    0    0  0.00000000000E+00  0.00000000000E+00  0.74505805969E-08  0.10566000000E+00  0.10566000000E+00 0.  1.
     999900   -1    0    0    0    0 -0.00000000000E+00 -0.00000000000E+00 -0.74505805969E-08  0.93827000000E+00  0.93827000000E+00 0.  1.
     999902    2    1    2    0    0  0.68098312212E-02 -0.31921364263E-02  0.22478599099E-01  0.10202266046E+01  0.10199512115E+01 0.  0.
     999903    2    3    3    0    0 -0.20072496631E-01  0.77717410401E-01  0.10360684323E+00  0.13239170648E+00  0.18715901792E-01 0.  0.
         14    1    1    2    0    0 -0.68098312212E-02  0.31921364263E-02 -0.22478599099E-01  0.23703395404E-01  0.00000000000E+00 0. -1.
     999901    1    3    3    0    0  0.26882327853E-01 -0.80909546828E-01 -0.81128244131E-01  0.88783489812E+00  0.88000000000E+00 0.  1.
        -11    1    4    4    0    0 -0.67345960165E-02  0.33346155604E-01  0.58808182468E-01  0.67941035636E-01  0.51100000000E-03 0. -1.
         11    1    4    4    0    0 -0.13337900615E-01  0.44371254797E-01  0.44798660762E-01  0.64450670844E-01  0.51100000000E-03 0.  1.
</event>
<event>
 8    1  0.1112958E+005  0.1043930E+01  0.7957747E-01            NaN
         13   -1    0    0    0    0  0.00000000000E+00  0.00000000000E+00  0.74505805969E-08  0.10566000000E+00  0.10566000000E+00 0.  1.
     999900   -1    0    0    0    0 -0.00000000000E+00 -0.00000000000E+00 -0.74505805969E-08  0.93827000000E+00  0.93827000000E+00 0. -1.
     999902    2    1    2    0    0  0.16598114308E-01 -0.42035983458E-02  0.16127130803E-01  0.10204086908E+01  0.10201375615E+01 0.  0.
     999903    2    3    3    0    0  0.59932212051E-01 -0.25199909522E-01  0.11496424916E+00  0.13356740565E+00  0.19914009817E-01 0.  0.
         14    1    1    2    0    0 -0.16598114308E-01  0.42035983458E-02 -0.16127130803E-01  0.23521309181E-01  0.00000000000E+00 0. -1.
     999901    1    3    3    0    0 -0.43334097743E-01  0.20996311176E-01 -0.98837118356E-01  0.88684128517E+00  0.88000000000E+00 0. -1.
        -11    1    4    4    0    0  0.86462439541E-02 -0.11866842855E-01  0.30525977783E-01  0.33877366109E-01  0.51100000000E-03 0.  1.
         11    1    4    4    0    0  0.51285968097E-01 -0.13333066666E-01  0.84438271375E-01  0.99690039544E-01  0.51100000000E-03 0. -1.
</event>
<event>
 8    1  0.1112958E+005  0.1043930E+01  0.7957747E-01            NaN
         13   -1    0    0    0    0  0.00000000000E+00  0.00000000000E+00  0.74505805969E-08  0.10566000000E+00  0.10566000000E+00 0.  1.
     999900   -1    0    0    0    0 -0.00000000000E+00 -0.00000000000E+00 -0.74505805969E-08  0.93827000000E+00  0.93827000000E+00 0. -1.
     999902    2    1    2    0    0  0.14407217995E-01 -0.18066620475E-03  0.17470522018E-01  0.10212844770E+01  0.10210333801E+01 0.  0.
     999903    2    3    3    0    0  0.22231540277E-01  0.70682934024E-01  0.10947170904E+00  0.13362063961E+00  0.19496197215E-01 0.  0.
         14    1    1    2    0    0 -0.14407217995E-01  0.18066620475E-03 -0.17470522018E-01  0.22645522962E-01  0.00000000000E+00 0. -1.
     999901    1    3    3    0    0 -0.78243222812E-02 -0.70863600229E-01 -0.92001187021E-01  0.88766383742E+00  0.88000000000E+00 0. -1.
        -11    1    4    4    0    0 -0.20150289605E-02  0.22804198789E-01  0.30571393432E-01  0.38196374716E-01  0.51100000000E-03 0.  1.
         11    1    4    4    0    0  0.24246569237E-01  0.47878735236E-01  0.78900315607E-01  0.95424264898E-01  0.51100000000E-03 0. -1.
</event>
<event>
 8    1  0.1112958E+005  0.1043930E+01  0.7957747E-01            NaN
         13   -1    0    0    0    0  0.00000000000E+00  0.00000000000E+00  0.74505805969E-08  0.10566000000E+00  0.10566000000E+00 0. -1.
     999900   -1    0    0    0    0 -0.00000000000E+00 -0.00000000000E+00 -0.74505805969E-08  0.93827000000E+00  0.93827000000E+00 0. -1.
     999902    2    1    2    0    0 -0.12299401979E-01  0.13228583700E-02 -0.20606919210E-01  0.10198952260E+01  0.10196119858E+01 0.  0.
     999903    2    3    3    0    0  0.74365373743E-01  0.88361486366E-01 -0.57770017053E-01  0.13058785394E+00  0.19438406326E-01 0.  0.
         14    1    1    2    0    0  0.12299401979E-01 -0.13228583700E-02  0.20606919210E-01  0.24034774029E-01  0.00000000000E+00 0. -1.
     999901    1    3    3    0    0 -0.86664775722E-01 -0.87038627996E-01  0.37163097843E-01  0.88930737203E+00  0.88000000000E+00 0. -1.
        -11    1    4    4    0    0  0.27610034450E-01  0.32944868149E-01 -0.11233536006E-01  0.44431202908E-01  0.51100000000E-03 0. -1.
         11    1    4    4    0    0  0.46755339293E-01  0.55416618217E-01 -0.46536481047E-01  0.86156651028E-01  0.51100000000E-03 0.  1.
</event>
<event>
 8    1  0.1112958E+005  0.1043930E+01  0.7957747E-01            NaN
         13   -1    0    0    0    0  0.00000000000E+00  0.00000000000E+00  0.74505805969E-08  0.10566000000E+00  0.10566000000E+00 0. -1.
     999900   -1    0    0    0    0 -0.00000000000E+00 -0.00000000000E+00 -0.74505805969E-08  0.93827000000E+00  0.93827000000E+00 0. -1.
     999902    2    1    2    0    0 -0.16036618481E-01 -0.99159784223E-02 -0.14033421160E-01  0.10204260286E+01  0.10201553035E+01 0.  0.
     999903    2    3    3    0    0  0.90199909895E-01 -0.51421951750E-01 -0.77868671995E-01  0.13077222797E+00  0.16050067427E-01 0.  0.
         14    1    1    2    0    0  0.16036618481E-01  0.99159784223E-02  0.14033421160E-01  0.23503971363E-01  0.00000000000E+00 0.  1.
     999901    1    3    3    0    0 -0.10623652838E+00  0.41505973328E-01  0.63835250835E-01  0.88965380066E+00  0.88000000000E+00 0.  1.
        -11    1    4    4    0    0  0.30765478844E-01 -0.94651159230E-02 -0.26739816291E-01  0.41849516177E-01  0.51100000000E-03 0. -1.
         11    1    4    4    0    0  0.59434431052E-01 -0.41956835827E-01 -0.51128855703E-01  0.88922711798E-01  0.51100000000E-03 0.  1.
</event>
<event>
 8    1  0.1112958E+005  0.1043930E+01  0.7957747E-01            NaN
         13   -1    0    0    0    0  0.00000000000E+00  0.00000000000E+00  0.74505805969E-08  0.10566000000E+00  0.10566000000E+00 0.  1.
     999900   -1    0    0    0    0 -0.00000000000E+00 -0.00000000000E+00 -0.74505805969E-08  0.93827000000E+00  0.93827000000E+00 0.  1.
     999902    2    1    2    0    0  0.14246199150E-01 -0.18895943714E-01  0.79209120775E-03  0.10202521984E+01  0.10199774067E+01 0.  0.
     999903    2    3    3    0    0 -0.48064541475E-01  0.87933070791E-01  0.77504277188E-01  0.12829938229E+00  0.20282835761E-01 0.  0.
         14    1    1    2    0    0 -0.14246199150E-01  0.18895943714E-01 -0.79209120775E-03  0.23677801577E-01  0.00000000000E+00 0. -1.
     999901    1    3    3    0    0  0.62310740626E-01 -0.10682901450E+00 -0.76712185980E-01  0.89195281614E+00  0.88000000000E+00 0.  1.
        -11    1    4    4    0    0 -0.69569819920E-02  0.14949549252E-01  0.23214669722E-01  0.28479301827E-01  0.51100000000E-03 0.  1.
         11    1    4    4    0    0 -0.41107559483E-01  0.72983521539E-01  0.54289607466E-01  0.99820080459E-01  0.51100000000E-03 0. -1.
</event>
<event>
 8    1  0.1112958E+005  0.1043930E+01  0.7957747E-01            NaN
         13   -1    0    0    0    0  0.00000000000E+00  0.00000000000E+00  0.74505805969E-08  0.10566000000E+00  0.10566000000E+00 0. -1.
     999900   -1    0    0    0    0 -0.00000000000E+00 -0.00000000000E+00 -0.74505805969E-08  0.93827000000E+00  0.93827000000E+00 0. -1.
     999902    2    1    2    0    0  0.24235677841E-01  0.37407128382E-02  0.99337752810E-02  0.10174717139E+01  0.10171276457E+01 0.  0.
     999903    2    3    3    0    0  0.67418664728E-01  0.75936872405E-01 -0.77154087860E-01  0.12918046000E+00  0.20570683718E-01 0.  0.
         14    1    1    2    0    0 -0.24235677841E-01 -0.37407128382E-02 -0.99337752810E-02  0.26458286117E-01  0.00000000000E+00 0.  1.
     999901    1    3    3    0    0 -0.43182986888E-01 -0.72196159567E-01  0.87087863141E-01  0.88829125388E+00  0.88000000000E+00 0.  1.
        -11    1    4    4    0    0  0.50178205189E-01  0.42617197853E-01 -0.53443052896E-01  0.84796809213E-01  0.51100000000E-03 0.  1.
         11    1    4    4    0    0  0.17240459539E-01  0.33319674552E-01 -0.23711034965E-01  0.44383650790E-01  0.51100000000E-03 0. -1.
</event>
<event>
 8    1  0.1112958E+005  0.1043930E+01  0.7957747E-01            NaN
         13   -1    0    0    0    0  0.00000000000E+00  0.00000000000E+00  0.74505805969E-08  0.10566000000E+00  0.10566000000E+00 0.  1.
     999900   -1    0    0    0    0 -0.00000000000E+00 -0.00000000000E+00 -0.74505805969E-08  0.93827000000E+00  0.93827000000E+00 0. -1.
     999902    2    1    2    0    0 -0.19481145413E-01  0.18199139585E-03 -0.12886123838E-01  0.10205719107E+01  0.10203045744E+01 0.  0.
     999903    2    3    3    0    0 -0.22259679716E-01 -0.86665766049E-01  0.92325350869E-01  0.13005537093E+00  0.19595426708E-01 0.  0.
         14    1    1    2    0    0  0.19481145413E-01 -0.18199139585E-03  0.12886123838E-01  0.23358089285E-01  0.00000000000E+00 0. -1.
     999901    1    3    3    0    0  0.27785343030E-02  0.86847757445E-01 -0.10521147471E+00  0.89051653979E+00  0.88000000000E+00 0.  1.
        -11    1    4    4    0    0 -0.10005971053E-01 -0.15220455978E-01  0.11805867700E-01  0.21712240097E-01  0.51100000000E-03 0.  1.
         11    1    4    4    0    0 -0.12253708664E-01 -0.71445310071E-01  0.80519483169E-01  0.10834313083E+00  0.51100000000E-03 0. -1.
</event>
<event>
 8    1  0.1112958E+005  0.1043930E+01  0.7957747E-01            NaN
         13   -1    0    0    0    0  0.00000000000E+00  0.00000000000E+00  0.74505805969E-08  0.10566000000E+00  0.10566000000E+00 0. -1.
     999900   -1    0    0    0    0 -0.00000000000E+00 -0.00000000000E+00 -0.74505805969E-08  0.93827000000E+00  0.93827000000E+00 0. -1.
     999902    2    1    2    0    0  0.21668129934E-01  0.64231855881E-02 -0.72137464237E-02  0.10202065242E+01  0.10199306587E+01 0.  0.
     999903    2    3    3    0    0  0.25509901394E-01 -0.68994252954E-01  0.10543474019E+00  0.12981771540E+00  0.18033102435E-01 0.  0.
         14    1    1    2    0    0 -0.21668129934E-01 -0.64231855881E-02  0.72137464237E-02  0.23723475829E-01  0.00000000000E+00 0.  1.
     999901    1    3    3    0    0 -0.38417714607E-02  0.75417438543E-01 -0.11264848661E+00  0.89038880877E+00  0.88000000000E+00 0. -1.
        -11    1    4    4    0    0  0.51834999517E-02 -0.28945143364E-01  0.29913740878E-01  0.41949767704E-01  0.51100000000E-03 0. -1.
         11    1    4    4    0    0  0.20326401443E-01 -0.40049109591E-01  0.75520999312E-01  0.87867947699E-01  0.51100000000E-03 0.  1.
</event>
<event>
 8    1  0.1112958E+005  0.1043930E+01  0.7957747E-01            NaN
         13   -1    0    0    0    0  0.00000000000E+00  0.00000000000E+00  0.74505805969E-08  0.10566000000E+00  0.10566000000E+00 0.  1.
     999900   -1    0    0    0    0 -0.00000000000E+00 -0.00000000000E+00 -0.74505805969E-08  0.93827000000E+00  0.93827000000E+00 0. -1.
     999902    2    1    2    0    0 -0.45236306459E-02 -0.22449676679E-01 -0.69123101428E-02  0.10200086445E+01  0.10197281028E+01 0.  0.
     999903    2    3    3    0    0  0.11271963773E+00  0.46581359867E-01  0.36761479751E-01  0.12848261128E+00  0.16758138088E-01 0.  0.
         14    1    1    2    0    0  0.45236306459E-02  0.22449676679E-01  0.69123101428E-02  0.23921355495E-01  0.00000000000E+00 0.  1.
     999901    1    3    3    0    0 -0.11724326838E+00 -0.69031036546E-01 -0.43673789894E-01  0.89152603322E+00  0.88000000000E+00 0. -1.
        -11    1    4    4    0    0  0.77156935801E-01  0.39642907951E-01  0.28580265387E-01  0.91333704532E-01  0.51100000000E-03 0.  1.
         11    1    4    4    0    0  0.35562701928E-01  0.69384519160E-02  0.81812143646E-02  0.37148906753E-01  0.51100000000E-03 0. -1.
</event>
<event>
 8    1  0.1112958E+005  0.1043930E+01  0.7957747E-01            NaN
         13   -1    0    0    0    0  0.00000000000E+00  0.00000000000E+00  0.74505805969E-08  0.10566000000E+00  0.10566000000E+00 0. -1.
     999900   -1    0    0    0    0 -0.00000000000E+00 -0.00000000000E+00 -0.74505805969E-08  0.93827000000E+00  0.93827000000E+00 0. -1.
     999902    2    1    2    0    0 -0.10923449232E-01  0.20845898030E-01 -0.79682561820E-03  0.10203820035E+01  0.10201102514E+01 0.  0.
     999903    2    3    3    0    0  0.93736953351E-01  0.85785534188E-01 -0.26317038118E-01  0.13143755223E+00  0.20915767756E-01 0.  0.
         14    1    1    2    0    0  0.10923449232E-01 -0.20845898030E-01  0.79682561820E-03  0.23547996494E-01  0.00000000000E+00 0.  1.
     999901    1    3    3    0    0 -0.10466040258E+00 -0.64939636157E-01  0.25520212499E-01  0.88894445128E+00  0.88000000000E+00 0.  1.
        -11    1    4    4    0    0  0.64864568976E-01  0.45599373789E-01 -0.16122566586E-01  0.80912999405E-01  0.51100000000E-03 0. -1.
         11    1    4    4    0    0  0.28872384375E-01  0.40186160398E-01 -0.10194471532E-01  0.50524552822E-01  0.51100000000E-03 0.  1.
</event>
<event>
 8    1  0.1112958E+005  0.1043930E+01  0.7957747E-01            NaN
         13   -1    0    0    0    0  0.00000000000E+00  0.00000000000E+00  0.74505805969E-08  0.10566000000E+00  0.10566000000E+00 0. -1.
     999900   -1    0    0    0    0 -0.00000000000E+00 -0.00000000000E+00 -0.74505805969E-08  0.93827000000E+00  0.93827000000E+00 0.  1.
     999902    2    1    2    0    0  0.23848021442E-01 -0.29013124841E-02 -0.16025227472E-02  0.10198527531E+01  0.10195684990E+01 0.  0.
     999903    2    3    3    0    0  0.78484485305E-01  0.98158771284E-01  0.33764007966E-01  0.13168099309E+00  0.20122546929E-01 0.  0.
         14    1    1    2    0    0 -0.23848021442E-01  0.29013124841E-02  0.16025227472E-02  0.24077246935E-01  0.00000000000E+00 0.  1.
     999901    1    3    3    0    0 -0.54636463863E-01 -0.10106008377E+00 -0.35366530713E-01  0.88817175997E+00  0.88000000000E+00 0.  1.
        -11    1    4    4    0    0  0.55068954887E-01  0.68650046574E-01  0.33019623350E-01  0.93999868798E-01  0.51100000000E-03 0.  1.
         11    1    4    4    0    0  0.23415530417E-01  0.29508724710E-01  0.74438461604E-03  0.37681124296E-01  0.51100000000E-03 0. -1.
</event>
<event>
 8    1  0.1112958E+005  0.1043930E+01  0.7957747E-01            NaN
         13   -1    0    0    0    0  0.00000000000E+00  0.00000000000E+00  0.74505805969E-08  0.10566000000E+00  0.10566000000E+00 0. -1.
     999900   -1    0    0    0    0 -0.00000000000E+00 -0.00000000000E+00 -0.74505805969E-08  0.93827000000E+00  0.93827000000E+00 0. -1.
     999902    2    1    2    0    0  0.22358276759E-01  0.21482352451E-02 -0.64209098169E-02  0.10205690168E+01  0.10203016135E+01 0.  0.
     999903    2    3    3    0    0  0.13021848531E+00 -0.21939303727E-01 -0.70936528805E-02  0.13365611987E+00  0.19376570992E-01 0.  0.
         14    1    1    2    0    0 -0.22358276759E-01 -0.21482352451E-02  0.64209098169E-02  0.23360983223E-01  0.00000000000E+00 0.  1.
     999901    1    3    3    0    0 -0.10786020855E+00  0.24087538972E-01  0.67274306357E-03  0.88691289691E+00  0.88000000000E+00 0.  1.
        -11    1    4    4    0    0  0.47832561205E-01 -0.11267629790E-02 -0.88607967388E-02  0.48662083249E-01  0.51100000000E-03 0.  1.
         11    1    4    4    0    0  0.82385924101E-01 -0.20812540747E-01  0.17671438583E-02  0.84994036618E-01  0.51100000000E-03 0. -1.
</event>
<event>
 8    1  0.1112958E+005  0.1043930E+01  0.7957747E-01            NaN
         13   -1    0    0    0    0  0.00000000000E+00  0.00000000000E+00  0.74505805969E-08  0.10566000000E+00  0.10566000000E+00 0. -1.
     999900   -1    0    0    0    0 -0.00000000000E+00 -0.00000000000E+00 -0.74505805969E-08  0.93827000000E+00  0.93827000000E+00 0. -1.
     999902    2    1    2    0    0  0.21502885386E-01 -0.70627914783E-02  0.55791295440E-02  0.10206194061E+01  0.10203531684E+01 0.  0.
     999903    2    3    3    0    0 -0.10171578748E+00  0.71891803517E-01  0.23913785002E-01  0.12834544084E+00  0.19650705751E-01 0.  0.
         14    1    1    2    0    0 -0.21502885386E-01  0.70627914783E-02 -0.55791295440E-02  0.23310593940E-01  0.00000000000E+00 0.  1.
     999901    1    3    3    0    0  0.12321867286E+00 -0.78954594996E-01 -0.18334655458E-01  0.89227396522E+00  0.88000000000E+00 0. -1.
        -11    1    4    4    0    0 -0.26673376598E-01  0.29965984817E-01  0.66779018622E-02  0.40672899571E-01  0.51100000000E-03 0.  1.
         11    1    4    4    0    0 -0.75042410881E-01  0.41925818700E-01  0.17235883140E-01  0.87672541272E-01  0.51100000000E-03 0. -1.
</event>
<event>
 8    1  0.1112958E+005  0.1043930E+01  0.7957747E-01            NaN
         13   -1    0    0    0    0  0.00000000000E+00  0.00000000000E+00  0.74505805969E-08  0.10566000000E+00  0.10566000000E+00 0.  1.
     999900   -1    0    0    0    0 -0.00000000000E+00 -0.00000000000E+00 -0.74505805969E-08  0.93827000000E+00  0.93827000000E+00 0.  1.
     999902    2    1    2    0    0 -0.19918751263E-01 -0.72299511841E-02 -0.10677223734E-01  0.10202017057E+01  0.10199257268E+01 0.  0.
     999903    2    3    3    0    0 -0.94348231957E-02 -0.12791038782E+00  0.20262325546E-01  0.13136486109E+00  0.19901801232E-01 0.  0.
         14    1    1    2    0    0  0.19918751263E-01  0.72299511841E-02  0.10677223734E-01  0.23728294348E-01  0.00000000000E+00 0.  1.
     999901    1    3    3    0    0 -0.10483928067E-01  0.12068043664E+00 -0.30939549279E-01  0.88883684456E+00  0.88000000000E+00 0. -1.
        -11    1    4    4    0    0 -0.12532240948E-01 -0.63560900989E-01  0.39559603884E-02  0.64907287274E-01  0.51100000000E-03 0.  1.
         11    1    4    4    0    0  0.30974177519E-02 -0.64349486833E-01  0.16306365157E-01  0.66457573820E-01  0.51100000000E-03 0. -1.
</event>
<event>
 8    1  0.1112958E+005  0.1043930E+01  0.7957747E-01            NaN
         13   -1    0    0    0    0  0.00000000000E+00  0.00000000000E+00  0.74505805969E-08  0.10566000000E+00  0.10566000000E+00 0. -1.
     999900   -1    0    0    0    0 -0.00000000000E+00 -0.00000000000E+00 -0.74505805969E-08  0.93827000000E+00  0.93827000000E+00 0.  1.
     999902    2    1    2    0    0 -0.12680388549E-01  0.23069001735E-01 -0.10898277411E-02  0.10175831061E+01  0.10172419668E+01 0.  0.
     999903    2    3    3    0    0  0.45279650868E-01 -0.69638710680E-01 -0.92679674214E-01  0.12609963114E+00  0.20292810388E-01 0.  0.
         14    1    1    2    0    0  0.12680388549E-01 -0.23069001735E-01  0.10898277411E-02  0.26346893922E-01  0.00000000000E+00 0. -1.
     999901    1    3    3    0    0 -0.57960039417E-01  0.92707712416E-01  0.91589846472E-01  0.89148347494E+00  0.88000000000E+00 0.  1.
        -11    1    4    4    0    0  0.36624247355E-01 -0.63723911203E-01 -0.87860206734E-01  0.11455020472E+00  0.51100000000E-03 0.  1.
         11    1    4    4    0    0  0.86554035125E-02 -0.59147994777E-02 -0.48194674795E-02  0.11549426419E-01  0.51100000000E-03 0. -1.
</event>
<event>
 8    1  0.1112958E+005  0.1043930E+01  0.7957747E-01            NaN
         13   -1    0    0    0    0  0.00000000000E+00  0.00000000000E+00  0.74505805969E-08  0.10566000000E+00  0.10566000000E+00 0. -1.
     999900   -1    0    0    0    0 -0.00000000000E+00 -0.00000000000E+00 -0.74505805969E-08  0.93827000000E+00  0.93827000000E+00 0.  1.
     999902    2    1    2    0    0  0.15012458062E-01  0.10789576409E-01  0.11951978200E-01  0.10219154903E+01  0.10216783401E+01 0.  0.
     999903    2    3    3    0    0 -0.78477290112E-01  0.97091843760E-01  0.39129999908E-01  0.13234983264E+00  0.19995252383E-01 0.  0.
         14    1    1    2    0    0 -0.15012458062E-01 -0.10789576409E-01 -0.11951978200E-01  0.22014509738E-01  0.00000000000E+00 0. -1.
     999901    1    3    3    0    0  0.93489748174E-01 -0.86302267352E-01 -0.27178021708E-01  0.88956565763E+00  0.88000000000E+00 0.  1.
        -11    1    4    4    0    0 -0.24961945896E-01  0.39700308684E-01  0.64323528470E-02  0.47337612284E-01  0.51100000000E-03 0.  1.
         11    1    4    4    0    0 -0.53515344216E-01  0.57391535076E-01  0.32697647061E-01  0.85012220352E-01  0.51100000000E-03 0. -1.
</event>
<event>
 8    1  0.1112958E+005  0.1043930E+01  0.7957747E-01            NaN
         13   -1    0    0    0    0  0.00000000000E+00  0.00000000000E+00  0.74505805969E-08  0.10566000000E+00  0.10566000000E+00 0. -1.
     999900   -1    0    0    0    0 -0.00000000000E+00 -0.00000000000E+00 -0.74505805969E-08  0.93827000000E+00  0.93827000000E+00 0.  1.
     999902    2    1    2    0    0 -0.55050243891E-02 -0.92542248472E-02 -0.20199876926E-01  0.10210393688E+01  0.10207827445E+01 0.  0.
     999903    2    3    3    0    0  0.10282853818E+00 -0.11574386956E-02  0.75667852496E-01  0.12919165739E+00  0.19743670075E-01 0.  0.
         14    1    1    2    0    0  0.55050243891E-02  0.92542248472E-02  0.20199876926E-01  0.22890631247E-01  0.00000000000E+00 0. -1.
     999901    1    3    3    0    0 -0.10833356257E+00 -0.80967861516E-02 -0.95867729422E-01  0.89184771137E+00  0.88000000000E+00 0.  1.
        -11    1    4    4    0    0  0.64762493540E-01  0.34702035869E-02  0.57834511069E-01  0.86898300755E-01  0.51100000000E-03 0. -1.
         11    1    4    4    0    0  0.38066044642E-01 -0.46276422825E-02  0.17833341428E-01  0.42293356632E-01  0.51100000000E-03 0.  1.
</event>
<event>
 8    1  0.1112958E+005  0.1043930E+01  0.7957747E-01            NaN
         13   -1    0    0    0    0  0.00000000000E+00  0.00000000000E+00  0.74505805969E-08  0.10566000000E+00  0.10566000000E+00 0. -1.
     999900   -1    0    0    0    0 -0.00000000000E+00 -0.00000000000E+00 -0.74505805969E-08  0.93827000000E+00  0.93827000000E+00 0.  1.
     999902    2    1    2    0    0 -0.23236727457E-01 -0.13390442749E-02  0.48386044027E-02  0.10201571029E+01  0.10198800734E+01 0.  0.
     999903    2    3    3    0    0 -0.56611759023E-01 -0.54201228224E-01 -0.10349742019E+00  0.13131234852E+00  0.19711734709E-01 0.  0.
         14    1    1    2    0    0  0.23236727457E-01  0.13390442749E-02 -0.48386044027E-02  0.23772897069E-01  0.00000000000E+00 0. -1.
     999901    1    3    3    0    0  0.33375031566E-01  0.52862183949E-01  0.10833602460E+00  0.88884475441E+00  0.88000000000E+00 0. -1.
        -11    1    4    4    0    0 -0.34172441133E-01 -0.21405247015E-01 -0.61035308223E-01  0.73154017686E-01  0.51100000000E-03 0.  1.
         11    1    4    4    0    0 -0.22439317890E-01 -0.32795981210E-01 -0.42462111972E-01  0.58158330830E-01  0.51100000000E-03 0. -1.
</event>
<event>
 8    1  0.1112958E+005  0.1043930E+01  0.7957747E-01            NaN
         13   -1    0    0    0    0  0.00000000000E+00  0.00000000000E+00  0.74505805969E-08  0.10566000000E+00  0.10566000000E+00 0.  1.
     999900   -1    0    0    0    0 -0.00000000000E+00 -0.00000000000E+00 -0.74505805969E-08  0.93827000000E+00  0.93827000000E+00 0.  1.
     999902    2    1    2    0    0 -0.22005531176E-01 -0.21777864716E-02  0.10048447673E-01  0.10196409601E+01  0.10193516224E+01 0.  0.
     999903    2    3    3    0    0  0.99911821360E-01 -0.69927241987E-01 -0.32483145516E-01  0.12764165186E+00  0.19106159395E-01 0.  0.
         14    1    1    2    0    0  0.22005531176E-01  0.21777864716E-02 -0.10048447673E-01  0.24289039851E-01  0.00000000000E+00 0. -1.
     999901    1    3    3    0    0 -0.12191735254E+00  0.67749455516E-01  0.42531593190E-01  0.89199930829E+00  0.88000000000E+00 0. -1.
        -11    1    4    4    0    0  0.58389481671E-02 -0.50637525743E-02  0.24984985144E-02  0.81387051586E-02  0.51100000000E-03 0. -1.
         11    1    4    4    0    0  0.94072873193E-01 -0.64863489413E-01 -0.34981644031E-01  0.11950294670E+00  0.51100000000E-03 0.  1.
</event>
<event>
 8    1  0.1112958E+005  0.1043930E+01  0.7957747E-01            NaN
         13   -1    0    0    0    0  0.00000000000E+00  0.00000000000E+00  0.74505805969E-08  0.10566000000E+00  0.10566000000E+00 0.  1.
     999900   -1    0    0    0    0 -0.00000000000E+00 -0.00000000000E+00 -0.74505805969E-08  0.93827000000E+00  0.93827000000E+00 0.  1.
     999902    2    1    2    0    0  0.19865502031E-01  0.11635989602E-01 -0.63305541289E-02  0.10200530165E+01  0.10197735269E+01 0.  0.
     999903    2    3    3    0    0  0.40083206643E-01  0.10427845621E+00  0.67220942949E-01  0.13190820573E+00  0.20011488771E-01 0.  0.
         14    1    1    2    0    0 -0.19865502031E-01 -0.11635989602E-01  0.63305541289E-02  0.23876983489E-01  0.00000000000E+00 0. -1.
     999901    1    3    3    0    0 -0.20217704612E-01 -0.92642466608E-01 -0.73551497078E-01  0.88814481078E+00  0.88000000000E+00 0.  1.
        -11    1    4    4    0    0  0.40078970646E-01  0.84001847144E-01  0.57629204784E-01  0.10947155145E+00  0.51100000000E-03 0.  1.
         11    1    4    4    0    0  0.42359976886E-05  0.20276609067E-01  0.95917381644E-02  0.22436654278E-01  0.51100000000E-03 0. -1.
</event>
<event>
 7    1  0.1112958E+005  0.1043930E+01  0.7957747E-01            NaN
         13   -1    0    0    0    0  0.00000000000E+00  0.00000000000E+00  0.74505805969E-08  0.10566000000E+00  0.10566000000E+00 0. -1.
     999900   -1    0    0    0    0 -0.00000000000E+00 -0.00000000000E+00 -0.74505805969E-08  0.93827000000E+00  0.93827000000E+00 0. -1.
     999902    2    1    2    0    0 -0.77992138479E-02  0.13905054797E-01 -0.20220152641E-01  0.10181805756E+01  0.10178549266E+01 0.  0.
         14    1    1    2    0    0  0.77992138479E-02 -0.13905054797E-01  0.20220152641E-01  0.25749424428E-01  0.00000000000E+00 0. -1.
     999901    1    3    3    0    0  0.18978311300E-01  0.79993232529E-01  0.88371820397E-01  0.88823908504E+00  0.88000000000E+00 0. -1.
        -11    1    3    3    0    0 -0.20498365900E-01 -0.51167584006E-01 -0.82005644245E-01  0.98810381371E-01  0.51100000000E-03 0.  1.
         11    1    3    3    0    0 -0.62791592479E-02 -0.14920593726E-01 -0.26586328793E-01  0.31131109162E-01  0.51100000000E-03 0. -1.
</event>
<event>
 8    1  0.1112958E+005  0.1043930E+01  0.7957747E-01            NaN
         13   -1    0    0    0    0  0.00000000000E+00  0.00000000000E+00  0.74505805969E-08  0.10566000000E+00  0.10566000000E+00 0.  1.
     999900   -1    0    0    0    0 -0.00000000000E+00 -0.00000000000E+00 -0.74505805969E-08  0.93827000000E+00  0.93827000000E+00 0. -1.
     999902    2    1    2    0    0 -0.18419664529E-01  0.67776808651E-02 -0.13928411667E-01  0.10198629759E+01  0.10195789660E+01 0.  0.
     999903    2    3    3    0    0 -0.62566675617E-02  0.82727840087E-01  0.97468882302E-01  0.12951151588E+00  0.19748628180E-01 0.  0.
         14    1    1    2    0    0  0.18419664529E-01 -0.67776808651E-02  0.13928411667E-01  0.24067024137E-01  0.00000000000E+00 0. -1.
     999901    1    3    3    0    0 -0.12162996967E-01 -0.75950159222E-01 -0.11139729397E+00  0.89035145998E+00  0.88000000000E+00 0. -1.
        -11    1    4    4    0    0 -0.87666580916E-04  0.51849412118E-01  0.73431968443E-01  0.89893739120E-01  0.51100000000E-03 0.  1.
         11    1    4    4    0    0 -0.61690009808E-02  0.30878427969E-01  0.24036913859E-01  0.39617776765E-01  0.51100000000E-03 0. -1.
</event>
<event>
 8    1  0.1112958E+005  0.1043930E+01  0.7957747E-01            NaN
         13   -1    0    0    0    0  0.00000000000E+00  0.00000000000E+00  0.74505805969E-08  0.10566000000E+00  0.10566000000E+00 0.  1.
     999900   -1    0    0    0    0 -0.00000000000E+00 -0.00000000000E+00 -0.74505805969E-08  0.93827000000E+00  0.93827000000E+00 0. -1.
     999902    2    1    2    0    0 -0.40839191569E-02 -0.10483315322E-02 -0.23214517497E-01  0.10203356952E+01  0.10200628607E+01 0.  0.
     999903    2    3    3    0    0 -0.12730907925E+00 -0.23522517836E-01 -0.20035305444E-01  0.13146020535E+00  0.10929849986E-01 0.  0.
         14    1    1    2    0    0  0.40839191569E-02  0.10483315322E-02  0.23214517497E-01  0.23594304764E-01  0.00000000000E+00 0.  1.
     999901    1    3    3    0    0  0.12322516010E+00  0.22474186304E-01 -0.31792120529E-02  0.88887548989E+00  0.88000000000E+00 0. -1.
        -11    1    4    4    0    0 -0.82480636056E-01 -0.11648292509E-01 -0.16740115687E-01  0.84966055792E-01  0.51100000000E-03 0.  1.
         11    1    4    4    0    0 -0.44828443197E-01 -0.11874225326E-01 -0.32951897571E-02  0.46494149558E-01  0.51100000000E-03 0. -1.
</event>
<event>
 8    1  0.1112958E+005  0.1043930E+01  0.7957747E-01            NaN
         13   -1    0    0    0    0  0.00000000000E+00  0.00000000000E+00  0.74505805969E-08  0.10566000000E+00  0.10566000000E+00 0. -1.
     999900   -1    0    0    0    0 -0.00000000000E+00 -0.00000000000E+00 -0.74505805969E-08  0.93827000000E+00  0.93827000000E+00 0. -1.
     999902    2    1    2    0    0  0.79604844885E-02  0.79174592934E-03 -0.21819629379E-01  0.10206901119E+01  0.10204255054E+01 0.  0.
     999903    2    3    3    0    0 -0.10680745501E+00  0.68146919486E-01  0.19263095711E-01  0.12973770592E+00  0.20223016549E-01 0.  0.
         14    1    1    2    0    0 -0.79604844885E-02 -0.79174592934E-03  0.21819629379E-01  0.23239888148E-01  0.00000000000E+00 0. -1.
     999901    1    3    3    0    0  0.11476793950E+00 -0.67355173556E-01 -0.41082725090E-01  0.89095240594E+00  0.88000000000E+00 0. -1.
        -11    1    4    4    0    0 -0.87271535349E-01  0.63292473844E-01  0.12672226521E-01  0.10855000955E+00  0.51100000000E-03 0. -1.
         11    1    4    4    0    0 -0.19535919664E-01  0.48544456418E-02  0.65908691902E-02  0.21187696365E-01  0.51100000000E-03 0.  1.
</event>
<event>
 8    1  0.1112958E+005  0.1043930E+01  0.7957747E-01            NaN
         13   -1    0    0    0    0  0.00000000000E+00  0.00000000000E+00  0.74505805969E-08  0.10566000000E+00  0.10566000000E+00 0.  1.
     999900   -1    0    0    0    0 -0.00000000000E+00 -0.00000000000E+00 -0.74505805969E-08  0.93827000000E+00  0.93827000000E+00 0.  1.
     999902    2    1    2    0    0  0.21454160907E-01 -0.12438966957E-01 -0.68763795390E-02  0.10181949361E+01  0.10178696549E+01 0.  0.
     999903    2    3    3    0    0  0.81830118191E-01 -0.73803152099E-01  0.67772571341E-01  0.13084873234E+00  0.19626406330E-01 0.  0.
         14    1    1    2    0    0 -0.21454160907E-01  0.12438966957E-01  0.68763795390E-02  0.25735063916E-01  0.00000000000E+00 0. -1.
     999901    1    3    3    0    0 -0.60375957284E-01  0.61364185142E-01 -0.74648950880E-01  0.88734620375E+00  0.88000000000E+00 0.  1.
        -11    1    4    4    0    0  0.37020512766E-01 -0.25908972871E-01  0.18572307590E-01  0.48856780194E-01  0.51100000000E-03 0.  1.
         11    1    4    4    0    0  0.44809605424E-01 -0.47894179228E-01  0.49200263751E-01  0.81991952144E-01  0.51100000000E-03 0. -1.
</event>
<event>
 8    1  0.1112958E+005  0.1043930E+01  0.7957747E-01            NaN
         13   -1    0    0    0    0  0.00000000000E+00  0.00000000000E+00  0.74505805969E-08  0.10566000000E+00  0.10566000000E+00 0.  1.
     999900   -1    0    0    0    0 -0.00000000000E+00 -0.00000000000E+00 -0.74505805969E-08  0.93827000000E+00  0.93827000000E+00 0.  1.
     999902    2    1    2    0    0 -0.20450275145E-01  0.90384331608E-02 -0.52052601132E-02  0.10209734811E+01  0.10207153606E+01 0.  0.
     999903    2    3    3    0    0  0.33872625118E-01 -0.10500760009E+00  0.64271568521E-01  0.12924229687E+00  0.19969626213E-01 0.  0.
         14    1    1    2    0    0  0.20450275145E-01 -0.90384331608E-02  0.52052601132E-02  0.22956518907E-01  0.00000000000E+00 0.  1.
     999901    1    3    3    0    0 -0.54322900263E-01  0.11404603325E+00 -0.69476828634E-01  0.89173118422E+00  0.88000000000E+00 0. -1.
        -11    1    4    4    0    0  0.10526322787E-01 -0.39888135773E-01  0.13424017997E-01  0.43385852844E-01  0.51100000000E-03 0. -1.
         11    1    4    4    0    0  0.23346302331E-01 -0.65119464320E-01  0.50847550524E-01  0.85856444028E-01  0.51100000000E-03 0.  1.
</event>
<event>
 8    1  0.1112958E+005  0.1043930E+01  0.7957747E-01            NaN
         13   -1    0    0    0    0  0.00000000000E+00  0.00000000000E+00  0.74505805969E-08  0.10566000000E+00  0.10566000000E+00 0. -1.
     999900   -1    0    0    0    0 -0.00000000000E+00 -0.00000000000E+00 -0.74505805969E-08  0.93827000000E+00  0.93827000000E+00 0.  1.
     999902    2    1    2    0    0  0.17351684054E-01 -0.12391155516E-01 -0.13122309449E-01  0.10188936928E+01  0.10185860496E+01 0.  0.
     999903    2    3    3    0    0  0.10605875904E+00 -0.64150067889E-01 -0.41956402711E-01  0.13245174030E+00  0.20480043968E-01 0.  0.
         14    1    1    2    0    0 -0.17351684054E-01  0.12391155516E-01  0.13122309449E-01  0.25036307231E-01  0.00000000000E+00 0.  1.
     999901    1    3    3    0    0 -0.88707074985E-01  0.51758912373E-01  0.28834093263E-01  0.88644195247E+00  0.88000000000E+00 0. -1.
        -11    1    4    4    0    0  0.66134391147E-01 -0.40900234178E-01 -0.15773642687E-01  0.79345168554E-01  0.51100000000E-03 0. -1.
         11    1    4    4    0    0  0.39924367892E-01 -0.23249833711E-01 -0.26182760024E-01  0.53106571746E-01  0.51100000000E-03 0.  1.
</event>
<event>
 8    1  0.1112958E+005  0.1043930E+01  0.7957747E-01            NaN
         13   -1    0    0    0    0  0.00000000000E+00  0.00000000000E+00  0.74505805969E-08  0.10566000000E+00  0.10566000000E+00 0.  1.
     999900   -1    0    0    0    0 -0.00000000000E+00 -0.00000000000E+00 -0.74505805969E-08  0.93827000000E+00  0.93827000000E+00 0. -1.
     999902    2    1    2    0    0 -0.14014499981E-01 -0.12610546637E-01 -0.13971798024E-01  0.10204642114E+01  0.10201943753E+01 0.  0.
     999903    2    3    3    0    0 -0.18696844107E-01  0.12265273850E+00 -0.34720467950E-01  0.12987531184E+00  0.16395715571E-01 0.  0.
         14    1    1    2    0    0  0.14014499981E-01  0.12610546637E-01  0.13971798024E-01  0.23465788634E-01  0.00000000000E+00 0.  1.
     999901    1    3    3    0    0  0.46823441252E-02 -0.13526328514E+00  0.20748669926E-01  0.89058889953E+00  0.88000000000E+00 0.  1.
        -11    1    4    4    0    0 -0.79668967185E-02  0.88942457559E-01 -0.29873950834E-01  0.94164463889E-01  0.51100000000E-03 0.  1.
         11    1    4    4    0    0 -0.10729947388E-01  0.33710280944E-01 -0.48465171157E-02  0.35710847952E-01  0.51100000000E-03 0. -1.
</event>
<event>
 8    1  0.1112958E+005  0.1043930E+01  0.7957747E-01            NaN
         13   -1    0    0    0    0  0.00000000000E+00  0.00000000000E+00  0.74505805969E-08  0.10566000000E+00  0.10566000000E+00 0. -1.
     999900   -1    0    0    0    0 -0.00000000000E+00 -0.00000000000E+00 -0.74505805969E-08  0.93827000000E+00  0.93827000000E+00 0. -1.
     999902    2    1    2    0    0  0.49696940522E-02  0.49586399036E-02  0.21113324768E-01  0.10216800910E+01  0.10214377856E+01 0.  0.
     999903    2    3    3    0    0  0.10917556245E+00  0.81406874267E-02 -0.68979085555E-01  0.13095811930E+00  0.20157890236E-01 0.  0.
         14    1    1    2    0    0 -0.49696940522E-02 -0.49586399036E-02 -0.21113324768E-01  0.22249909021E-01  0.00000000000E+00 0.  1.
     999901    1    3    3    0    0 -0.10420586840E+00 -0.31820475231E-02  0.90092410324E-01  0.89072197168E+00  0.88000000000E+00 0.  1.
        -11    1    4    4    0    0  0.64950002818E-01  0.69693106930E-02 -0.52274154860E-01  0.83665539769E-01  0.51100000000E-03 0.  1.
         11    1    4    4    0    0  0.44225559631E-01  0.11713767337E-02 -0.16704930695E-01  0.47292579530E-01  0.51100000000E-03 0. -1.
</event>
<event>
 8    1  0.1112958E+005  0.1043930E+01  0.7957747E-01            NaN
         13   -1    0    0    0    0  0.00000000000E+00  0.00000000000E+00  0.74505805969E-08  0.10566000000E+00  0.10566000000E+00 0.  1.
     999900   -1    0    0    0    0 -0.00000000000E+00 -0.00000000000E+00 -0.74505805969E-08  0.93827000000E+00  0.93827000000E+00 0.  1.
     999902    2    1    2    0    0 -0.15050676452E-01  0.56610898028E-02  0.17498568073E-01  0.10201650955E+01  0.10198882544E+01 0.  0.
     999903    2    3    3    0    0 -0.10776043412E+00  0.56465553133E-01  0.50433954877E-01  0.13322601513E+00  0.20122560691E-01 0.  0.
         14    1    1    2    0    0  0.15050676452E-01 -0.56610898028E-02 -0.17498568073E-01  0.23764904461E-01  0.00000000000E+00 0. -1.
     999901    1    3    3    0    0  0.92709757671E-01 -0.50804463331E-01 -0.32935386803E-01  0.88693908041E+00  0.88000000000E+00 0. -1.
        -11    1    4    4    0    0 -0.78692599589E-01  0.49508407220E-01  0.33209824360E-01  0.98725686478E-01  0.51100000000E-03 0.  1.
         11    1    4    4    0    0 -0.29067834533E-01  0.69571459136E-02  0.17224130517E-01  0.34500328647E-01  0.51100000000E-03 0. -1.
</event>
<event>
 8    1  0.1112958E+005  0.1043930E+01  0.7957747E-01            NaN
         13   -1    0    0    0    0  0.00000000000E+00  0.00000000000E+00  0.74505805969E-08  0.10566000000E+00  0.10566000000E+00 0.  1.
     999900   -1    0    0    0    0 -0.00000000000E+00 -0.00000000000E+00 -0.74505805969E-08  0.93827000000E+00  0.93827000000E+00 0. -1.
     999902    2    1    2    0    0 -0.19856744569E-02  0.18670389106E-01  0.13362981435E-01  0.10208844884E+01  0.10206243398E+01 0.  0.
     999903    2    3    3    0    0  0.49478331828E-01 -0.11552521080E+00  0.22096823884E-01  0.12918202513E+00  0.20138181180E-01 0.  0.
         14    1    1    2    0    0  0.19856744569E-02 -0.18670389106E-01 -0.13362981435E-01  0.23045511607E-01  0.00000000000E+00 0. -1.
     999901    1    3    3    0    0 -0.51464006285E-01  0.13419559991E+00 -0.87338424495E-02  0.89170246326E+00  0.88000000000E+00 0. -1.
        -11    1    4    4    0    0  0.42688371606E-01 -0.94262769005E-01  0.10464716759E-01  0.10400739449E+00  0.51100000000E-03 0.  1.
         11    1    4    4    0    0  0.67899602229E-02 -0.21262441795E-01  0.11632107125E-01  0.25174630645E-01  0.51100000000E-03 0. -1.
</event>
<event>
 8    1  0.1112958E+005  0.1043930E+01  0.7957747E-01            NaN
         13   -1    0    0    0    0  0.00000000000E+00  0.00000000000E+00  0.74505805969E-08  0.10566000000E+00  0.10566000000E+00 0. -1.
     999900   -1    0    0    0    0 -0.00000000000E+00 -0.00000000000E+00 -0.74505805969E-08  0.93827000000E+00  0.93827000000E+00 0. -1.
     999902    2    1    2    0    0 -0.14213941260E-01  0.73399528225E-02  0.17127483571E-01  0.10204936665E+01  0.10202245153E+01 0.  0.
     999903    2    3    3    0    0 -0.10060580699E+00  0.30310509852E-01 -0.75800271655E-01  0.13109680985E+00  0.20010921109E-01 0.  0.
         14    1    1    2    0    0  0.14213941260E-01 -0.73399528225E-02 -0.17127483571E-01  0.23436333482E-01  0.00000000000E+00 0. -1.
     999901    1    3    3    0    0  0.86391865728E-01 -0.22970557030E-01  0.92927755226E-01  0.88939685666E+00  0.88000000000E+00 0.  1.
        -11    1    4    4    0    0 -0.50095068198E-01  0.87269833212E-02 -0.26777103415E-01  0.57471301394E-01  0.51100000000E-03 0.  1.
         11    1    4    4    0    0 -0.50510738790E-01  0.21583526531E-01 -0.49023168240E-01  0.73625508459E-01  0.51100000000E-03 0. -1.
</event>
<event>
 8    1  0.1112958E+005  0.1043930E+01  0.7957747E-01            NaN
         13   -1    0    0    0    0  0.00000000000E+00  0.00000000000E+00  0.74505805969E-08  0.10566000000E+00  0.10566000000E+00 0.  1.
     999900   -1    0    0    0    0 -0.00000000000E+00 -0.00000000000E+00 -0.74505805969E-08  0.93827000000E+00  0.93827000000E+00 0.  1.
     999902    2    1    2    0    0  0.52195753009E-02 -0.22631858791E-01  0.46706236690E-03  0.10206993490E+01  0.10204349553E+01 0.  0.
     999903    2    3    3    0    0  0.18652427093E-01 -0.12425566285E+00  0.41901790809E-01  0.13378070798E+00  0.18818474130E-01 0.  0.
         14    1    1    2    0    0 -0.52195753009E-02  0.22631858791E-01 -0.46706236690E-03  0.23230651000E-01  0.00000000000E+00 0. -1.
     999901    1    3    3    0    0 -0.13432851792E-01  0.10162380406E+00 -0.41434728442E-01  0.88691864102E+00  0.88000000000E+00 0. -1.
        -11    1    4    4    0    0  0.18567412298E-01 -0.89512084122E-01  0.37276837011E-01  0.98726823619E-01  0.51100000000E-03 0. -1.
         11    1    4    4    0    0  0.85014794858E-04 -0.34743578730E-01  0.46249537974E-02  0.35053884366E-01  0.51100000000E-03 0.  1.
</event>
<event>
 8    1  0.1112958E+005  0.1043930E+01  0.7957747E-01            NaN
         13   -1    0    0    0    0  0.00000000000E+00  0.00000000000E+00  0.74505805969E-08  0.10566000000E+00  0.10566000000E+00 0. -1.
     999900   -1    0    0    0    0 -0.00000000000E+00 -0.00000000000E+00 -0.74505805969E-08  0.93827000000E+00  0.93827000000E+00 0.  1.
     999902    2    1    2    0    0  0.19675552429E-01  0.14205120957E-01 -0.76248322923E-02  0.10184928049E+01  0.10181751042E+01 0.  0.
     999903    2    3    3    0    0  0.11865804107E-01 -0.12548619975E+00  0.61592746538E-02  0.12733363911E+00  0.16980440183E-01 0.  0.
         14    1    1    2    0    0 -0.19675552429E-01 -0.14205120957E-01  0.76248322923E-02  0.25437195055E-01  0.00000000000E+00 0. -1.
     999901    1    3    3    0    0  0.78097483219E-02  0.13969132071E+00 -0.13784106946E-01  0.89115916584E+00  0.88000000000E+00 0. -1.
        -11    1    4    4    0    0 -0.42276970531E-02 -0.22482671291E-01 -0.23030426990E-03  0.22883576902E-01  0.51100000000E-03 0. -1.
         11    1    4    4    0    0  0.16093501161E-01 -0.10300352846E+00  0.63895789237E-02  0.10445006221E+00  0.51100000000E-03 0.  1.
</event>
<event>
 8    1  0.1112958E+005  0.1043930E+01  0.7957747E-01            NaN
         13   -1    0    0    0    0  0.00000000000E+00  0.00000000000E+00  0.74505805969E-08  0.10566000000E+00  0.10566000000E+00 0.  1.
     999900   -1    0    0    0    0 -0.00000000000E+00 -0.00000000000E+00 -0.74505805969E-08  0.93827000000E+00  0.93827000000E+00 0.  1.
     999902    2    1    2    0    0  0.14158217829E-01 -0.46220496722E-02  0.18823779387E-01  0.10199268097E+01  0.10196443223E+01 0.  0.
     999903    2    3    3    0    0 -0.22401366129E-01  0.65296769725E-01 -0.10551620592E+00  0.12769047527E+00  0.20141956798E-01 0.  0.
         14    1    1    2    0    0 -0.14158217829E-01  0.46220496722E-02 -0.18823779387E-01  0.24003190323E-01  0.00000000000E+00 0. -1.
     999901    1    3    3    0    0  0.36559583958E-01 -0.69918819397E-01  0.12433998530E+00  0.89223633440E+00  0.88000000000E+00 0. -1.
        -11    1    4    4    0    0 -0.98267354902E-02  0.52401678130E-01 -0.85468195486E-01  0.10073516845E+00  0.51100000000E-03 0. -1.
         11    1    4    4    0    0 -0.12574630639E-01  0.12895091595E-01 -0.20048010430E-01  0.26955306827E-01  0.51100000000E-03 0.  1.
</event>
<event>
 8    1  0.1112958E+005  0.1043930E+01  0.7957747E-01            NaN
         13   -1    0    0    0    0  0.00000000000E+00  0.00000000000E+00  0.74505805969E-08  0.10566000000E+00  0.10566000000E+00 0. -1.
     999900   -1    0    0    0    0 -0.00000000000E+00 -0.00000000000E+00 -0.74505805969E-08  0.93827000000E+00  0.93827000000E+00 0.  1.
     999902    2    1    2    0    0 -0.93924566996E-02 -0.20848911738E-01 -0.87148714369E-02  0.10194587036E+01  0.10191649543E+01 0.  0.
     999903    2    3    3    0    0 -0.56327523474E-01 -0.79727054517E-01  0.85432656991E-01  0.13123953397E+00  0.19896815633E-01 0.  0.
         14    1    1    2    0    0  0.93924566996E-02  0.20848911738E-01  0.87148714369E-02  0.24471296404E-01  0.00000000000E+00 0. -1.
     999901    1    3    3    0    0  0.46935066774E-01  0.58878142779E-01 -0.94147528428E-01  0.88821916963E+00  0.88000000000E+00 0.  1.
        -11    1    4    4    0    0 -0.20108504278E-01 -0.19772950003E-01  0.34871217893E-01  0.44850690680E-01  0.51100000000E-03 0.  1.
         11    1    4    4    0    0 -0.36219019196E-01 -0.59954104514E-01  0.50561439098E-01  0.86388843286E-01  0.51100000000E-03 0. -1.
</event>
<event>
 8    1  0.1112958E+005  0.1043930E+01  0.7957747E-01            NaN
         13   -1    0    0    0    0  0.00000000000E+00  0.00000000000E+00  0.74505805969E-08  0.10566000000E+00  0.10566000000E+00 0.  1.
     999900   -1    0    0    0    0 -0.00000000000E+00 -0.00000000000E+00 -0.74505805969E-08  0.93827000000E+00  0.93827000000E+00 0. -1.
     999902    2    1    2    0    0  0.21665484937E-01 -0.81150783929E-02  0.48249499415E-02  0.10202968056E+01  0.10200230604E+01 0.  0.
     999903    2    3    3    0    0 -0.39491246466E-01  0.63015741202E-01 -0.10332315999E+00  0.12872754136E+00  0.19093515327E-01 0.  0.
         14    1    1    2    0    0 -0.21665484937E-01  0.81150783929E-02 -0.48249499415E-02  0.23633194384E-01  0.00000000000E+00 0. -1.
     999901    1    3    3    0    0  0.61156731403E-01 -0.71130819595E-01  0.10814810993E+00  0.89156926426E+00  0.88000000000E+00 0.  1.
        -11    1    4    4    0    0 -0.29427971358E-01  0.44996217786E-01 -0.58954472198E-01  0.79790701379E-01  0.51100000000E-03 0. -1.
         11    1    4    4    0    0 -0.10063275108E-01  0.18019523416E-01 -0.44368687787E-01  0.48936839977E-01  0.51100000000E-03 0.  1.
</event>
<event>
 8    1  0.1112958E+005  0.1043930E+01  0.7957747E-01            NaN
         13   -1    0    0    0    0  0.00000000000E+00  0.00000000000E+00  0.74505805969E-08  0.10566000000E+00  0.10566000000E+00 0. -1.
     999900   -1    0    0    0    0 -0.00000000000E+00 -0.00000000000E+00 -0.74505805969E-08  0.93827000000E+00  0.93827000000E+00 0.  1.
     999902    2    1    2    0    0  0.17960298311E-01  0.79537766227E-02 -0.12853404726E-01  0.10204556546E+01  0.10201856195E+01 0.  0.
     999903    2    3    3    0    0  0.95651732129E-01  0.19991584568E-01  0.85583545089E-01  0.13148394483E+00  0.20360924500E-01 0.  0.
         14    1    1    2    0    0 -0.17960298311E-01 -0.79537766227E-02  0.12853404726E-01  0.23474345380E-01  0.00000000000E+00 0. -1.
     999901    1    3    3    0    0 -0.77691433818E-01 -0.12037807945E-01 -0.98436949815E-01  0.88897170978E+00  0.88000000000E+00 0.  1.
        -11    1    4    4    0    0  0.83577812917E-02  0.50300627157E-02  0.25858519491E-02  0.10104543055E-01  0.51100000000E-03 0. -1.
         11    1    4    4    0    0  0.87293950837E-01  0.14961521852E-01  0.82997693140E-01  0.12137940178E+00  0.51100000000E-03 0.  1.
</event>
<event>
 8    1  0.1112958E+005  0.1043930E+01  0.7957747E-01            NaN
         13   -1    0    0    0    0  0.00000000000E+00  0.00000000000E+00  0.74505805969E-08  0.10566000000E+00  0.10566000000E+00 0. -1.
     999900   -1    0    0    0    0 -0.00000000000E+00 -0.00000000000E+00 -0.74505805969E-08  0.93827000000E+00  0.93827000000E+00 0. -1.
     999902    2    1    2    0    0  0.11409737579E-01  0.59867148275E-03 -0.21133198881E-01  0.10199059992E+01  0.10196230159E+01 0.  0.
     999903    2    3    3    0    0  0.12838374116E+00  0.54111981536E-02  0.18022991076E-01  0.13128949861E+00  0.20010951434E-01 0.  0.
         14    1    1    2    0    0 -0.11409737579E-01 -0.59867148275E-03  0.21133198881E-01  0.24024000793E-01  0.00000000000E+00 0. -1.
     999901    1    3    3    0    0 -0.11697400358E+00 -0.48125266709E-02 -0.39156189957E-01  0.88861650060E+00  0.88000000000E+00 0. -1.
        -11    1    4    4    0    0  0.43276676515E-01  0.10036193973E-01  0.14042459370E-02  0.44450297494E-01  0.51100000000E-03 0. -1.
         11    1    4    4    0    0  0.85107064645E-01 -0.46249958199E-02  0.16618745139E-01  0.86839201112E-01  0.51100000000E-03 0.  1.
</event>
<event>
 8    1  0.1112958E+005  0.1043930E+01  0.7957747E-01            NaN
         13   -1    0    0    0    0  0.00000000000E+00  0.00000000000E+00  0.74505805969E-08  0.10566000000E+00  0.10566000000E+00 0.  1.
     999900   -1    0    0    0    0 -0.00000000000E+00 -0.00000000000E+00 -0.74505805969E-08  0.93827000000E+00  0.93827000000E+00 0.  1.
     999902    2    1    2    0    0  0.11357436009E-01 -0.88278463400E-02 -0.18766166009E-01  0.10202848904E+01  0.10200108658E+01 0.  0.
     999903    2    3    3    0    0  0.12337599268E+00  0.27826425306E-01  0.28400484369E-01  0.13117500649E+00  0.20108438528E-01 0.  0.
         14    1    1    2    0    0 -0.11357436009E-01  0.88278463400E-02  0.18766166009E-01  0.23645109650E-01  0.00000000000E+00 0.  1.
     999901    1    3    3    0    0 -0.11201855667E+00 -0.36654271646E-01 -0.47166650378E-01  0.88910988386E+00  0.88000000000E+00 0.  1.
        -11    1    4    4    0    0  0.28521898560E-01  0.34758621802E-02 -0.15126038445E-02  0.28777237650E-01  0.51100000000E-03 0. -1.
         11    1    4    4    0    0  0.94854094121E-01  0.24350563126E-01  0.29913088214E-01  0.10239776884E+00  0.51100000000E-03 0.  1.
</event>
<event>
 8    1  0.1112958E+005  0.1043930E+01  0.7957747E-01            NaN
         13   -1    0    0    0    0  0.00000000000E+00  0.00000000000E+00  0.74505805969E-08  0.10566000000E+00  0.10566000000E+00 0.  1.
     999900   -1    0    0    0    0 -0.00000000000E+00 -0.00000000000E+00 -0.74505805969E-08  0.93827000000E+00  0.93827000000E+00 0.  1.
     999902    2    1    2    0    0  0.64318250595E-04  0.23743360610E-01 -0.28277420214E-02  0.10200187592E+01  0.10197384575E+01 0.  0.
     999903    2    3    3    0    0  0.95451661216E-01  0.77113099596E-01  0.40671585862E-01  0.13219036041E+00  0.27616367080E-01 0.  0.
         14    1    1    2    0    0 -0.64318250596E-04 -0.23743360610E-01  0.28277420214E-02  0.23911240763E-01  0.00000000000E+00 0.  1.
     999901    1    3    3    0    0 -0.95387342965E-01 -0.53369738985E-01 -0.43499327883E-01  0.88782839883E+00  0.88000000000E+00 0. -1.
        -11    1    4    4    0    0  0.54784382056E-01  0.60131649888E-01  0.31099726403E-01  0.87089597191E-01  0.51100000000E-03 0. -1.
         11    1    4    4    0    0  0.40667279160E-01  0.16981449707E-01  0.95718594587E-02  0.45100763219E-01  0.51100000000E-03 0.  1.
</event>
<event>
 8    1  0.1112958E+005  0.1043930E+01  0.7957747E-01            NaN
         13   -1    0    0    0    0  0.00000000000E+00  0.00000000000E+00  0.74505805969E-08  0.10566000000E+00  0.10566000000E+00 0. -1.
     999900   -1    0    0    0    0 -0.00000000000E+00 -0.00000000000E+00 -0.74505805969E-08  0.93827000000E+00  0.93827000000E+00 0.  1.
     999902    2    1    2    0    0 -0.14698527520E-01  0.90853823308E-02 -0.21187118209E-01  0.10165898306E+01  0.10162221208E+01 0.  0.
     999903    2    3    3    0    0  0.10902203260E+00  0.40074539360E-01  0.41044152020E-01  0.12522019022E+00  0.22443291342E-01 0.  0.
         14    1    1    2    0    0  0.14698527520E-01 -0.90853823308E-02  0.21187118209E-01  0.27340169373E-01  0.00000000000E+00 0. -1.
     999901    1    3    3    0    0 -0.12372056012E+00 -0.30989157030E-01 -0.62231270229E-01  0.89136964041E+00  0.88000000000E+00 0.  1.
        -11    1    4    4    0    0  0.11628963912E-01  0.95036610936E-02  0.11586252371E-01  0.18975108454E-01  0.51100000000E-03 0. -1.
         11    1    4    4    0    0  0.97393068686E-01  0.30570878267E-01  0.29457899649E-01  0.10624508176E+00  0.51100000000E-03 0.  1.
</event>
<event>
 8    1  0.1112958E+005  0.1043930E+01  0.7957747E-01            NaN
         13   -1    0    0    0    0  0.00000000000E+00  0.00000000000E+00  0.74505805969E-08  0.10566000000E+00  0.10566000000E+00 0.  1.
     999900   -1    0    0    0    0 -0.00000000000E+00 -0.00000000000E+00 -0.74505805969E-08  0.93827000000E+00  0.93827000000E+00 0.  1.
     999902    2    1    2    0    0  0.90211986738E-02 -0.13713640314E-01  0.15571643845E-01  0.10213043056E+01  0.10210536531E+01 0.  0.
     999903    2    3    3    0    0  0.49695177900E-01  0.16679822407E-01  0.12111777466E+00  0.13354413476E+00  0.20413069540E-01 0.  0.
         14    1    1    2    0    0 -0.90211986738E-02  0.13713640314E-01 -0.15571643845E-01  0.22625694425E-01  0.00000000000E+00 0. -1.
     999901    1    3    3    0    0 -0.40673979226E-01 -0.30393462721E-01 -0.10554613081E+00  0.88776017082E+00  0.88000000000E+00 0.  1.
        -11    1    4    4    0    0  0.92080856783E-02 -0.42679966292E-02  0.29690813342E-01  0.31381685024E-01  0.51100000000E-03 0.  1.
         11    1    4    4    0    0  0.40487092221E-01  0.20947819037E-01  0.91426961315E-01  0.10216244973E+00  0.51100000000E-03 0. -1.
</event>
<event>
 8    1  0.1112958E+005  0.1043930E+01  0.7957747E-01            NaN
         13   -1    0    0    0    0  0.00000000000E+00  0.00000000000E+00  0.74505805969E-08  0.10566000000E+00  0.10566000000E+00 0.  1.
     999900   -1    0    0    0    0 -0.00000000000E+00 -0.00000000000E+00 -0.74505805969E-08  0.93827000000E+00  0.93827000000E+00 0.  1.
     999902    2    1    2    0    0 -0.55027063471E-02 -0.17022358421E-01  0.93083219667E-02  0.10237635595E+01  0.10235649176E+01 0.  0.
     999903    2    3    3    0    0 -0.10701347603E+00  0.72588004832E-01 -0.23372678905E-01  0.13280761147E+00  0.19252975046E-01 0.  0.
         14    1    1    2    0    0  0.55027063471E-02  0.17022358421E-01 -0.93083219667E-02  0.20166440469E-01  0.00000000000E+00 0. -1.
     999901    1    3    3    0    0  0.10151076968E+00 -0.89610363253E-01  0.32681000872E-01  0.89095594806E+00  0.88000000000E+00 0. -1.
        -11    1    4    4    0    0 -0.53698222238E-01  0.32655638289E-01 -0.20586094065E-01  0.66135755635E-01  0.51100000000E-03 0. -1.
         11    1    4    4    0    0 -0.53315253792E-01  0.39932366544E-01 -0.27865848403E-02  0.66671855837E-01  0.51100000000E-03 0.  1.
</event>
<event>
 8    1  0.1112958E+005  0.1043930E+01  0.7957747E-01            NaN
         13   -1    0    0    0    0  0.00000000000E+00  0.00000000000E+00  0.74505805969E-08  0.10566000000E+00  0.10566000000E+00 0.  1.
     999900   -1    0    0    0    0 -0.00000000000E+00 -0.00000000000E+00 -0.74505805969E-08  0.93827000000E+00  0.93827000000E+00 0. -1.
     999902    2    1    2    0    0  0.20348020930E-01 -0.26586845534E-02  0.11304769554E-01  0.10205012063E+01  0.10202322303E+01 0.  0.
     999903    2    3    3    0    0 -0.54799178500E-01  0.11540242435E+00  0.31354631364E-02  0.12940510341E+00  0.20375969910E-01 0.  0.
         14    1    1    2    0    0 -0.20348020930E-01  0.26586845534E-02 -0.11304769554E-01  0.23428793695E-01  0.00000000000E+00 0. -1.
     999901    1    3    3    0    0  0.75147199430E-01 -0.11806110891E+00  0.81693064173E-02  0.89109610289E+00  0.88000000000E+00 0. -1.
        -11    1    4    4    0    0 -0.49660482154E-01  0.92360996925E-01 -0.33421272945E-02  0.10491972253E+00  0.51100000000E-03 0. -1.
         11    1    4    4    0    0 -0.51386963454E-02  0.23041427429E-01  0.64775904310E-02  0.24485380881E-01  0.51100000000E-03 0.  1.
</event>
<event>
 8    1  0.1112958E+005  0.1043930E+01  0.7957747E-01            NaN
         13   -1    0    0    0    0  0.00000000000E+00  0.00000000000E+00  0.74505805969E-08  0.10566000000E+00  0.10566000000E+00 0. -1.
     999900   -1    0    0    0    0 -0.00000000000E+00 -0.00000000000E+00 -0.74505805969E-08  0.93827000000E+00  0.93827000000E+00 0. -1.
     999902    2    1    2    0    0 -0.12151809706E-01 -0.20021016434E-01  0.13781484280E-02  0.10204692483E+01  0.10201995294E+01 0.  0.
     999903    2    3    3    0    0  0.54969188737E-02 -0.56204431139E-01 -0.11787864899E+00  0.13151317465E+00  0.14532206295E-01 0.  0.
         14    1    1    2    0    0  0.12151809706E-01  0.20021016434E-01 -0.13781484280E-02  0.23460751720E-01  0.00000000000E+00 0. -1.
     999901    1    3    3    0    0 -0.17648728580E-01  0.36183414706E-01  0.11925679742E+00  0.88895607363E+00  0.88000000000E+00 0.  1.
        -11    1    4    4    0    0  0.41490727361E-02 -0.23053070551E-01 -0.64911393326E-01  0.69010209179E-01  0.51100000000E-03 0. -1.
         11    1    4    4    0    0  0.13478461377E-02 -0.33151360589E-01 -0.52967255668E-01  0.62502965467E-01  0.51100000000E-03 0.  1.
</event>
<event>
 7    1  0.1112958E+005  0.1043930E+01  0.7957747E-01            NaN
         13   -1    0    0    0    0  0.00000000000E+00  0.00000000000E+00  0.74505805969E-08  0.10566000000E+00  0.10566000000E+00 0.  1.
     999900   -1    0    0    0    0 -0.00000000000E+00 -0.00000000000E+00 -0.74505805969E-08  0.93827000000E+00  0.93827000000E+00 0.  1.
     999902    2    1    2    0    0  0.21462282662E-01 -0.48538270446E-03 -0.11484812328E-02  0.10224315307E+01  0.10222054836E+01 0.  0.
         14    1    1    2    0    0 -0.21462282662E-01  0.48538270446E-03  0.11484812328E-02  0.21498469308E-01  0.00000000000E+00 0. -1.
     999901    1    3    3    0    0 -0.10132103726E-02  0.12096873423E+00  0.24680606212E-01  0.88861892484E+00  0.88000000000E+00 0. -1.
        -11    1    3    3    0    0  0.24199313057E-01 -0.65380020511E-01 -0.33216650015E-01  0.77225389566E-01  0.51100000000E-03 0.  1.
         11    1    3    3    0    0 -0.17238200217E-02 -0.56074096426E-01  0.73875625697E-02  0.56587216288E-01  0.51100000000E-03 0. -1.
</event>
<event>
 8    1  0.1112958E+005  0.1043930E+01  0.7957747E-01            NaN
         13   -1    0    0    0    0  0.00000000000E+00  0.00000000000E+00  0.74505805969E-08  0.10566000000E+00  0.10566000000E+00 0. -1.
     999900   -1    0    0    0    0 -0.00000000000E+00 -0.00000000000E+00 -0.74505805969E-08  0.93827000000E+00  0.93827000000E+00 0.  1.
     999902    2    1    2    0    0 -0.10152907774E-01  0.11466962660E-01 -0.17959993568E-01  0.10203263109E+01  0.10200532568E+01 0.  0.
     999903    2    3    3    0    0 -0.91227242765E-01  0.85142665560E-01 -0.42164000308E-01  0.13320343841E+00  0.19841112927E-01 0.  0.
         14    1    1    2    0    0  0.10152907774E-01 -0.11466962660E-01  0.17959993568E-01  0.23603689073E-01  0.00000000000E+00 0. -1.
     999901    1    3    3    0    0  0.81074334991E-01 -0.73675702901E-01  0.24204006740E-01  0.88712287251E+00  0.88000000000E+00 0. -1.
        -11    1    4    4    0    0 -0.63800585402E-01  0.49588798443E-01 -0.20619600646E-01  0.83396598734E-01  0.51100000000E-03 0. -1.
         11    1    4    4    0    0 -0.27426657363E-01  0.35553867118E-01 -0.21544399662E-01  0.49806839680E-01  0.51100000000E-03 0.  1.
</event>
<event>
 8    1  0.1112958E+005  0.1043930E+01  0.7957747E-01            NaN
         13   -1    0    0    0    0  0.00000000000E+00  0.00000000000E+00  0.74505805969E-08  0.10566000000E+00  0.10566000000E+00 0. -1.
     999900   -1    0    0    0    0 -0.00000000000E+00 -0.00000000000E+00 -0.74505805969E-08  0.93827000000E+00  0.93827000000E+00 0.  1.
     999902    2    1    2    0    0 -0.39543950257E-02 -0.15810111247E-01 -0.15044968714E-01  0.10217501005E+01  0.10215093342E+01 0.  0.
     999903    2    3    3    0    0  0.82147968743E-01 -0.33487560330E-01  0.93852786757E-01  0.13069183620E+00  0.20057542269E-01 0.  0.
         14    1    1    2    0    0  0.39543950257E-02  0.15810111247E-01  0.15044968714E-01  0.22179899487E-01  0.00000000000E+00 0. -1.
     999901    1    3    3    0    0 -0.86102363769E-01  0.17677449083E-01 -0.10889775547E+00  0.89105826431E+00  0.88000000000E+00 0.  1.
        -11    1    4    4    0    0  0.47899942877E-01 -0.19271169231E-01  0.68450962562E-01  0.85741342932E-01  0.51100000000E-03 0. -1.
         11    1    4    4    0    0  0.34248025866E-01 -0.14216391099E-01  0.25401824195E-01  0.44950493268E-01  0.51100000000E-03 0.  1.
</event>
<event>
 8    1  0.1112958E+005  0.1043930E+01  0.7957747E-01            NaN
         13   -1    0    0    0    0  0.00000000000E+00  0.00000000000E+00  0.74505805969E-08  0.10566000000E+00  0.10566000000E+00 0.  1.
     999900   -1    0    0    0    0 -0.00000000000E+00 -0.00000000000E+00 -0.74505805969E-08  0.93827000000E+00  0.93827000000E+00 0.  1.
     999902    2    1    2    0    0  0.96073313621E-02  0.18513266404E-01  0.33178056637E-02  0.10228101117E+01  0.10225920373E+01 0.  0.
     999903    2    3    3    0    0  0.10916416008E+00 -0.37281119838E-01  0.63818678439E-01  0.13338055780E+00  0.20269527387E-01 0.  0.
         14    1    1    2    0    0 -0.96073313621E-02 -0.18513266404E-01 -0.33178056637E-02  0.21119888335E-01  0.00000000000E+00 0.  1.
     999901    1    3    3    0    0 -0.99556828714E-01  0.55794386241E-01 -0.60500872775E-01  0.88942955386E+00  0.88000000000E+00 0.  1.
        -11    1    4    4    0    0  0.19496646849E-01 -0.15134971168E-02  0.17741011318E-01  0.26408606845E-01  0.51100000000E-03 0.  1.
         11    1    4    4    0    0  0.89667513226E-01 -0.35767622721E-01  0.46077667121E-01  0.10697195096E+00  0.51100000000E-03 0. -1.
</event>
<event>
 8    1  0.1112958E+005  0.1043930E+01  0.7957747E-01            NaN
         13   -1    0    0    0    0  0.00000000000E+00  0.00000000000E+00  0.74505805969E-08  0.10566000000E+00  0.10566000000E+00 0. -1.
     999900   -1    0    0    0    0 -0.00000000000E+00 -0.00000000000E+00 -0.74505805969E-08  0.93827000000E+00  0.93827000000E+00 0.  1.
     999902    2    1    2    0    0 -0.52511572719E-02 -0.22565966223E-01 -0.32782084170E-02  0.10205303390E+01  0.10202620392E+01 0.  0.
     999903    2    3    3    0    0  0.83830645761E-01 -0.24804560132E-01  0.94867884599E-01  0.13060155842E+00  0.20347190518E-01 0.  0.
         14    1    1    2    0    0  0.52511572719E-02  0.22565966223E-01  0.32782084170E-02  0.23399660996E-01  0.00000000000E+00 0.  1.
     999901    1    3    3    0    0 -0.89081803033E-01  0.22385939084E-02 -0.98146093016E-01  0.88992878058E+00  0.88000000000E+00 0.  1.
        -11    1    4    4    0    0  0.35447841230E-01 -0.20539432337E-01  0.47929026280E-01  0.63054503485E-01  0.51100000000E-03 0.  1.
         11    1    4    4    0    0  0.48382804531E-01 -0.42651277947E-02  0.46938858319E-01  0.67547054938E-01  0.51100000000E-03 0. -1.
</event>
<event>
 8    1  0.1112958E+005  0.1043930E+01  0.7957747E-01            NaN
         13   -1    0    0    0    0  0.00000000000E+00  0.00000000000E+00  0.74505805969E-08  0.10566000000E+00  0.10566000000E+00 0.  1.
     999900   -1    0    0    0    0 -0.00000000000E+00 -0.00000000000E+00 -0.74505805969E-08  0.93827000000E+00  0.93827000000E+00 0. -1.
     999902    2    1    2    0    0  0.11005242040E-01 -0.16185202477E-01  0.42057971614E-02  0.10239108876E+01  0.10237151659E+01 0.  0.
     999903    2    3    3    0    0 -0.85698582765E-02  0.13418547562E-01 -0.13058298423E+00  0.13294086445E+00  0.19179618868E-01 0.  0.
         14    1    1    2    0    0 -0.11005242040E-01  0.16185202477E-01 -0.42057971614E-02  0.20019112401E-01  0.00000000000E+00 0. -1.
     999901    1    3    3    0    0  0.19575100317E-01 -0.29603750039E-01  0.13478878139E+00  0.89097002315E+00  0.88000000000E+00 0.  1.
        -11    1    4    4    0    0 -0.19359539088E-02 -0.46029181645E-02 -0.41992890440E-01  0.42291828309E-01  0.51100000000E-03 0.  1.
         11    1    4    4    0    0 -0.66339043677E-02  0.18021465727E-01 -0.88590093789E-01  0.90649036137E-01  0.51100000000E-03 0. -1.
</event>
<event>
 8    1  0.1112958E+005  0.1043930E+01  0.7957747E-01            NaN
         13   -1    0    0    0    0  0.00000000000E+00  0.00000000000E+00  0.74505805969E-08  0.10566000000E+00  0.10566000000E+00 0.  1.
     999900   -1    0    0    0    0 -0.00000000000E+00 -0.00000000000E+00 -0.74505805969E-08  0.93827000000E+00  0.93827000000E+00 0.  1.
     999902    2    1    2    0    0  0.15581937763E-01  0.14368489757E-01 -0.95100432124E-02  0.10206987451E+01  0.10204343374E+01 0.  0.
     999903    2    3    3    0    0 -0.42938869512E-01  0.12280826740E+00 -0.12639187548E-01  0.13210791586E+00  0.19160775447E-01 0.  0.
         14    1    1    2    0    0 -0.15581937763E-01 -0.14368489757E-01  0.95100432124E-02  0.23231254900E-01  0.00000000000E+00 0.  1.
     999901    1    3    3    0    0  0.58520807275E-01 -0.10843977764E+00  0.31291443355E-02  0.88859082924E+00  0.88000000000E+00 0.  1.
        -11    1    4    4    0    0 -0.32668312648E-01  0.10468836332E+00 -0.45639554452E-02  0.10976321277E+00  0.51100000000E-03 0. -1.
         11    1    4    4    0    0 -0.10270556865E-01  0.18119904075E-01 -0.80752321028E-02  0.22344703097E-01  0.51100000000E-03 0.  1.
</event>
<event>
 8    1  0.1112958E+005  0.1043930E+01  0.7957747E-01            NaN
         13   -1    0    0    0    0  0.00000000000E+00  0.00000000000E+00  0.74505805969E-08  0.10566000000E+00  0.10566000000E+00 0. -1.
     999900   -1    0    0    0    0 -0.00000000000E+00 -0.00000000000E+00 -0.74505805969E-08  0.93827000000E+00  0.93827000000E+00 0.  1.
     999902    2    1    2    0    0  0.29201645740E-02  0.14050477895E-02  0.23001340565E-01  0.10207015005E+01  0.10204371563E+01 0.  0.
     999903    2    3    3    0    0 -0.45893128179E-01  0.54258873799E-01 -0.10328483660E+00  0.12877971974E+00  0.29432195727E-01 0.  0.
         14    1    1    2    0    0 -0.29201645740E-02 -0.14050477895E-02 -0.23001340565E-01  0.23228499482E-01  0.00000000000E+00 0.  1.
     999901    1    3    3    0    0  0.48813292753E-01 -0.52853826010E-01  0.12628617717E+00  0.89192178077E+00  0.88000000000E+00 0. -1.
        -11    1    4    4    0    0 -0.19328832506E-01  0.36709680690E-01 -0.38540171630E-01  0.56628706260E-01  0.51100000000E-03 0.  1.
         11    1    4    4    0    0 -0.26564295673E-01  0.17549193110E-01 -0.64744664973E-01  0.72151013485E-01  0.51100000000E-03 0. -1.
</event>
<event>
 8    1  0.1112958E+005  0.1043930E+01  0.7957747E-01            NaN
         13   -1    0    0    0    0  0.00000000000E+00  0.00000000000E+00  0.74505805969E-08  0.10566000000E+00  0.10566000000E+00 0.  1.
     999900   -1    0    0    0    0 -0.00000000000E+00 -0.00000000000E+00 -0.74505805969E-08  0.93827000000E+00  0.93827000000E+00 0.  1.
     999902    2    1    2    0    0  0.56031921498E-03 -0.20876794035E-01 -0.82772072026E-02  0.10214652132E+01  0.10212181526E+01 0.  0.
     999903    2    3    3    0    0  0.20969093255E-01  0.22014601804E-02 -0.13064190420E+00  0.13246451413E+00  0.59153253147E-02 0.  0.
         14    1    1    2    0    0 -0.56031921498E-03  0.20876794035E-01  0.82772072026E-02  0.22464786798E-01  0.00000000000E+00 0.  1.
     999901    1    3    3    0    0 -0.20408774040E-01 -0.23078254216E-01  0.12236469699E+00  0.88900069907E+00  0.88000000000E+00 0. -1.
        -11    1    4    4    0    0  0.13115917591E-01 -0.31262942719E-03 -0.65687561309E-01  0.66986878291E-01  0.51100000000E-03 0. -1.
         11    1    4    4    0    0  0.78531756641E-02  0.25140896076E-02 -0.64954342887E-01  0.65477635842E-01  0.51100000000E-03 0.  1.
</event>
<event>
 8    1  0.1112958E+005  0.1043930E+01  0.7957747E-01            NaN
         13   -1    0    0    0    0  0.00000000000E+00  0.00000000000E+00  0.74505805969E-08  0.10566000000E+00  0.10566000000E+00 0.  1.
     999900   -1    0    0    0    0 -0.00000000000E+00 -0.00000000000E+00 -0.74505805969E-08  0.93827000000E+00  0.93827000000E+00 0.  1.
     999902    2    1    2    0    0  0.75901202732E-02  0.54217985712E-02 -0.22857452689E-01  0.10192425747E+01  0.10189435495E+01 0.  0.
     999903    2    3    3    0    0  0.12372642971E+00 -0.17105877648E-02  0.33664634566E-01  0.12978585305E+00  0.19997612693E-01 0.  0.
         14    1    1    2    0    0 -0.75901202732E-02 -0.54217985712E-02  0.22857452689E-01  0.24687425320E-01  0.00000000000E+00 0.  1.
     999901    1    3    3    0    0 -0.11613630943E+00  0.71323863360E-02 -0.56522087255E-01  0.88945672163E+00  0.88000000000E+00 0.  1.
        -11    1    4    4    0    0  0.87878910386E-01  0.53162178659E-02  0.17161762585E-01  0.89698117478E-01  0.51100000000E-03 0.  1.
         11    1    4    4    0    0  0.35847519320E-01 -0.70268056307E-02  0.16502871981E-01  0.40087735573E-01  0.51100000000E-03 0. -1.
</event>
<event>
 8    1  0.1112958E+005  0.1043930E+01  0.7957747E-01            NaN
         13   -1    0    0    0    0  0.00000000000E+00  0.00000000000E+00  0.74505805969E-08  0.10566000000E+00  0.10566000000E+00 0. -1.
     999900   -1    0    0    0    0 -0.00000000000E+00 -0.00000000000E+00 -0.74505805969E-08  0.93827000000E+00  0.93827000000E+00 0. -1.
     999902    2    1    2    0    0 -0.25628882609E-01  0.16858461796E-02 -0.26106995787E-02  0.10181133880E+01  0.10177860155E+01 0.  0.
     999903    2    3    3    0    0 -0.46636401245E-01  0.11945823716E+00 -0.61190769004E-02  0.13001206463E+00  0.20505352974E-01 0.  0.
         14    1    1    2    0    0  0.25628882609E-01 -0.16858461796E-02  0.26106995787E-02  0.25816611966E-01  0.00000000000E+00 0. -1.
     999901    1    3    3    0    0  0.21007518636E-01 -0.11777239098E+00  0.35083773218E-02  0.88810132340E+00  0.88000000000E+00 0.  1.
        -11    1    4    4    0    0 -0.23282790680E-01  0.35234232397E-01  0.16254930601E-02  0.42266332029E-01  0.51100000000E-03 0.  1.
         11    1    4    4    0    0 -0.23353610565E-01  0.84224004766E-01 -0.77445699606E-02  0.87745732603E-01  0.51100000000E-03 0. -1.
</event>
<event>
 8    1  0.1112958E+005  0.1043930E+01  0.7957747E-01            NaN
         13   -1    0    0    0    0  0.00000000000E+00  0.00000000000E+00  0.74505805969E-08  0.10566000000E+00  0.10566000000E+00 0. -1.
     999900   -1    0    0    0    0 -0.00000000000E+00 -0.00000000000E+00 -0.74505805969E-08  0.93827000000E+00  0.93827000000E+00 0. -1.
     999902    2    1    2    0    0  0.83933155837E-02 -0.21041996059E-01 -0.81690875787E-02  0.10198479042E+01  0.10195635343E+01 0.  0.
     999903    2    3    3    0    0  0.88784355005E-01  0.85302098429E-01  0.32370498539E-01  0.12888480528E+00  0.20108062233E-01 0.  0.
         14    1    1    2    0    0 -0.83933155837E-02  0.21041996059E-01  0.81690875787E-02  0.24082095766E-01  0.00000000000E+00 0.  1.
     999901    1    3    3    0    0 -0.80391039422E-01 -0.10634409449E+00 -0.40539586118E-01  0.89096309895E+00  0.88000000000E+00 0. -1.
        -11    1    4    4    0    0  0.41207239980E-01  0.27185403221E-01  0.17036599921E-01  0.52226330839E-01  0.51100000000E-03 0.  1.
         11    1    4    4    0    0  0.47577115026E-01  0.58116695208E-01  0.15333898618E-01  0.76658474443E-01  0.51100000000E-03 0. -1.
</event>
<event>
 8    1  0.1112958E+005  0.1043930E+01  0.7957747E-01            NaN
         13   -1    0    0    0    0  0.00000000000E+00  0.00000000000E+00  0.74505805969E-08  0.10566000000E+00  0.10566000000E+00 0. -1.
     999900   -1    0    0    0    0 -0.00000000000E+00 -0.00000000000E+00 -0.74505805969E-08  0.93827000000E+00  0.93827000000E+00 0.  1.
     999902    2    1    2    0    0 -0.10910824532E-01 -0.21419890453E-01  0.65555407822E-02  0.10190134811E+01  0.10187088111E+01 0.  0.
     999903    2    3    3    0    0 -0.65290425846E-03 -0.87021551880E-01 -0.95370106463E-01  0.13064551653E+00  0.19990422892E-01 0.  0.
         14    1    1    2    0    0  0.10910824532E-01  0.21419890453E-01 -0.65555407822E-02  0.24916518897E-01  0.00000000000E+00 0.  1.
     999901    1    3    3    0    0 -0.10257920273E-01  0.65601661427E-01  0.10192564725E+00  0.88836796457E+00  0.88000000000E+00 0. -1.
        -11    1    4    4    0    0  0.16582426056E-02 -0.58994662912E-03 -0.60896231877E-02  0.63594368565E-02  0.51100000000E-03 0. -1.
         11    1    4    4    0    0 -0.23111468641E-02 -0.86431605251E-01 -0.89280483276E-01  0.12428607968E+00  0.51100000000E-03 0.  1.
</event>
<event>
 8    1  0.1112958E+005  0.1043930E+01  0.7957747E-01            NaN
         13   -1    0    0    0    0  0.00000000000E+00  0.00000000000E+00  0.74505805969E-08  0.10566000000E+00  0.10566000000E+00 0. -1.
     999900   -1    0    0    0    0 -0.00000000000E+00 -0.00000000000E+00 -0.74505805969E-08  0.93827000000E+00  0.93827000000E+00 0. -1.
     999902    2    1    2    0    0 -0.22519389961E-01  0.38586975693E-02  0.51580320865E-02  0.10205074091E+01  0.10202385771E+01 0.  0.
     999903    2    3    3    0    0  0.10813619008E+00  0.77054928299E-04  0.67494127315E-01  0.12867167857E+00  0.17535737853E-01 0.  0.
         14    1    1    2    0    0  0.22519389961E-01 -0.38586975693E-02 -0.51580320865E-02  0.23422590936E-01  0.00000000000E+00 0.  1.
     999901    1    3    3    0    0 -0.13065558004E+00  0.37816426410E-02 -0.62336095228E-01  0.89183573049E+00  0.88000000000E+00 0. -1.
        -11    1    4    4    0    0  0.75602115819E-01  0.52758113452E-02  0.39656748180E-01  0.85536149661E-01  0.51100000000E-03 0.  1.
         11    1    4    4    0    0  0.32534074259E-01 -0.51987564169E-02  0.27837379134E-01  0.43135528909E-01  0.51100000000E-03 0. -1.
</event>
<event>
 8    1  0.1112958E+005  0.1043930E+01  0.7957747E-01            NaN
         13   -1    0    0    0    0  0.00000000000E+00  0.00000000000E+00  0.74505805969E-08  0.10566000000E+00  0.10566000000E+00 0.  1.
     999900   -1    0    0    0    0 -0.00000000000E+00 -0.00000000000E+00 -0.74505805969E-08  0.93827000000E+00  0.93827000000E+00 0. -1.
     999902    2    1    2    0    0 -0.70839535189E-02  0.19290294378E-01 -0.93753328487E-02  0.10213425096E+01  0.10210927124E+01 0.  0.
     999903    2    3    3    0    0  0.15523292027E-02 -0.45900611267E-01  0.11947516294E+00  0.12953149277E+00  0.19870008032E-01 0.  0.
         14    1    1    2    0    0  0.70839535189E-02 -0.19290294378E-01  0.93753328487E-02  0.22587490358E-01  0.00000000000E+00 0.  1.
     999901    1    3    3    0    0 -0.86362827216E-02  0.65190905644E-01 -0.12885049578E+00  0.89181101688E+00  0.88000000000E+00 0. -1.
        -11    1    4    4    0    0  0.33112645409E-02 -0.37538114223E-01  0.71760523361E-01  0.81054971016E-01  0.51100000000E-03 0. -1.
         11    1    4    4    0    0 -0.17589353382E-02 -0.83624970433E-02  0.47714639574E-01  0.48476521750E-01  0.51100000000E-03 0.  1.
</event>
<event>
 8    1  0.1112958E+005  0.1043930E+01  0.7957747E-01            NaN
         13   -1    0    0    0    0  0.00000000000E+00  0.00000000000E+00  0.74505805969E-08  0.10566000000E+00  0.10566000000E+00 0.  1.
     999900   -1    0    0    0    0 -0.00000000000E+00 -0.00000000000E+00 -0.74505805969E-08  0.93827000000E+00  0.93827000000E+00 0. -1.
     999902    2    1    2    0    0  0.53120957916E-02  0.42092800828E-03 -0.24419919129E-01  0.10189354407E+01  0.10186288355E+01 0.  0.
     999903    2    3    3    0    0 -0.37938177430E-01  0.71461236236E-01 -0.10166232606E+00  0.13164535235E+00  0.21195675617E-01 0.  0.
         14    1    1    2    0    0 -0.53120957916E-02 -0.42092800828E-03  0.24419919129E-01  0.24994559255E-01  0.00000000000E+00 0.  1.
     999901    1    3    3    0    0  0.43250273222E-01 -0.71040308228E-01  0.77242406934E-01  0.88729008839E+00  0.88000000000E+00 0.  1.
        -11    1    4    4    0    0 -0.40158417759E-01  0.64332642194E-01 -0.95503677569E-01  0.12195327351E+00  0.51100000000E-03 0. -1.
         11    1    4    4    0    0  0.22202403288E-02  0.71285940423E-02 -0.61586484934E-02  0.96920788483E-02  0.51100000000E-03 0.  1.
</event>
<event>
 8    1  0.1112958E+005  0.1043930E+01  0.7957747E-01            NaN
         13   -1    0    0    0    0  0.00000000000E+00  0.00000000000E+00  0.74505805969E-08  0.10566000000E+00  0.10566000000E+00 0.  1.
     999900   -1    0    0    0    0 -0.00000000000E+00 -0.00000000000E+00 -0.74505805969E-08  0.93827000000E+00  0.93827000000E+00 0. -1.
     999902    2    1    2    0    0 -0.23375722982E-01 -0.75406735665E-02  0.11467615803E-01  0.10168229457E+01  0.10164615637E+01 0.  0.
     999903    2    3    3    0    0 -0.58150362380E-01  0.10536814004E+00 -0.37749903701E-01  0.12756480543E+00  0.19073929214E-01 0.  0.
         14    1    1    2    0    0  0.23375722982E-01  0.75406735665E-02 -0.11467615803E-01  0.27107054340E-01  0.00000000000E+00 0. -1.
     999901    1    3    3    0    0  0.34774639398E-01 -0.11290881360E+00  0.49217519504E-01  0.88925814023E+00  0.88000000000E+00 0.  1.
        -11    1    4    4    0    0 -0.27829499054E-01  0.36706216523E-01 -0.21156525494E-01  0.50692080654E-01  0.51100000000E-03 0. -1.
         11    1    4    4    0    0 -0.30320863326E-01  0.68661923515E-01 -0.16593378207E-01  0.76872724779E-01  0.51100000000E-03 0.  1.
</event>
<event>
 8    1  0.1112958E+005  0.1043930E+01  0.7957747E-01            NaN
         13   -1    0    0    0    0  0.00000000000E+00  0.00000000000E+00  0.74505805969E-08  0.10566000000E+00  0.10566000000E+00 0.  1.
     999900   -1    0    0    0    0 -0.00000000000E+00 -0.00000000000E+00 -0.74505805969E-08  0.93827000000E+00  0.93827000000E+00 0.  1.
     999902    2    1    2    0    0  0.62883403948E-02 -0.66374198664E-02  0.21185447149E-01  0.10208557343E+01  0.10205949287E+01 0.  0.
     999903    2    3    3    0    0 -0.33790384411E-01  0.10388589096E+00 -0.65177511558E-01  0.12884661603E+00  0.20476182012E-01 0.  0.
         14    1    1    2    0    0 -0.62883403948E-02  0.66374198664E-02 -0.21185447149E-01  0.23074265716E-01  0.00000000000E+00 0. -1.
     999901    1    3    3    0    0  0.40078724806E-01 -0.11052331082E+00  0.86362958708E-01  0.89200911826E+00  0.88000000000E+00 0.  1.
        -11    1    4    4    0    0 -0.24606218412E-01  0.79616076678E-01 -0.39085714355E-01  0.92044227618E-01  0.51100000000E-03 0.  1.
         11    1    4    4    0    0 -0.91841659987E-02  0.24269814280E-01 -0.26091797203E-01  0.36802388409E-01  0.51100000000E-03 0. -1.
</event>
<event>
 8    1  0.1169430E+005  0.1043930E+01  0.7957747E-01            NaN
         13   -1    0    0    0    0  0.00000000000E+00  0.00000000000E+00  0.74505805969E-08  0.10566000000E+00  0.10566000000E+00 0. -1.
     999900   -1    0    0    0    0 -0.00000000000E+00 -0.00000000000E+00 -0.74505805969E-08  0.93827000000E+00  0.93827000000E+00 0.  1.
     999902    2    1    2    0    0  0.76928153177E-02  0.21158168100E-01 -0.77396477296E-02  0.10201234960E+01  0.10198456734E+01 0.  0.
     999903    2    3    3    0    0  0.64070879360E-02  0.82183769385E-01 -0.10231267432E+00  0.13295393248E+00  0.20338193391E-01 0.  0.
         14    1    1    2    0    0 -0.76928153177E-02 -0.21158168100E-01  0.77396477296E-02  0.23806503982E-01  0.00000000000E+00 0. -1.
     999901    1    3    3    0    0  0.12857273817E-02 -0.61025601285E-01  0.94573026587E-01  0.88716956354E+00  0.88000000000E+00 0. -1.
        -11    1    4    4    0    0  0.53006939333E-02  0.17185120738E-01 -0.35117736988E-01  0.39458108205E-01  0.51100000000E-03 0.  1.
         11    1    4    4    0    0  0.11063940027E-02  0.64998648647E-01 -0.67194937329E-01  0.93495824277E-01  0.51100000000E-03 0. -1.
</event>
<event>
 8    1  0.1112958E+005  0.1043930E+01  0.7957747E-01            NaN
         13   -1    0    0    0    0  0.00000000000E+00  0.00000000000E+00  0.74505805969E-08  0.10566000000E+00  0.10566000000E+00 0. -1.
     999900   -1    0    0    0    0 -0.00000000000E+00 -0.00000000000E+00 -0.74505805969E-08  0.93827000000E+00  0.93827000000E+00 0. -1.
     999902    2    1    2    0    0  0.23305867286E-01  0.87855309767E-03  0.67141271874E-02  0.10196603727E+01  0.10193715029E+01 0.  0.
     999903    2    3    3    0    0 -0.12171615151E+00  0.31459856924E-01  0.20065733160E-02  0.12725420780E+00  0.19623020414E-01 0.  0.
         14    1    1    2    0    0 -0.23305867286E-01 -0.87855309767E-03 -0.67141271874E-02  0.24269627302E-01  0.00000000000E+00 0.  1.
     999901    1    3    3    0    0  0.14502201880E+00 -0.30581303827E-01  0.47075538714E-02  0.89240616490E+00  0.88000000000E+00 0.  1.
        -11    1    4    4    0    0 -0.94190364611E-01  0.32628448809E-01  0.16233801159E-02  0.99696223305E-01  0.51100000000E-03 0.  1.
         11    1    4    4    0    0 -0.27525786902E-01 -0.11685918843E-02  0.38319320010E-03  0.27557984498E-01  0.51100000000E-03 0. -1.
</event>
<event>
 8    1  0.1112958E+005  0.1043930E+01  0.7957747E-01            NaN
         13   -1    0    0    0    0  0.00000000000E+00  0.00000000000E+00  0.74505805969E-08  0.10566000000E+00  0.10566000000E+00 0.  1.
     999900   -1    0    0    0    0 -0.00000000000E+00 -0.00000000000E+00 -0.74505805969E-08  0.93827000000E+00  0.93827000000E+00 0.  1.
     999902    2    1    2    0    0 -0.20802536545E-02 -0.13532530177E-01 -0.24509762522E-01  0.10158553622E+01  0.10154673464E+01 0.  0.
     999903    2    3    3    0    0  0.68564445183E-02  0.11494456101E+00  0.41511266128E-01  0.12403418969E+00  0.20050737127E-01 0.  0.
         14    1    1    2    0    0  0.20802536545E-02  0.13532530177E-01  0.24509762522E-01  0.28074637792E-01  0.00000000000E+00 0.  1.
     999901    1    3    3    0    0 -0.89366981728E-02 -0.12847709118E+00 -0.66021028649E-01  0.89182117252E+00  0.88000000000E+00 0. -1.
        -11    1    4    4    0    0  0.25524824458E-02  0.18271109364E-01 -0.67508101783E-03  0.18467957640E-01  0.51100000000E-03 0.  1.
         11    1    4    4    0    0  0.43039620726E-02  0.96673451643E-01  0.42186347145E-01  0.10556623205E+00  0.51100000000E-03 0. -1.
</event>
<event>
 8    1  0.1112958E+005  0.1043930E+01  0.7957747E-01            NaN
         13   -1    0    0    0    0  0.00000000000E+00  0.00000000000E+00  0.74505805969E-08  0.10566000000E+00  0.10566000000E+00 0.  1.
     999900   -1    0    0    0    0 -0.00000000000E+00 -0.00000000000E+00 -0.74505805969E-08  0.93827000000E+00  0.93827000000E+00 0.  1.
     999902    2    1    2    0    0  0.15257434408E-01  0.18700689274E-01 -0.15496155289E-02  0.10197451619E+01  0.10194583311E+01 0.  0.
     999903    2    3    3    0    0 -0.87160466308E-01 -0.63877561910E-01  0.64663093026E-01  0.12750488223E+00  0.19972220445E-01 0.  0.
         14    1    1    2    0    0 -0.15257434408E-01 -0.18700689274E-01  0.15496155289E-02  0.24184838067E-01  0.00000000000E+00 0. -1.
     999901    1    3    3    0    0  0.10241790072E+00  0.82578251184E-01 -0.66212708555E-01  0.89224027971E+00  0.88000000000E+00 0.  1.
        -11    1    4    4    0    0 -0.23411797520E-01 -0.28501353329E-01  0.24255185411E-01  0.44147644841E-01  0.51100000000E-03 0.  1.
         11    1    4    4    0    0 -0.63748668788E-01 -0.35376208580E-01  0.40407907616E-01  0.83357237386E-01  0.51100000000E-03 0. -1.
</event>
<event>
 8    1  0.1112958E+005  0.1043930E+01  0.7957747E-01            NaN
         13   -1    0    0    0    0  0.00000000000E+00  0.00000000000E+00  0.74505805969E-08  0.10566000000E+00  0.10566000000E+00 0. -1.
     999900   -1    0    0    0    0 -0.00000000000E+00 -0.00000000000E+00 -0.74505805969E-08  0.93827000000E+00  0.93827000000E+00 0. -1.
     999902    2    1    2    0    0  0.39208045230E-02 -0.19844262502E-01 -0.21965947745E-01  0.10140691507E+01  0.10136294057E+01 0.  0.
     999903    2    3    3    0    0  0.95121094617E-01 -0.81126693249E-01  0.51718600762E-02  0.12682088223E+00  0.20669422712E-01 0.  0.
         14    1    1    2    0    0 -0.39208045230E-02  0.19844262502E-01  0.21965947745E-01  0.29860849329E-01  0.00000000000E+00 0. -1.
     999901    1    3    3    0    0 -0.91200290094E-01  0.61282430747E-01 -0.27137807821E-01  0.88724826844E+00  0.88000000000E+00 0. -1.
        -11    1    4    4    0    0  0.35448769510E-01 -0.24673453126E-01  0.10667255418E-01  0.44490965466E-01  0.51100000000E-03 0. -1.
         11    1    4    4    0    0  0.59672325107E-01 -0.56453240123E-01 -0.54953953416E-02  0.82329916768E-01  0.51100000000E-03 0.  1.
</event>
<event>
 8    1  0.1112958E+005  0.1043930E+01  0.7957747E-01            NaN
         13   -1    0    0    0    0  0.00000000000E+00  0.00000000000E+00  0.74505805969E-08  0.10566000000E+00  0.10566000000E+00 0.  1.
     999900   -1    0    0    0    0 -0.00000000000E+00 -0.00000000000E+00 -0.74505805969E-08  0.93827000000E+00  0.93827000000E+00 0.  1.
     999902    2    1    2    0    0  0.22240250330E-01  0.32054430956E-02  0.82270051540E-02  0.10200012053E+01  0.10197204870E+01 0.  0.
     999903    2    3    3    0    0  0.11623292842E+00 -0.52995759294E-01 -0.28713249885E-01  0.13244400655E+00  0.19957955769E-01 0.  0.
         14    1    1    2    0    0 -0.22240250330E-01 -0.32054430956E-02 -0.82270051540E-02  0.23928794662E-01  0.00000000000E+00 0. -1.
     999901    1    3    3    0    0 -0.93992678092E-01  0.56201202390E-01  0.36940255039E-01  0.88755719879E+00  0.88000000000E+00 0.  1.
        -11    1    4    4    0    0  0.67690371854E-01 -0.24895892238E-01 -0.24587723506E-01  0.76201109968E-01  0.51100000000E-03 0.  1.
         11    1    4    4    0    0  0.48542556567E-01 -0.28099867056E-01 -0.41255263787E-02  0.56242896579E-01  0.51100000000E-03 0. -1.
</event>
<event>
 8    1  0.1112958E+005  0.1043930E+01  0.7957747E-01            NaN
         13   -1    0    0    0    0  0.00000000000E+00  0.00000000000E+00  0.74505805969E-08  0.10566000000E+00  0.10566000000E+00 0.  1.
     999900   -1    0    0    0    0 -0.00000000000E+00 -0.00000000000E+00 -0.74505805969E-08  0.93827000000E+00  0.93827000000E+00 0.  1.
     999902    2    1    2    0    0 -0.18926226114E-01 -0.15241121333E-02  0.14650685727E-01  0.10199473491E+01  0.10196653507E+01 0.  0.
     999903    2    3    3    0    0 -0.94127441200E-01 -0.24368153258E-01 -0.85206939476E-01  0.13081933902E+00  0.19992369725E-01 0.  0.
         14    1    1    2    0    0  0.18926226114E-01  0.15241121333E-02 -0.14650685727E-01  0.23982650917E-01  0.00000000000E+00 0. -1.
     999901    1    3    3    0    0  0.75201215085E-01  0.22844041124E-01  0.99857625203E-01  0.88912801006E+00  0.88000000000E+00 0. -1.
        -11    1    4    4    0    0 -0.59687764717E-01 -0.76584851049E-02 -0.43828150340E-01  0.74447629474E-01  0.51100000000E-03 0. -1.
         11    1    4    4    0    0 -0.34439676483E-01 -0.16709668153E-01 -0.41378789136E-01  0.56371709548E-01  0.51100000000E-03 0.  1.
</event>
<event>
 8    1  0.1112958E+005  0.1043930E+01  0.7957747E-01            NaN
         13   -1    0    0    0    0  0.00000000000E+00  0.00000000000E+00  0.74505805969E-08  0.10566000000E+00  0.10566000000E+00 0.  1.
     999900   -1    0    0    0    0 -0.00000000000E+00 -0.00000000000E+00 -0.74505805969E-08  0.93827000000E+00  0.93827000000E+00 0.  1.
     999902    2    1    2    0    0 -0.10778512844E-01 -0.18289870450E-01 -0.18061470138E-01  0.10160568516E+01  0.10156744622E+01 0.  0.
     999903    2    3    3    0    0  0.77499141723E-01 -0.64807914950E-02  0.94922796340E-01  0.12437426055E+00  0.20260843928E-01 0.  0.
         14    1    1    2    0    0  0.10778512844E-01  0.18289870450E-01  0.18061470138E-01  0.27873148436E-01  0.00000000000E+00 0.  1.
     999901    1    3    3    0    0 -0.88277654566E-01 -0.11809078955E-01 -0.11298426648E+00  0.89168259101E+00  0.88000000000E+00 0.  1.
        -11    1    4    4    0    0  0.32039190813E-01  0.58929470547E-02  0.46819212911E-01  0.57039779028E-01  0.51100000000E-03 0. -1.
         11    1    4    4    0    0  0.45459950909E-01 -0.12373738550E-01  0.48103583429E-01  0.67334481524E-01  0.51100000000E-03 0.  1.
</event>
<event>
 8    1  0.1112958E+005  0.1043930E+01  0.7957747E-01            NaN
         13   -1    0    0    0    0  0.00000000000E+00  0.00000000000E+00  0.74505805969E-08  0.10566000000E+00  0.10566000000E+00 0. -1.
     999900   -1    0    0    0    0 -0.00000000000E+00 -0.00000000000E+00 -0.74505805969E-08  0.93827000000E+00  0.93827000000E+00 0.  1.
     999902    2    1    2    0    0  0.31782273431E-03  0.22531254470E-01 -0.84182103233E-02  0.10198753808E+01  0.10195916671E+01 0.  0.
     999903    2    3    3    0    0 -0.12648252858E-01 -0.32024822349E-01  0.12205964139E+00  0.12848940694E+00  0.20625326435E-01 0.  0.
         14    1    1    2    0    0 -0.31782273431E-03 -0.22531254470E-01  0.84182103233E-02  0.24054619189E-01  0.00000000000E+00 0. -1.
     999901    1    3    3    0    0  0.12966075592E-01  0.54556076819E-01 -0.13047785172E+00  0.89138597388E+00  0.88000000000E+00 0.  1.
        -11    1    4    4    0    0  0.49634353742E-02 -0.21091957615E-02  0.16818862430E-01  0.17669738309E-01  0.51100000000E-03 0. -1.
         11    1    4    4    0    0 -0.17611688232E-01 -0.29915626587E-01  0.10524077896E+00  0.11081966863E+00  0.51100000000E-03 0.  1.
</event>
<event>
 8    1  0.1112958E+005  0.1043930E+01  0.7957747E-01            NaN
         13   -1    0    0    0    0  0.00000000000E+00  0.00000000000E+00  0.74505805969E-08  0.10566000000E+00  0.10566000000E+00 0.  1.
     999900   -1    0    0    0    0 -0.00000000000E+00 -0.00000000000E+00 -0.74505805969E-08  0.93827000000E+00  0.93827000000E+00 0.  1.
     999902    2    1    2    0    0 -0.10238588661E-01  0.98382563646E-02 -0.19291262340E-01  0.10199764452E+01  0.10196951387E+01 0.  0.
     999903    2    3    3    0    0 -0.11543634882E+00 -0.45001449464E-01 -0.40354229838E-01  0.13176610371E+00  0.19574502287E-01 0.  0.
         14    1    1    2    0    0  0.10238588661E-01 -0.98382563646E-02  0.19291262340E-01  0.23953554825E-01  0.00000000000E+00 0.  1.
     999901    1    3    3    0    0  0.10519776016E+00  0.54839705829E-01  0.21062967497E-01  0.88821034146E+00  0.88000000000E+00 0. -1.
        -11    1    4    4    0    0 -0.49304090293E-01 -0.20620377488E-01 -0.27547986723E-01  0.60126915610E-01  0.51100000000E-03 0. -1.
         11    1    4    4    0    0 -0.66132258526E-01 -0.24381071976E-01 -0.12806243115E-01  0.71639188104E-01  0.51100000000E-03 0.  1.
</event>
<event>
 8    1  0.1112958E+005  0.1043930E+01  0.7957747E-01            NaN
         13   -1    0    0    0    0  0.00000000000E+00  0.00000000000E+00  0.74505805969E-08  0.10566000000E+00  0.10566000000E+00 0. -1.
     999900   -1    0    0    0    0 -0.00000000000E+00 -0.00000000000E+00 -0.74505805969E-08  0.93827000000E+00  0.93827000000E+00 0.  1.
     999902    2    1    2    0    0 -0.28116970635E-02 -0.22753553425E-01  0.69465542545E-02  0.10199741145E+01  0.10196927527E+01 0.  0.
     999903    2    3    3    0    0 -0.10329616375E+00  0.33994352246E-01  0.68850048451E-01  0.13028344049E+00  0.20192381288E-01 0.  0.
         14    1    1    2    0    0  0.28116970635E-02  0.22753553425E-01 -0.69465542545E-02  0.23955885495E-01  0.00000000000E+00 0.  1.
     999901    1    3    3    0    0  0.10048446669E+00 -0.56747905671E-01 -0.61903494196E-01  0.88969067402E+00  0.88000000000E+00 0.  1.
        -11    1    4    4    0    0 -0.43938341472E-01  0.90257785128E-02  0.38400081811E-01  0.59049724243E-01  0.51100000000E-03 0.  1.
         11    1    4    4    0    0 -0.59357822282E-01  0.24968573733E-01  0.30449966640E-01  0.71233716242E-01  0.51100000000E-03 0. -1.
</event>
<event>
 8    1  0.1112958E+005  0.1043930E+01  0.7957747E-01            NaN
         13   -1    0    0    0    0  0.00000000000E+00  0.00000000000E+00  0.74505805969E-08  0.10566000000E+00  0.10566000000E+00 0. -1.
     999900   -1    0    0    0    0 -0.00000000000E+00 -0.00000000000E+00 -0.74505805969E-08  0.93827000000E+00  0.93827000000E+00 0.  1.
     999902    2    1    2    0    0 -0.61638561267E-02  0.84323383906E-02  0.21653979279E-01  0.10198885302E+01  0.10196051303E+01 0.  0.
     999903    2    3    3    0    0 -0.67761744439E-01  0.11102204921E+00 -0.22275236699E-02  0.13146899257E+00  0.19015381281E-01 0.  0.
         14    1    1    2    0    0  0.61638561267E-02 -0.84323383906E-02 -0.21653979279E-01  0.24041469832E-01  0.00000000000E+00 0.  1.
     999901    1    3    3    0    0  0.61597888312E-01 -0.10258971082E+00  0.23881502948E-01  0.88841953760E+00  0.88000000000E+00 0. -1.
        -11    1    4    4    0    0 -0.12269238203E-01  0.88283194368E-02 -0.12484584472E-02  0.15175414316E-01  0.51100000000E-03 0.  1.
         11    1    4    4    0    0 -0.55492506236E-01  0.10219372977E+00 -0.97906522276E-03  0.11629357825E+00  0.51100000000E-03 0. -1.
</event>
<event>
 8    1  0.1112958E+005  0.1043930E+01  0.7957747E-01            NaN
         13   -1    0    0    0    0  0.00000000000E+00  0.00000000000E+00  0.74505805969E-08  0.10566000000E+00  0.10566000000E+00 0.  1.
     999900   -1    0    0    0    0 -0.00000000000E+00 -0.00000000000E+00 -0.74505805969E-08  0.93827000000E+00  0.93827000000E+00 0. -1.
     999902    2    1    2    0    0  0.22560968957E-01  0.75330439336E-02  0.17565553111E-02  0.10200798520E+01  0.10198009977E+01 0.  0.
     999903    2    3    3    0    0  0.81172577094E-03  0.41638932960E-01 -0.12224539043E+00  0.13046604606E+00  0.18520098718E-01 0.  0.
         14    1    1    2    0    0 -0.22560968957E-01 -0.75330439336E-02 -0.17565553111E-02  0.23850147961E-01  0.00000000000E+00 0.  1.
     999901    1    3    3    0    0  0.21749243186E-01 -0.34105889026E-01  0.12400194574E+00  0.88961380598E+00  0.88000000000E+00 0.  1.
        -11    1    4    4    0    0  0.75069515660E-02  0.22100644757E-01 -0.47642008035E-01  0.53054828914E-01  0.51100000000E-03 0. -1.
         11    1    4    4    0    0 -0.66952257951E-02  0.19538288203E-01 -0.74603382392E-01  0.77411217144E-01  0.51100000000E-03 0.  1.
</event>
<event>
 8    1  0.1112958E+005  0.1043930E+01  0.7957747E-01            NaN
         13   -1    0    0    0    0  0.00000000000E+00  0.00000000000E+00  0.74505805969E-08  0.10566000000E+00  0.10566000000E+00 0. -1.
     999900   -1    0    0    0    0 -0.00000000000E+00 -0.00000000000E+00 -0.74505805969E-08  0.93827000000E+00  0.93827000000E+00 0. -1.
     999902    2    1    2    0    0  0.14453509534E-01 -0.16036075212E-01 -0.11362364889E-01  0.10195340376E+01  0.10192421159E+01 0.  0.
     999903    2    3    3    0    0 -0.44052668664E-01  0.30923273009E-02 -0.12134844278E+00  0.13055383196E+00  0.19200478407E-01 0.  0.
         14    1    1    2    0    0 -0.14453509534E-01  0.16036075212E-01  0.11362364889E-01  0.24395962410E-01  0.00000000000E+00 0.  1.
     999901    1    3    3    0    0  0.58506178198E-01 -0.19128402512E-01  0.10998607789E+00  0.88898020563E+00  0.88000000000E+00 0.  1.
        -11    1    4    4    0    0 -0.67478060171E-02  0.71418435394E-02 -0.35981945418E-01  0.37302819360E-01  0.51100000000E-03 0.  1.
         11    1    4    4    0    0 -0.37304862647E-01 -0.40495162385E-02 -0.85366497359E-01  0.93251012601E-01  0.51100000000E-03 0. -1.
</event>
<event>
 7    1  0.1112958E+005  0.1043930E+01  0.7957747E-01            NaN
         13   -1    0    0    0    0  0.00000000000E+00  0.00000000000E+00  0.74505805969E-08  0.10566000000E+00  0.10566000000E+00 0. -1.
     999900   -1    0    0    0    0 -0.00000000000E+00 -0.00000000000E+00 -0.74505805969E-08  0.93827000000E+00  0.93827000000E+00 0. -1.
     999903    2    1    2    0    0 -0.10150968361E+00  0.48508982979E-01  0.29497569917E-01  0.11813148870E+00  0.20678604799E-01 0.  0.
         14    1    1    2    0    0  0.39459912820E-01  0.27532755040E-02  0.11442580265E-01  0.41177638214E-01  0.00000000000E+00 0. -1.
     999901    1    1    2    0    0  0.62049770786E-01 -0.51262258483E-01 -0.40940150182E-01  0.88462087308E+00  0.88000000000E+00 0. -1.
        -11    1    3    3    0    0 -0.81340994423E-01  0.29354932949E-01  0.24347503943E-01  0.89839476465E-01  0.51100000000E-03 0. -1.
         11    1    3    3    0    0 -0.20168689184E-01  0.19154050029E-01  0.51500659734E-02  0.28292012237E-01  0.51100000000E-03 0.  1.
</event>
<event>
 8    1  0.1112958E+005  0.1043930E+01  0.7957747E-01            NaN
         13   -1    0    0    0    0  0.00000000000E+00  0.00000000000E+00  0.74505805969E-08  0.10566000000E+00  0.10566000000E+00 0.  1.
     999900   -1    0    0    0    0 -0.00000000000E+00 -0.00000000000E+00 -0.74505805969E-08  0.93827000000E+00  0.93827000000E+00 0. -1.
     999902    2    1    2    0    0  0.70134871851E-02 -0.22327892506E-01 -0.49882133892E-03  0.10205211852E+01  0.10202526731E+01 0.  0.
     999903    2    3    3    0    0 -0.12544449446E+00  0.23697773792E-01  0.68533406023E-02  0.12938846047E+00  0.19912301500E-01 0.  0.
         14    1    1    2    0    0 -0.70134871851E-02  0.22327892506E-01  0.49882133892E-03  0.23408814771E-01  0.00000000000E+00 0.  1.
     999901    1    3    3    0    0  0.13245798165E+00 -0.46025666298E-01 -0.73521619412E-02  0.89113272476E+00  0.88000000000E+00 0. -1.
        -11    1    4    4    0    0 -0.29717471495E-01  0.14115324680E-01  0.39302697385E-02  0.33137269714E-01  0.51100000000E-03 0.  1.
         11    1    4    4    0    0 -0.95727022965E-01  0.95824491127E-02  0.29230708638E-02  0.96251190752E-01  0.51100000000E-03 0. -1.
</event>
<event>
 8    1  0.1112958E+005  0.1043930E+01  0.7957747E-01            NaN
         13   -1    0    0    0    0  0.00000000000E+00  0.00000000000E+00  0.74505805969E-08  0.10566000000E+00  0.10566000000E+00 0. -1.
     999900   -1    0    0    0    0 -0.00000000000E+00 -0.00000000000E+00 -0.74505805969E-08  0.93827000000E+00  0.93827000000E+00 0. -1.
     999902    2    1    2    0    0  0.18581158964E-01  0.60946725639E-02  0.11040623447E-01  0.10214733781E+01  0.10212264990E+01 0.  0.
     999903    2    3    3    0    0 -0.79979609015E-01  0.97002342605E-01 -0.28378495169E-01  0.13044459270E+00  0.20106229075E-01 0.  0.
         14    1    1    2    0    0 -0.18581158964E-01 -0.60946725639E-02 -0.11040623447E-01  0.22456621923E-01  0.00000000000E+00 0.  1.
     999901    1    3    3    0    0  0.98560767979E-01 -0.90907670041E-01  0.39419118616E-01  0.89102878538E+00  0.88000000000E+00 0.  1.
        -11    1    4    4    0    0 -0.22062041582E-01  0.41909790243E-01 -0.11638836397E-01  0.48773843715E-01  0.51100000000E-03 0. -1.
         11    1    4    4    0    0 -0.57917567433E-01  0.55092552362E-01 -0.16739658771E-01  0.81670748986E-01  0.51100000000E-03 0.  1.
</event>
<event>
 7    1  0.1244866E+005  0.1043930E+01  0.7957747E-01            NaN
         13   -1    0    0    0    0  0.00000000000E+00  0.00000000000E+00  0.74505805969E-08  0.10566000000E+00  0.10566000000E+00 0. -1.
     999900   -1    0    0    0    0 -0.00000000000E+00 -0.00000000000E+00 -0.74505805969E-08  0.93827000000E+00  0.93827000000E+00 0.  1.
     999903    2    1    2    0    0 -0.15611813924E-01  0.50895758771E-01  0.62957046896E-01  0.84540109562E-01  0.18690462170E-01 0.  0.
         14    1    1    2    0    0  0.42604539450E-01  0.34771681467E-01  0.41189640948E-01  0.68708100943E-01  0.00000000000E+00 0. -1.
     999901    1    1    2    0    0 -0.26992725526E-01 -0.85667440237E-01 -0.10414668784E+00  0.89068178949E+00  0.88000000000E+00 0. -1.
        -11    1    3    3    0    0 -0.15812811203E-01  0.20815071635E-01  0.25820416641E-01  0.36745982662E-01  0.51100000000E-03 0. -1.
         11    1    3    3    0    0  0.20099727840E-03  0.30080687136E-01  0.37136630255E-01  0.47794126900E-01  0.51100000000E-03 0.  1.
</event>
<event>
 8    1  0.1112958E+005  0.1043930E+01  0.7957747E-01            NaN
         13   -1    0    0    0    0  0.00000000000E+00  0.00000000000E+00  0.74505805969E-08  0.10566000000E+00  0.10566000000E+00 0. -1.
     999900   -1    0    0    0    0 -0.00000000000E+00 -0.00000000000E+00 -0.74505805969E-08  0.93827000000E+00  0.93827000000E+00 0.  1.
     999902    2    1    2    0    0  0.16003193848E-01 -0.63305150179E-02 -0.33898012045E-02  0.10263895215E+01  0.10262396316E+01 0.  0.
     999903    2    3    3    0    0  0.11825056338E+00  0.67047560620E-01 -0.27190544259E-02  0.13743546394E+00  0.20063458444E-01 0.  0.
         14    1    1    2    0    0 -0.16003193848E-01  0.63305150179E-02  0.33898012045E-02  0.17540478498E-01  0.00000000000E+00 0. -1.
     999901    1    3    3    0    0 -0.10224736954E+00 -0.73378075638E-01 -0.67074677860E-03  0.88895405757E+00  0.88000000000E+00 0.  1.
        -11    1    4    4    0    0  0.54032005702E-01  0.34133100861E-01  0.82497736843E-02  0.64442579879E-01  0.51100000000E-03 0.  1.
         11    1    4    4    0    0  0.64218557682E-01  0.32914459760E-01 -0.10968828110E-01  0.72992884058E-01  0.51100000000E-03 0. -1.
</event>
<event>
 8    1  0.1112958E+005  0.1043930E+01  0.7957747E-01            NaN
         13   -1    0    0    0    0  0.00000000000E+00  0.00000000000E+00  0.74505805969E-08  0.10566000000E+00  0.10566000000E+00 0. -1.
     999900   -1    0    0    0    0 -0.00000000000E+00 -0.00000000000E+00 -0.74505805969E-08  0.93827000000E+00  0.93827000000E+00 0.  1.
     999902    2    1    2    0    0  0.33245286150E-02  0.24960877729E-02  0.26630013911E-01  0.10169774382E+01  0.10166202188E+01 0.  0.
     999903    2    3    3    0    0  0.12312098646E+00 -0.23615360170E-01  0.19202070581E-01  0.12844596813E+00  0.20326944477E-01 0.  0.
         14    1    1    2    0    0 -0.33245286150E-02 -0.24960877729E-02 -0.26630013911E-01  0.26952561763E-01  0.00000000000E+00 0.  1.
     999901    1    3    3    0    0 -0.11979645784E+00  0.26111447943E-01  0.74279433307E-02  0.88853147011E+00  0.88000000000E+00 0.  1.
        -11    1    4    4    0    0  0.72294889318E-01 -0.10828514223E-01  0.20815047759E-01  0.76008782887E-01  0.51100000000E-03 0. -1.
         11    1    4    4    0    0  0.50826097142E-01 -0.12786845947E-01 -0.16129771780E-02  0.52437185244E-01  0.51100000000E-03 0.  1.
</event>
<event>
 8    1  0.1112958E+005  0.1043930E+01  0.7957747E-01            NaN
         13   -1    0    0    0    0  0.00000000000E+00  0.00000000000E+00  0.74505805969E-08  0.10566000000E+00  0.10566000000E+00 0. -1.
     999900   -1    0    0    0    0 -0.00000000000E+00 -0.00000000000E+00 -0.74505805969E-08  0.93827000000E+00  0.93827000000E+00 0.  1.
     999902    2    1    2    0    0  0.21896167679E-01  0.79589015414E-03 -0.10460578680E-01  0.10196503932E+01  0.10193612829E+01 0.  0.
     999903    2    3    3    0    0  0.76703033229E-01 -0.67730221705E-01  0.78999273937E-01  0.13077318810E+00  0.19748498767E-01 0.  0.
         14    1    1    2    0    0 -0.21896167679E-01 -0.79589015414E-03  0.10460578680E-01  0.24279606803E-01  0.00000000000E+00 0. -1.
     999901    1    3    3    0    0 -0.54806865550E-01  0.68526111859E-01 -0.89459852617E-01  0.88887720510E+00  0.88000000000E+00 0.  1.
        -11    1    4    4    0    0  0.19565579667E-01 -0.28729321795E-01  0.30937011484E-01  0.46535423486E-01  0.51100000000E-03 0.  1.
         11    1    4    4    0    0  0.57137453562E-01 -0.39000899911E-01  0.48062262453E-01  0.84237764610E-01  0.51100000000E-03 0. -1.
</event>
<event>
 8    1  0.1112958E+005  0.1043930E+01  0.7957747E-01            NaN
         13   -1    0    0    0    0  0.00000000000E+00  0.00000000000E+00  0.74505805969E-08  0.10566000000E+00  0.10566000000E+00 0.  1.
     999900   -1    0    0    0    0 -0.00000000000E+00 -0.00000000000E+00 -0.74505805969E-08  0.93827000000E+00  0.93827000000E+00 0. -1.
     999902    2    1    2    0    0 -0.92930880656E-02  0.14581535385E-01  0.19199643875E-01  0.10180918696E+01  0.10177639441E+01 0.  0.
     999903    2    3    3    0    0 -0.21899504597E-01 -0.37702380271E-01  0.12175530295E+00  0.13050514546E+00  0.17498040359E-01 0.  0.
         14    1    1    2    0    0  0.92930880656E-02 -0.14581535385E-01 -0.19199643875E-01  0.25838130445E-01  0.00000000000E+00 0. -1.
     999901    1    3    3    0    0  0.12606416532E-01  0.52283915655E-01 -0.10255565908E+00  0.88758672409E+00  0.88000000000E+00 0. -1.
        -11    1    4    4    0    0 -0.61153544792E-02 -0.24626073092E-01  0.81001202373E-01  0.84884020541E-01  0.51100000000E-03 0.  1.
         11    1    4    4    0    0 -0.15784150118E-01 -0.13076307178E-01  0.40754100577E-01  0.45621124922E-01  0.51100000000E-03 0. -1.
</event>
<event>
 8    1  0.1112958E+005  0.1043930E+01  0.7957747E-01            NaN
         13   -1    0    0    0    0  0.00000000000E+00  0.00000000000E+00  0.74505805969E-08  0.10566000000E+00  0.10566000000E+00 0.  1.
     999900   -1    0    0    0    0 -0.00000000000E+00 -0.00000000000E+00 -0.74505805969E-08  0.93827000000E+00  0.93827000000E+00 0. -1.
     999902    2    1    2    0    0  0.97350216958E-03 -0.21748702463E-01  0.97784106805E-02  0.10200643116E+01  0.10197850895E+01 0.  0.
     999903    2    3    3    0    0 -0.21673305173E-01  0.58874330556E-01  0.11228385717E+00  0.13016526237E+00  0.19985294380E-01 0.  0.
         14    1    1    2    0    0 -0.97350216958E-03  0.21748702463E-01 -0.97784106805E-02  0.23865688357E-01  0.00000000000E+00 0. -1.
     999901    1    3    3    0    0  0.22646807342E-01 -0.80623033020E-01 -0.10250544649E+00  0.88989904927E+00  0.88000000000E+00 0. -1.
        -11    1    4    4    0    0 -0.62649422676E-02  0.99192487336E-02  0.38753720308E-01  0.40493863186E-01  0.51100000000E-03 0. -1.
         11    1    4    4    0    0 -0.15408362905E-01  0.48955081823E-01  0.73530136862E-01  0.89671399184E-01  0.51100000000E-03 0.  1.
</event>
<event>
 8    1  0.1112958E+005  0.1043930E+01  0.7957747E-01            NaN
         13   -1    0    0    0    0  0.00000000000E+00  0.00000000000E+00  0.74505805969E-08  0.10566000000E+00  0.10566000000E+00 0.  1.
     999900   -1    0    0    0    0 -0.00000000000E+00 -0.00000000000E+00 -0.74505805969E-08  0.93827000000E+00  0.93827000000E+00 0.  1.
     999902    2    1    2    0    0  0.13749433321E-01 -0.19997109370E-01  0.35078430982E-02  0.10194098804E+01  0.10191149435E+01 0.  0.
     999903    2    3    3    0    0  0.40480275146E-01  0.44600166531E-01 -0.11236810980E+00  0.12906467637E+00  0.20081609868E-01 0.  0.
         14    1    1    2    0    0 -0.13749433321E-01  0.19997109370E-01 -0.35078430982E-02  0.24520119555E-01  0.00000000000E+00 0. -1.
     999901    1    3    3    0    0 -0.26730841825E-01 -0.64597275900E-01  0.11587595290E+00  0.89034520408E+00  0.88000000000E+00 0. -1.
        -11    1    4    4    0    0  0.18679397973E-01  0.28481983852E-01 -0.79250560189E-01  0.86261554149E-01  0.51100000000E-03 0. -1.
         11    1    4    4    0    0  0.21800877173E-01  0.16118182678E-01 -0.33117549615E-01  0.42803122221E-01  0.51100000000E-03 0.  1.
</event>
<event>
 8    1  0.1112958E+005  0.1043930E+01  0.7957747E-01            NaN
         13   -1    0    0    0    0  0.00000000000E+00  0.00000000000E+00  0.74505805969E-08  0.10566000000E+00  0.10566000000E+00 0. -1.
     999900   -1    0    0    0    0 -0.00000000000E+00 -0.00000000000E+00 -0.74505805969E-08  0.93827000000E+00  0.93827000000E+00 0.  1.
     999902    2    1    2    0    0  0.84745449919E-02  0.91629872139E-02  0.19454131862E-01  0.10208163353E+01  0.10205546281E+01 0.  0.
     999903    2    3    3    0    0 -0.11702455610E+00 -0.50203728648E-01  0.10803699190E-01  0.12989026584E+00  0.23229294957E-01 0.  0.
         14    1    1    2    0    0 -0.84745449919E-02 -0.91629872139E-02 -0.19454131862E-01  0.23113664660E-01  0.00000000000E+00 0.  1.
     999901    1    3    3    0    0  0.12549910109E+00  0.59366715862E-01  0.86504326726E-02  0.89092606950E+00  0.88000000000E+00 0. -1.
        -11    1    4    4    0    0 -0.96893469787E-01 -0.46536406281E-01  0.16243292265E-01  0.10871102640E+00  0.51100000000E-03 0.  1.
         11    1    4    4    0    0 -0.20131086310E-01 -0.36673223673E-02 -0.54395930753E-02  0.21179239439E-01  0.51100000000E-03 0. -1.
</event>
<event>
 8    1  0.1112958E+005  0.1043930E+01  0.7957747E-01            NaN
         13   -1    0    0    0    0  0.00000000000E+00  0.00000000000E+00  0.74505805969E-08  0.10566000000E+00  0.10566000000E+00 0. -1.
     999900   -1    0    0    0    0 -0.00000000000E+00 -0.00000000000E+00 -0.74505805969E-08  0.93827000000E+00  0.93827000000E+00 0.  1.
     999902    2    1    2    0    0  0.11860517616E-01  0.61403066727E-02  0.19839368065E-01  0.10200139851E+01  0.10197335701E+01 0.  0.
     999903    2    3    3    0    0 -0.92112905162E-01  0.79971503428E-01  0.42006658706E-01  0.13054621893E+00  0.19938085242E-01 0.  0.
         14    1    1    2    0    0 -0.11860517616E-01 -0.61403066727E-02 -0.19839368065E-01  0.23916014914E-01  0.00000000000E+00 0. -1.
     999901    1    3    3    0    0  0.10397342278E+00 -0.73831196755E-01 -0.22167290641E-01  0.88946776616E+00  0.88000000000E+00 0. -1.
        -11    1    4    4    0    0 -0.77798740306E-01  0.57367900980E-01  0.35763065784E-01  0.10306783228E+00  0.51100000000E-03 0.  1.
         11    1    4    4    0    0 -0.14314164856E-01  0.22603602448E-01  0.62435929215E-02  0.27478386647E-01  0.51100000000E-03 0. -1.
</event>
<event>
 8    1  0.1112958E+005  0.1043930E+01  0.7957747E-01            NaN
         13   -1    0    0    0    0  0.00000000000E+00  0.00000000000E+00  0.74505805969E-08  0.10566000000E+00  0.10566000000E+00 0. -1.
     999900   -1    0    0    0    0 -0.00000000000E+00 -0.00000000000E+00 -0.74505805969E-08  0.93827000000E+00  0.93827000000E+00 0.  1.
     999902    2    1    2    0    0 -0.11883504830E-01 -0.75060392967E-02 -0.19249091882E-01  0.10200954484E+01  0.10198169630E+01 0.  0.
     999903    2    3    3    0    0 -0.53214519527E-01 -0.11352533881E+00 -0.36424324942E-01  0.13260272543E+00  0.23172477267E-01 0.  0.
         14    1    1    2    0    0  0.11883504830E-01  0.75060392967E-02  0.19249091882E-01  0.23834551627E-01  0.00000000000E+00 0. -1.
     999901    1    3    3    0    0  0.41331014697E-01  0.10601929952E+00  0.17175233060E-01  0.88749272294E+00  0.88000000000E+00 0. -1.
        -11    1    4    4    0    0 -0.15038606119E-01 -0.35425521892E-01 -0.37089133157E-03  0.38490595692E-01  0.51100000000E-03 0.  1.
         11    1    4    4    0    0 -0.38175913408E-01 -0.78099816922E-01 -0.36053433611E-01  0.94112129739E-01  0.51100000000E-03 0. -1.
</event>
<event>
 8    1  0.1112958E+005  0.1043930E+01  0.7957747E-01            NaN
         13   -1    0    0    0    0  0.00000000000E+00  0.00000000000E+00  0.74505805969E-08  0.10566000000E+00  0.10566000000E+00 0. -1.
     999900   -1    0    0    0    0 -0.00000000000E+00 -0.00000000000E+00 -0.74505805969E-08  0.93827000000E+00  0.93827000000E+00 0. -1.
     999902    2    1    2    0    0 -0.11411289388E-01  0.22067702208E-01 -0.23982667929E-03  0.10190853120E+01  0.10187824177E+01 0.  0.
     999903    2    3    3    0    0  0.47843152231E-01  0.99170245506E-01 -0.68263245710E-01  0.13111961637E+00  0.20218265822E-01 0.  0.
         14    1    1    2    0    0  0.11411289388E-01 -0.22067702208E-01  0.23982667929E-03  0.24844688025E-01  0.00000000000E+00 0.  1.
     999901    1    3    3    0    0 -0.59254441619E-01 -0.77102543298E-01  0.68023419031E-01  0.88796569560E+00  0.88000000000E+00 0.  1.
        -11    1    4    4    0    0  0.30063764639E-01  0.47962900987E-01 -0.44151484983E-01  0.71790560400E-01  0.51100000000E-03 0. -1.
         11    1    4    4    0    0  0.17779387593E-01  0.51207344519E-01 -0.24111760727E-01  0.59329055970E-01  0.51100000000E-03 0.  1.
</event>
<event>
 8    1  0.1112958E+005  0.1043930E+01  0.7957747E-01            NaN
         13   -1    0    0    0    0  0.00000000000E+00  0.00000000000E+00  0.74505805969E-08  0.10566000000E+00  0.10566000000E+00 0.  1.
     999900   -1    0    0    0    0 -0.00000000000E+00 -0.00000000000E+00 -0.74505805969E-08  0.93827000000E+00  0.93827000000E+00 0.  1.
     999902    2    1    2    0    0 -0.10558869479E-01 -0.18005209008E-01 -0.12777897478E-01  0.10194565054E+01  0.10191627026E+01 0.  0.
     999903    2    3    3    0    0 -0.10848914254E+00  0.68597325015E-01 -0.68953772096E-02  0.12977963069E+00  0.17880695355E-01 0.  0.
         14    1    1    2    0    0  0.10558869479E-01  0.18005209008E-01  0.12777897478E-01  0.24473494643E-01  0.00000000000E+00 0.  1.
     999901    1    3    3    0    0  0.97930273058E-01 -0.86602534024E-01 -0.58825202686E-02  0.88967687467E+00  0.88000000000E+00 0.  1.
        -11    1    4    4    0    0 -0.29807238741E-01  0.10381103268E-01  0.99846068506E-03  0.31583173228E-01  0.51100000000E-03 0. -1.
         11    1    4    4    0    0 -0.78681903796E-01  0.58216221747E-01 -0.78938378947E-02  0.98196457457E-01  0.51100000000E-03 0.  1.
</event>
<event>
 8    1  0.1112958E+005  0.1043930E+01  0.7957747E-01            NaN
         13   -1    0    0    0    0  0.00000000000E+00  0.00000000000E+00  0.74505805969E-08  0.10566000000E+00  0.10566000000E+00 0. -1.
     999900   -1    0    0    0    0 -0.00000000000E+00 -0.00000000000E+00 -0.74505805969E-08  0.93827000000E+00  0.93827000000E+00 0.  1.
     999902    2    1    2    0    0  0.19947952644E-01  0.88546999337E-02 -0.92814284411E-02  0.10202135197E+01  0.10199378188E+01 0.  0.
     999903    2    3    3    0    0  0.83909565207E-01 -0.53078815755E-01  0.83223643461E-01  0.13089690755E+00  0.18698924069E-01 0.  0.
         14    1    1    2    0    0 -0.19947952644E-01 -0.88546999337E-02  0.92814284411E-02  0.23716480336E-01  0.00000000000E+00 0. -1.
     999901    1    3    3    0    0 -0.63961612563E-01  0.61933515689E-01 -0.92505071902E-01  0.88931661211E+00  0.88000000000E+00 0.  1.
        -11    1    4    4    0    0  0.34590151437E-01 -0.19502077116E-01  0.45094061140E-01  0.60087811238E-01  0.51100000000E-03 0. -1.
         11    1    4    4    0    0  0.49319413769E-01 -0.33576738639E-01  0.38129582320E-01  0.70809096316E-01  0.51100000000E-03 0.  1.
</event>
<event>
 8    1  0.1112958E+005  0.1043930E+01  0.7957747E-01            NaN
         13   -1    0    0    0    0  0.00000000000E+00  0.00000000000E+00  0.74505805969E-08  0.10566000000E+00  0.10566000000E+00 0. -1.
     999900   -1    0    0    0    0 -0.00000000000E+00 -0.00000000000E+00 -0.74505805969E-08  0.93827000000E+00  0.93827000000E+00 0.  1.
     999902    2    1    2    0    0  0.53993354731E-02  0.59083642340E-02  0.22975458154E-01  0.10196003212E+01  0.10193100028E+01 0.  0.
     999903    2    3    3    0    0  0.83456711706E-01 -0.36792032131E-01  0.93853280068E-01  0.13227853999E+00  0.19248314337E-01 0.  0.
         14    1    1    2    0    0 -0.53993354731E-02 -0.59083642340E-02 -0.22975458154E-01  0.24329678766E-01  0.00000000000E+00 0.  1.
     999901    1    3    3    0    0 -0.78057376232E-01  0.42700396365E-01 -0.70877821915E-01  0.88732178125E+00  0.88000000000E+00 0.  1.
        -11    1    4    4    0    0  0.35282212506E-01 -0.20808600770E-01  0.30354474039E-01  0.50985170398E-01  0.51100000000E-03 0.  1.
         11    1    4    4    0    0  0.48174499200E-01 -0.15983431361E-01  0.63498806029E-01  0.81293369591E-01  0.51100000000E-03 0. -1.
</event>
<event>
 8    1  0.1112958E+005  0.1043930E+01  0.7957747E-01            NaN
         13   -1    0    0    0    0  0.00000000000E+00  0.00000000000E+00  0.74505805969E-08  0.10566000000E+00  0.10566000000E+00 0.  1.
     999900   -1    0    0    0    0 -0.00000000000E+00 -0.00000000000E+00 -0.74505805969E-08  0.93827000000E+00  0.93827000000E+00 0.  1.
     999902    2    1    2    0    0 -0.92036893740E-02  0.87512274711E-02 -0.26019220680E-01  0.10149767320E+01  0.10145636869E+01 0.  0.
     999903    2    3    3    0    0  0.90610294632E-01 -0.10192075964E-01  0.79718995959E-01  0.12284319350E+00  0.20523838972E-01 0.  0.
         14    1    1    2    0    0  0.92036893740E-02 -0.87512274711E-02  0.26019220680E-01  0.28953267952E-01  0.00000000000E+00 0.  1.
     999901    1    3    3    0    0 -0.99813984006E-01  0.18943303435E-01 -0.10573821664E+00  0.89213353855E+00  0.88000000000E+00 0.  1.
        -11    1    4    4    0    0  0.47176554386E-01  0.32263006762E-02  0.33070575927E-01  0.57705809178E-01  0.51100000000E-03 0.  1.
         11    1    4    4    0    0  0.43433740246E-01 -0.13418376640E-01  0.46648420032E-01  0.65137384319E-01  0.51100000000E-03 0. -1.
</event>
<event>
 8    1  0.1112958E+005  0.1043930E+01  0.7957747E-01            NaN
         13   -1    0    0    0    0  0.00000000000E+00  0.00000000000E+00  0.74505805969E-08  0.10566000000E+00  0.10566000000E+00 0. -1.
     999900   -1    0    0    0    0 -0.00000000000E+00 -0.00000000000E+00 -0.74505805969E-08  0.93827000000E+00  0.93827000000E+00 0.  1.
     999902    2    1    2    0    0 -0.14303820408E-01  0.28675273412E-02  0.19653061364E-01  0.10194541995E+01  0.10191603407E+01 0.  0.
     999903    2    3    3    0    0 -0.21469833129E-01 -0.12124713773E+00  0.37939247679E-01  0.13052777593E+00  0.20887595174E-01 0.  0.
         14    1    1    2    0    0  0.14303820408E-01 -0.28675273412E-02 -0.19653061364E-01  0.24475800545E-01  0.00000000000E+00 0.  1.
     999901    1    3    3    0    0  0.71660127211E-02  0.12411466508E+00 -0.18286186315E-01  0.88892642352E+00  0.88000000000E+00 0.  1.
        -11    1    4    4    0    0 -0.22213844876E-01 -0.75706440389E-01  0.29309491386E-01  0.84167852692E-01  0.51100000000E-03 0. -1.
         11    1    4    4    0    0  0.74401174700E-03 -0.45540697346E-01  0.86297562938E-02  0.46359923241E-01  0.51100000000E-03 0.  1.
</event>
<event>
 8    1  0.1112958E+005  0.1043930E+01  0.7957747E-01            NaN
         13   -1    0    0    0    0  0.00000000000E+00  0.00000000000E+00  0.74505805969E-08  0.10566000000E+00  0.10566000000E+00 0. -1.
     999900   -1    0    0    0    0 -0.00000000000E+00 -0.00000000000E+00 -0.74505805969E-08  0.93827000000E+00  0.93827000000E+00 0.  1.
     999902    2    1    2    0    0 -0.87752336337E-02 -0.67243014169E-02 -0.31094802570E-01  0.10109283682E+01  0.10103895575E+01 0.  0.
     999903    2    3    3    0    0 -0.71015112911E-01 -0.31508825210E-01 -0.97043423976E-01  0.12592142141E+00  0.20070523291E-01 0.  0.
         14    1    1    2    0    0  0.87752336337E-02  0.67243014169E-02  0.31094802570E-01  0.33001631804E-01  0.00000000000E+00 0. -1.
     999901    1    3    3    0    0  0.62239879277E-01  0.24784523793E-01  0.65948621406E-01  0.88500694678E+00  0.88000000000E+00 0. -1.
        -11    1    4    4    0    0 -0.52745894813E-01 -0.32316906755E-01 -0.77297114179E-01  0.99003115422E-01  0.51100000000E-03 0. -1.
         11    1    4    4    0    0 -0.18269218098E-01  0.80808154544E-03 -0.19746309797E-01  0.26918305989E-01  0.51100000000E-03 0.  1.
</event>
<event>
 8    1  0.1112958E+005  0.1043930E+01  0.7957747E-01            NaN
         13   -1    0    0    0    0  0.00000000000E+00  0.00000000000E+00  0.74505805969E-08  0.10566000000E+00  0.10566000000E+00 0.  1.
     999900   -1    0    0    0    0 -0.00000000000E+00 -0.00000000000E+00 -0.74505805969E-08  0.93827000000E+00  0.93827000000E+00 0.  1.
     999902    2    1    2    0    0  0.19853985105E-01 -0.15037508730E-01  0.85315007555E-04  0.10190238828E+01  0.10187194703E+01 0.  0.
     999903    2    3    3    0    0 -0.81568531388E-01  0.19757125359E-01  0.94159158483E-01  0.12753799880E+00  0.18873915775E-01 0.  0.
         14    1    1    2    0    0 -0.19853985105E-01  0.15037508730E-01 -0.85315007555E-04  0.24906117160E-01  0.00000000000E+00 0. -1.
     999901    1    3    3    0    0  0.10142251649E+00 -0.34794634089E-01 -0.94073843476E-01  0.89148588404E+00  0.88000000000E+00 0.  1.
        -11    1    4    4    0    0 -0.58157054084E-01  0.58462104434E-02  0.69324397903E-01  0.90678301604E-01  0.51100000000E-03 0.  1.
         11    1    4    4    0    0 -0.23411477305E-01  0.13910914916E-01  0.24834760581E-01  0.36859697197E-01  0.51100000000E-03 0. -1.
</event>
<event>
 8    1  0.1112958E+005  0.1043930E+01  0.7957747E-01            NaN
         13   -1    0    0    0    0  0.00000000000E+00  0.00000000000E+00  0.74505805969E-08  0.10566000000E+00  0.10566000000E+00 0.  1.
     999900   -1    0    0    0    0 -0.00000000000E+00 -0.00000000000E+00 -0.74505805969E-08  0.93827000000E+00  0.93827000000E+00 0. -1.
     999902    2    1    2    0    0  0.21645371769E-01 -0.83725306224E-02 -0.50084699457E-03  0.10207163782E+01  0.10204523764E+01 0.  0.
     999903    2    3    3    0    0 -0.48888377228E-01 -0.11883969159E+00  0.14649927449E-01  0.13088069151E+00  0.20054658027E-01 0.  0.
         14    1    1    2    0    0 -0.21645371769E-01  0.83725306224E-02  0.50084699457E-03  0.23213621771E-01  0.00000000000E+00 0.  1.
     999901    1    3    3    0    0  0.70533748997E-01  0.11046716097E+00 -0.15150774443E-01  0.88983568672E+00  0.88000000000E+00 0.  1.
        -11    1    4    4    0    0 -0.16834683359E-01 -0.22454232510E-01 -0.10981762406E-02  0.28090322772E-01  0.51100000000E-03 0. -1.
         11    1    4    4    0    0 -0.32053693869E-01 -0.96385459084E-01  0.15748103689E-01  0.10279036873E+00  0.51100000000E-03 0.  1.
</event>
<event>
 8    1  0.1112958E+005  0.1043930E+01  0.7957747E-01            NaN
         13   -1    0    0    0    0  0.00000000000E+00  0.00000000000E+00  0.74505805969E-08  0.10566000000E+00  0.10566000000E+00 0. -1.
     999900   -1    0    0    0    0 -0.00000000000E+00 -0.00000000000E+00 -0.74505805969E-08  0.93827000000E+00  0.93827000000E+00 0.  1.
     999902    2    1    2    0    0  0.65671630922E-02  0.21541188307E-01  0.62423543970E-02  0.10205608448E+01  0.10202932523E+01 0.  0.
     999903    2    3    3    0    0 -0.96320080954E-01 -0.80883471315E-01 -0.15668595165E-01  0.12839679849E+00  0.20507049026E-01 0.  0.
         14    1    1    2    0    0 -0.65671630922E-02 -0.21541188307E-01 -0.62423543970E-02  0.23369155166E-01  0.00000000000E+00 0.  1.
     999901    1    3    3    0    0  0.10288724405E+00  0.10242465962E+00  0.21910949562E-01  0.89216404635E+00  0.88000000000E+00 0. -1.
        -11    1    4    4    0    0 -0.44773992219E-01 -0.40307516883E-01 -0.17603756486E-01  0.62765911608E-01  0.51100000000E-03 0. -1.
         11    1    4    4    0    0 -0.51546088735E-01 -0.40575954432E-01  0.19351613212E-02  0.65630886877E-01  0.51100000000E-03 0.  1.
</event>
<event>
 7    1  0.1112958E+005  0.1043930E+01  0.7957747E-01            NaN
         13   -1    0    0    0    0  0.00000000000E+00  0.00000000000E+00  0.74505805969E-08  0.10566000000E+00  0.10566000000E+00 0. -1.
     999900   -1    0    0    0    0 -0.00000000000E+00 -0.00000000000E+00 -0.74505805969E-08  0.93827000000E+00  0.93827000000E+00 0. -1.
     999903    2    1    2    0    0  0.59218913292E-01  0.11960246392E-01  0.43515461847E-01  0.76345353956E-01  0.16884622165E-01 0.  0.
         14    1    1    2    0    0 -0.77966788594E-01 -0.14895257008E-01  0.28739290437E-01  0.84419403101E-01  0.00000000000E+00 0. -1.
     999901    1    1    2    0    0  0.18747875302E-01  0.29350106156E-02 -0.72254752284E-01  0.88316524294E+00  0.88000000000E+00 0. -1.
        -11    1    3    3    0    0  0.23463827070E-01 -0.35606936838E-02  0.15814129999E-01  0.28523280823E-01  0.51100000000E-03 0. -1.
         11    1    3    3    0    0  0.35755086222E-01  0.15520940076E-01  0.27701331848E-01  0.47822073133E-01  0.51100000000E-03 0.  1.
</event>
<event>
 8    1  0.1112958E+005  0.1043930E+01  0.7957747E-01            NaN
         13   -1    0    0    0    0  0.00000000000E+00  0.00000000000E+00  0.74505805969E-08  0.10566000000E+00  0.10566000000E+00 0. -1.
     999900   -1    0    0    0    0 -0.00000000000E+00 -0.00000000000E+00 -0.74505805969E-08  0.93827000000E+00  0.93827000000E+00 0. -1.
     999902    2    1    2    0    0 -0.97676363637E-02  0.41644162044E-02 -0.21379699439E-01  0.10200586651E+01  0.10197793093E+01 0.  0.
     999903    2    3    3    0    0 -0.12432309216E+00  0.38547906071E-01 -0.73605949370E-02  0.13185727344E+00  0.19748161835E-01 0.  0.
         14    1    1    2    0    0  0.97676363637E-02 -0.41644162044E-02  0.21379699439E-01  0.23871334914E-01  0.00000000000E+00 0. -1.
     999901    1    3    3    0    0  0.11455545579E+00 -0.34383489867E-01 -0.14019104502E-01  0.88820139164E+00  0.88000000000E+00 0. -1.
        -11    1    4    4    0    0 -0.19483937991E-01  0.36450099741E-02  0.55948891980E-02  0.20602763006E-01  0.51100000000E-03 0.  1.
         11    1    4    4    0    0 -0.10483915417E+00  0.34902896097E-01 -0.12955484135E-01  0.11125451044E+00  0.51100000000E-03 0. -1.
</event>
<event>
 8    1  0.1112958E+005  0.1043930E+01  0.7957747E-01            NaN
         13   -1    0    0    0    0  0.00000000000E+00  0.00000000000E+00  0.74505805969E-08  0.10566000000E+00  0.10566000000E+00 0. -1.
     999900   -1    0    0    0    0 -0.00000000000E+00 -0.00000000000E+00 -0.74505805969E-08  0.93827000000E+00  0.93827000000E+00 0. -1.
     999902    2    1    2    0    0  0.70551797110E-02 -0.15773789382E-01 -0.24405347619E-01  0.10140266727E+01  0.10135856569E+01 0.  0.
     999903    2    3    3    0    0 -0.96910398326E-01  0.69616214692E-01 -0.26452629890E-01  0.12379946260E+00  0.19710978152E-01 0.  0.
         14    1    1    2    0    0 -0.70551797110E-02  0.15773789382E-01  0.24405347619E-01  0.29903327316E-01  0.00000000000E+00 0. -1.
     999901    1    3    3    0    0  0.10396557804E+00 -0.85390004073E-01  0.20472822712E-02  0.89022721009E+00  0.88000000000E+00 0.  1.
        -11    1    4    4    0    0 -0.67559225743E-01  0.54132882970E-01 -0.26743422995E-01  0.90609545833E-01  0.51100000000E-03 0.  1.
         11    1    4    4    0    0 -0.29351172583E-01  0.15483331722E-01  0.29079310527E-03  0.33189916765E-01  0.51100000000E-03 0. -1.
</event>
<event>
 8    1  0.1112958E+005  0.1043930E+01  0.7957747E-01            NaN
         13   -1    0    0    0    0  0.00000000000E+00  0.00000000000E+00  0.74505805969E-08  0.10566000000E+00  0.10566000000E+00 0. -1.
     999900   -1    0    0    0    0 -0.00000000000E+00 -0.00000000000E+00 -0.74505805969E-08  0.93827000000E+00  0.93827000000E+00 0. -1.
     999902    2    1    2    0    0 -0.16504748121E-01 -0.67466942904E-02 -0.18433877994E-01  0.10182837049E+01  0.10179606924E+01 0.  0.
     999903    2    3    3    0    0  0.45393005907E-01  0.26883028969E-01  0.11247174107E+00  0.12581601846E+00  0.19913707078E-01 0.  0.
         14    1    1    2    0    0  0.16504748121E-01  0.67466942904E-02  0.18433877994E-01  0.25646295099E-01  0.00000000000E+00 0. -1.
     999901    1    3    3    0    0 -0.61897754029E-01 -0.33629723260E-01 -0.13090561906E+00  0.89246768644E+00  0.88000000000E+00 0. -1.
        -11    1    4    4    0    0  0.96222119665E-02  0.14642715567E-01  0.47661993273E-01  0.50783095672E-01  0.51100000000E-03 0. -1.
         11    1    4    4    0    0  0.35770793941E-01  0.12240313402E-01  0.64809747797E-01  0.75032922787E-01  0.51100000000E-03 0.  1.
</event>
<event>
 8    1  0.1112958E+005  0.1043930E+01  0.7957747E-01            NaN
         13   -1    0    0    0    0  0.00000000000E+00  0.00000000000E+00  0.74505805969E-08  0.10566000000E+00  0.10566000000E+00 0.  1.
     999900   -1    0    0    0    0 -0.00000000000E+00 -0.00000000000E+00 -0.74505805969E-08  0.93827000000E+00  0.93827000000E+00 0.  1.
     999902    2    1    2    0    0  0.37115592444E-02  0.23396714301E-01  0.12886199755E-02  0.10202056991E+01  0.10199298143E+01 0.  0.
     999903    2    3    3    0    0 -0.59202206799E-01 -0.87371052322E-01  0.70992365725E-01  0.12830533905E+00  0.16844641950E-01 0.  0.
         14    1    1    2    0    0 -0.37115592444E-02 -0.23396714301E-01 -0.12886199755E-02  0.23724300908E-01  0.00000000000E+00 0. -1.
     999901    1    3    3    0    0  0.62913766044E-01  0.11076776662E+00 -0.69703745749E-01  0.89190036005E+00  0.88000000000E+00 0.  1.
        -11    1    4    4    0    0 -0.17147653903E-01 -0.13399161631E-01  0.13594259573E-01  0.25664071796E-01  0.51100000000E-03 0. -1.
         11    1    4    4    0    0 -0.42054552896E-01 -0.73971890691E-01  0.57398106151E-01  0.10264126725E+00  0.51100000000E-03 0.  1.
</event>
<event>
 8    1  0.1112958E+005  0.1043930E+01  0.7957747E-01            NaN
         13   -1    0    0    0    0  0.00000000000E+00  0.00000000000E+00  0.74505805969E-08  0.10566000000E+00  0.10566000000E+00 0.  1.
     999900   -1    0    0    0    0 -0.00000000000E+00 -0.00000000000E+00 -0.74505805969E-08  0.93827000000E+00  0.93827000000E+00 0.  1.
     999902    2    1    2    0    0 -0.27563401908E-02 -0.23062203731E-01 -0.44655358560E-02  0.10202782842E+01  0.10200041046E+01 0.  0.
     999903    2    3    3    0    0 -0.24770980807E-01 -0.45400440484E-01  0.11875108553E+00  0.13114051248E+00  0.20523455200E-01 0.  0.
         14    1    1    2    0    0  0.27563401908E-02  0.23062203731E-01  0.44655358560E-02  0.23651715850E-01  0.00000000000E+00 0.  1.
     999901    1    3    3    0    0  0.22014640616E-01  0.22338236753E-01 -0.12321662138E+00  0.88913777167E+00  0.88000000000E+00 0.  1.
        -11    1    4    4    0    0 -0.80547069759E-02 -0.17390057706E-01  0.22767104625E-01  0.29763981345E-01  0.51100000000E-03 0. -1.
         11    1    4    4    0    0 -0.16716273831E-01 -0.28010382778E-01  0.95983980904E-01  0.10137653114E+00  0.51100000000E-03 0.  1.
</event>
<event>
 8    1  0.1112958E+005  0.1043930E+01  0.7957747E-01            NaN
         13   -1    0    0    0    0  0.00000000000E+00  0.00000000000E+00  0.74505805969E-08  0.10566000000E+00  0.10566000000E+00 0.  1.
     999900   -1    0    0    0    0 -0.00000000000E+00 -0.00000000000E+00 -0.74505805969E-08  0.93827000000E+00  0.93827000000E+00 0.  1.
     999902    2    1    2    0    0 -0.32612259000E-01 -0.17990938202E-02  0.30588241831E-02  0.10111252354E+01  0.10105929394E+01 0.  0.
     999903    2    3    3    0    0 -0.10585550694E+00 -0.39553014974E-01 -0.50992031980E-01  0.12562457080E+00  0.20285860112E-01 0.  0.
         14    1    1    2    0    0  0.32612259000E-01  0.17990938202E-02 -0.30588241831E-02  0.32804764608E-01  0.00000000000E+00 0.  1.
     999901    1    3    3    0    0  0.73243247944E-01  0.37753921154E-01  0.54050856163E-01  0.88550066459E+00  0.88000000000E+00 0. -1.
        -11    1    4    4    0    0 -0.59604721663E-01 -0.14714016071E-01 -0.19574837697E-01  0.64441139851E-01  0.51100000000E-03 0.  1.
         11    1    4    4    0    0 -0.46250785281E-01 -0.24838998903E-01 -0.31417194284E-01  0.61183430953E-01  0.51100000000E-03 0. -1.
</event>
<event>
 8    1  0.1112958E+005  0.1043930E+01  0.7957747E-01            NaN
         13   -1    0    0    0    0  0.00000000000E+00  0.00000000000E+00  0.74505805969E-08  0.10566000000E+00  0.10566000000E+00 0. -1.
     999900   -1    0    0    0    0 -0.00000000000E+00 -0.00000000000E+00 -0.74505805969E-08  0.93827000000E+00  0.93827000000E+00 0. -1.
     999902    2    1    2    0    0  0.23593837208E-01  0.74462984103E-02 -0.11014147029E-01  0.10168481251E+01  0.10164874232E+01 0.  0.
     999903    2    3    3    0    0 -0.11614383832E+00  0.17546147409E-01  0.35630241413E-01  0.12454530435E+00  0.21089340069E-01 0.  0.
         14    1    1    2    0    0 -0.23593837208E-01 -0.74462984103E-02  0.11014147029E-01  0.27081874917E-01  0.00000000000E+00 0.  1.
     999901    1    3    3    0    0  0.13973767553E+00 -0.10099848999E-01 -0.46644388442E-01  0.89230282073E+00  0.88000000000E+00 0. -1.
        -11    1    4    4    0    0 -0.51867139176E-01  0.13386856383E-01  0.68876469640E-02  0.54010266171E-01  0.51100000000E-03 0. -1.
         11    1    4    4    0    0 -0.64276699143E-01  0.41592910261E-02  0.28742594449E-01  0.70535038181E-01  0.51100000000E-03 0.  1.
</event>
<event>
 8    1  0.1112958E+005  0.1043930E+01  0.7957747E-01            NaN
         13   -1    0    0    0    0  0.00000000000E+00  0.00000000000E+00  0.74505805969E-08  0.10566000000E+00  0.10566000000E+00 0.  1.
     999900   -1    0    0    0    0 -0.00000000000E+00 -0.00000000000E+00 -0.74505805969E-08  0.93827000000E+00  0.93827000000E+00 0.  1.
     999902    2    1    2    0    0 -0.15426480285E-01 -0.15239710039E-01 -0.96315354218E-02  0.10202025574E+01  0.10199265987E+01 0.  0.
     999903    2    3    3    0    0 -0.10490454544E+00  0.35109004001E-01  0.67290435813E-01  0.13090041148E+00  0.19217418063E-01 0.  0.
         14    1    1    2    0    0  0.15426480285E-01  0.15239710039E-01  0.96315354218E-02  0.23727442564E-01  0.00000000000E+00 0.  1.
     999901    1    3    3    0    0  0.89478065155E-01 -0.50348714040E-01 -0.76921971235E-01  0.88930214596E+00  0.88000000000E+00 0.  1.
        -11    1    4    4    0    0 -0.30078109440E-01  0.16981049654E-02  0.21624853671E-01  0.37087351554E-01  0.51100000000E-03 0. -1.
         11    1    4    4    0    0 -0.74826436000E-01  0.33410899036E-01  0.45665582142E-01  0.93813059923E-01  0.51100000000E-03 0.  1.
</event>
<event>
 8    1  0.1112958E+005  0.1043930E+01  0.7957747E-01            NaN
         13   -1    0    0    0    0  0.00000000000E+00  0.00000000000E+00  0.74505805969E-08  0.10566000000E+00  0.10566000000E+00 0. -1.
     999900   -1    0    0    0    0 -0.00000000000E+00 -0.00000000000E+00 -0.74505805969E-08  0.93827000000E+00  0.93827000000E+00 0.  1.
     999902    2    1    2    0    0 -0.27950832475E-02 -0.15210959856E-01  0.20376199416E-01  0.10183492398E+01  0.10180278969E+01 0.  0.
     999903    2    3    3    0    0  0.73567343774E-01  0.34455451319E-01  0.99595446914E-01  0.13010734603E+00  0.20232059943E-01 0.  0.
         14    1    1    2    0    0  0.27950832475E-02  0.15210959856E-01 -0.20376199416E-01  0.25580760207E-01  0.00000000000E+00 0.  1.
     999901    1    3    3    0    0 -0.76362427022E-01 -0.49666411175E-01 -0.79219247498E-01  0.88824189376E+00  0.88000000000E+00 0.  1.
        -11    1    4    4    0    0  0.16218079451E-01  0.46426176292E-02  0.99597432409E-02  0.19596877454E-01  0.51100000000E-03 0.  1.
         11    1    4    4    0    0  0.57349264324E-01  0.29812833690E-01  0.89635703674E-01  0.11051046858E+00  0.51100000000E-03 0. -1.
</event>
<event>
 7    1  0.1112958E+005  0.1043930E+01  0.7957747E-01            NaN
         13   -1    0    0    0    0  0.00000000000E+00  0.00000000000E+00  0.74505805969E-08  0.10566000000E+00  0.10566000000E+00 0.  1.
     999900   -1    0    0    0    0 -0.00000000000E+00 -0.00000000000E+00 -0.74505805969E-08  0.93827000000E+00  0.93827000000E+00 0.  1.
     999903    2    1    2    0    0 -0.98672398980E-01  0.60469361102E-01  0.12515260844E-01  0.11812715958E+00  0.20114873195E-01 0.  0.
         14    1    1    2    0    0  0.29517654117E-01  0.16192117917E-01  0.20020163749E-01  0.39169931628E-01  0.00000000000E+00 0. -1.
     999901    1    1    2    0    0  0.69154744863E-01 -0.76661479019E-01 -0.32535424592E-01  0.88663290879E+00  0.88000000000E+00 0.  1.
        -11    1    3    3    0    0 -0.86425174828E-01  0.45524953650E-01  0.14264571287E-01  0.98719660473E-01  0.51100000000E-03 0.  1.
         11    1    3    3    0    0 -0.12247224151E-01  0.14944407452E-01 -0.17493104434E-02  0.19407499105E-01  0.51100000000E-03 0. -1.
</event>
<event>
 8    1  0.1112958E+005  0.1043930E+01  0.7957747E-01            NaN
         13   -1    0    0    0    0  0.00000000000E+00  0.00000000000E+00  0.74505805969E-08  0.10566000000E+00  0.10566000000E+00 0.  1.
     999900   -1    0    0    0    0 -0.00000000000E+00 -0.00000000000E+00 -0.74505805969E-08  0.93827000000E+00  0.93827000000E+00 0. -1.
     999902    2    1    2    0    0 -0.31758217366E-02 -0.21574952695E-01  0.21089674964E-02  0.10220208199E+01  0.10217859581E+01 0.  0.
     999903    2    3    3    0    0 -0.12083025702E+00 -0.50208464283E-01  0.18599368815E-01  0.13357589903E+00  0.19384101377E-01 0.  0.
         14    1    1    2    0    0  0.31758217366E-02  0.21574952695E-01 -0.21089674964E-02  0.21909180072E-01  0.00000000000E+00 0. -1.
     999901    1    3    3    0    0  0.11765443528E+00  0.28633511588E-01 -0.16490401319E-01  0.88844492089E+00  0.88000000000E+00 0.  1.
        -11    1    4    4    0    0 -0.61790282399E-01 -0.16723336264E-01  0.39546358866E-02  0.64137424650E-01  0.51100000000E-03 0.  1.
         11    1    4    4    0    0 -0.59039974617E-01 -0.33485128019E-01  0.14644732928E-01  0.69438474384E-01  0.51100000000E-03 0. -1.
</event>
<event>
 8    1  0.1112958E+005  0.1043930E+01  0.7957747E-01            NaN
         13   -1    0    0    0    0  0.00000000000E+00  0.00000000000E+00  0.74505805969E-08  0.10566000000E+00  0.10566000000E+00 0.  1.
     999900   -1    0    0    0    0 -0.00000000000E+00 -0.00000000000E+00 -0.74505805969E-08  0.93827000000E+00  0.93827000000E+00 0. -1.
     999902    2    1    2    0    0 -0.11303849601E-01 -0.16139541903E-02  0.20737716072E-01  0.10202564973E+01  0.10199818064E+01 0.  0.
     999903    2    3    3    0    0 -0.81753155826E-01 -0.26165751206E-01  0.10031208298E+00  0.13352205260E+00  0.19934881878E-01 0.  0.
         14    1    1    2    0    0  0.11303849601E-01  0.16139541903E-02 -0.20737716072E-01  0.23673502736E-01  0.00000000000E+00 0. -1.
     999901    1    3    3    0    0  0.70449306225E-01  0.24551797016E-01 -0.79574366906E-01  0.88673444466E+00  0.88000000000E+00 0. -1.
        -11    1    4    4    0    0 -0.22255420048E-01 -0.74117973101E-02  0.15053973307E-01  0.27876902522E-01  0.51100000000E-03 0. -1.
         11    1    4    4    0    0 -0.59497735778E-01 -0.18753953896E-01  0.85258109671E-01  0.10564515008E+00  0.51100000000E-03 0.  1.
</event>
<event>
 8    1  0.1112958E+005  0.1043930E+01  0.7957747E-01            NaN
         13   -1    0    0    0    0  0.00000000000E+00  0.00000000000E+00  0.74505805969E-08  0.10566000000E+00  0.10566000000E+00 0. -1.
     999900   -1    0    0    0    0 -0.00000000000E+00 -0.00000000000E+00 -0.74505805969E-08  0.93827000000E+00  0.93827000000E+00 0.  1.
     999902    2    1    2    0    0 -0.26225067052E-02 -0.10177006923E-01 -0.20884160316E-01  0.10205505825E+01  0.10202827521E+01 0.  0.
     999903    2    3    3    0    0 -0.32381950216E-01 -0.78534317150E-01 -0.10182171137E+00  0.13369702439E+00  0.17058832096E-01 0.  0.
         14    1    1    2    0    0  0.26225067052E-02  0.10177006923E-01  0.20884160316E-01  0.23379417517E-01  0.00000000000E+00 0. -1.
     999901    1    3    3    0    0  0.29759443511E-01  0.68357310227E-01  0.80937551058E-01  0.88685355810E+00  0.88000000000E+00 0.  1.
        -11    1    4    4    0    0 -0.26973546205E-01 -0.43467210020E-01 -0.60131283185E-01  0.78949369094E-01  0.51100000000E-03 0.  1.
         11    1    4    4    0    0 -0.54084040108E-02 -0.35067107129E-01 -0.41690428189E-01  0.54747655292E-01  0.51100000000E-03 0. -1.
</event>
<event>
 8    1  0.1112958E+005  0.1043930E+01  0.7957747E-01            NaN
         13   -1    0    0    0    0  0.00000000000E+00  0.00000000000E+00  0.74505805969E-08  0.10566000000E+00  0.10566000000E+00 0. -1.
     999900   -1    0    0    0    0 -0.00000000000E+00 -0.00000000000E+00 -0.74505805969E-08  0.93827000000E+00  0.93827000000E+00 0.  1.
     999902    2    1    2    0    0  0.36758600810E-02 -0.22945223576E-01 -0.95594636836E-03  0.10206725482E+01  0.10204075370E+01 0.  0.
     999903    2    3    3    0    0  0.73503142562E-01 -0.50536113935E-01 -0.95747765166E-01  0.13240310958E+00  0.20157830119E-01 0.  0.
         14    1    1    2    0    0 -0.36758600810E-02  0.22945223576E-01  0.95594636836E-03  0.23257451833E-01  0.00000000000E+00 0.  1.
     999901    1    3    3    0    0 -0.69827282481E-01  0.27590890359E-01  0.94791818798E-01  0.88826943858E+00  0.88000000000E+00 0. -1.
        -11    1    4    4    0    0  0.48333080899E-01 -0.21273904886E-01 -0.57180475018E-01  0.77836582547E-01  0.51100000000E-03 0.  1.
         11    1    4    4    0    0  0.25170061663E-01 -0.29262209049E-01 -0.38567290148E-01  0.54566527037E-01  0.51100000000E-03 0. -1.
</event>
<event>
 8    1  0.1112958E+005  0.1043930E+01  0.7957747E-01            NaN
         13   -1    0    0    0    0  0.00000000000E+00  0.00000000000E+00  0.74505805969E-08  0.10566000000E+00  0.10566000000E+00 0.  1.
     999900   -1    0    0    0    0 -0.00000000000E+00 -0.00000000000E+00 -0.74505805969E-08  0.93827000000E+00  0.93827000000E+00 0. -1.
     999902    2    1    2    0    0 -0.37294400821E-02 -0.79309402119E-02  0.21428378629E-01  0.10207786729E+01  0.10205161023E+01 0.  0.
     999903    2    3    3    0    0 -0.12721371813E+00  0.24377239512E-01  0.11142949013E-01  0.13151044819E+00  0.19830602231E-01 0.  0.
         14    1    1    2    0    0  0.37294400821E-02  0.79309402119E-02 -0.21428378629E-01  0.23151327103E-01  0.00000000000E+00 0. -1.
     999901    1    3    3    0    0  0.12348427805E+00 -0.32308179724E-01  0.10285429616E-01  0.88926822470E+00  0.88000000000E+00 0. -1.
        -11    1    4    4    0    0 -0.66281486991E-01  0.58999638420E-02 -0.16401943542E-02  0.66565730294E-01  0.51100000000E-03 0.  1.
         11    1    4    4    0    0 -0.60932231140E-01  0.18477275670E-01  0.12783143368E-01  0.64944717901E-01  0.51100000000E-03 0. -1.
</event>
<event>
 8    1  0.1112958E+005  0.1043930E+01  0.7957747E-01            NaN
         13   -1    0    0    0    0  0.00000000000E+00  0.00000000000E+00  0.74505805969E-08  0.10566000000E+00  0.10566000000E+00 0. -1.
     999900   -1    0    0    0    0 -0.00000000000E+00 -0.00000000000E+00 -0.74505805969E-08  0.93827000000E+00  0.93827000000E+00 0.  1.
     999902    2    1    2    0    0 -0.74589670556E-02 -0.22640427554E-01  0.33579930438E-02  0.10198571675E+01  0.10195730188E+01 0.  0.
     999903    2    3    3    0    0 -0.11714282387E+00 -0.14202256292E-01 -0.53568860051E-01  0.13118263886E+00  0.20374412921E-01 0.  0.
         14    1    1    2    0    0  0.74589670556E-02  0.22640427554E-01 -0.33579930438E-02  0.24072832543E-01  0.00000000000E+00 0. -1.
     999901    1    3    3    0    0  0.10968385682E+00 -0.84381712612E-02  0.56926853095E-01  0.88867452860E+00  0.88000000000E+00 0. -1.
        -11    1    4    4    0    0 -0.65597564201E-01 -0.18099329206E-01 -0.30159206534E-01  0.74434299934E-01  0.51100000000E-03 0. -1.
         11    1    4    4    0    0 -0.51545259670E-01  0.38970729134E-02 -0.23409653518E-01  0.56748338923E-01  0.51100000000E-03 0.  1.
</event>
<event>
 8    1  0.1112958E+005  0.1043930E+01  0.7957747E-01            NaN
         13   -1    0    0    0    0  0.00000000000E+00  0.00000000000E+00  0.74505805969E-08  0.10566000000E+00  0.10566000000E+00 0. -1.
     999900   -1    0    0    0    0 -0.00000000000E+00 -0.00000000000E+00 -0.74505805969E-08  0.93827000000E+00  0.93827000000E+00 0.  1.
     999902    2    1    2    0    0 -0.30860051615E-03  0.24363292777E-01 -0.69036093521E-02  0.10186056028E+01  0.10182907488E+01 0.  0.
     999903    2    3    3    0    0  0.60609902479E-01  0.23641587075E-01 -0.11119674643E+00  0.13035527591E+00  0.19882067864E-01 0.  0.
         14    1    1    2    0    0  0.30860051615E-03 -0.24363292777E-01  0.69036093521E-02  0.25324397156E-01  0.00000000000E+00 0. -1.
     999901    1    3    3    0    0 -0.60918502995E-01  0.72170570157E-03  0.10429313707E+00  0.88825032694E+00  0.88000000000E+00 0. -1.
        -11    1    4    4    0    0  0.19157751032E-01  0.28858317422E-02 -0.49669532386E-01  0.53316704867E-01  0.51100000000E-03 0.  1.
         11    1    4    4    0    0  0.41452151447E-01  0.20755755333E-01 -0.61527214041E-01  0.77038571039E-01  0.51100000000E-03 0. -1.
</event>
<event>
 8    1  0.1112958E+005  0.1043930E+01  0.7957747E-01            NaN
         13   -1    0    0    0    0  0.00000000000E+00  0.00000000000E+00  0.74505805969E-08  0.10566000000E+00  0.10566000000E+00 0.  1.
     999900   -1    0    0    0    0 -0.00000000000E+00 -0.00000000000E+00 -0.74505805969E-08  0.93827000000E+00  0.93827000000E+00 0.  1.
     999902    2    1    2    0    0 -0.22098707259E-01 -0.10002637774E-02  0.92407326365E-02  0.10199561699E+01  0.10196743813E+01 0.  0.
     999903    2    3    3    0    0 -0.53198324925E-02 -0.10867672329E+00 -0.68025219098E-01  0.12987427598E+00  0.20024143564E-01 0.  0.
         14    1    1    2    0    0  0.22098707259E-01  0.10002637774E-02 -0.92407326365E-02  0.23973830103E-01  0.00000000000E+00 0. -1.
     999901    1    3    3    0    0 -0.16778874767E-01  0.10767645952E+00  0.77265951735E-01  0.89008189391E+00  0.88000000000E+00 0. -1.
        -11    1    4    4    0    0  0.61020062691E-02 -0.56142629136E-01 -0.29364910076E-01  0.63653659373E-01  0.51100000000E-03 0. -1.
         11    1    4    4    0    0 -0.11421838762E-01 -0.52534094158E-01 -0.38660309023E-01  0.66220616611E-01  0.51100000000E-03 0.  1.
</event>
<event>
 8    1  0.1112958E+005  0.1043930E+01  0.7957747E-01            NaN
         13   -1    0    0    0    0  0.00000000000E+00  0.00000000000E+00  0.74505805969E-08  0.10566000000E+00  0.10566000000E+00 0.  1.
     999900   -1    0    0    0    0 -0.00000000000E+00 -0.00000000000E+00 -0.74505805969E-08  0.93827000000E+00  0.93827000000E+00 0.  1.
     999902    2    1    2    0    0  0.13021072096E-01 -0.14061281320E-01 -0.58762458244E-02  0.10238850950E+01  0.10236888637E+01 0.  0.
     999903    2    3    3    0    0  0.10571504943E+00 -0.74981014040E-01 -0.37441751617E-01  0.13636057793E+00  0.19861981462E-01 0.  0.
         14    1    1    2    0    0 -0.13021072096E-01  0.14061281320E-01  0.58762458244E-02  0.20044904986E-01  0.00000000000E+00 0.  1.
     999901    1    3    3    0    0 -0.92693977331E-01  0.60919732720E-01  0.31565505792E-01  0.88752451708E+00  0.88000000000E+00 0.  1.
        -11    1    4    4    0    0  0.13488524620E-01 -0.18551843532E-01 -0.50597251973E-02  0.23494108515E-01  0.51100000000E-03 0.  1.
         11    1    4    4    0    0  0.92226524808E-01 -0.56429170508E-01 -0.32382026419E-01  0.11286646942E+00  0.51100000000E-03 0. -1.
</event>
<event>
 8    1  0.1112958E+005  0.1043930E+01  0.7957747E-01            NaN
         13   -1    0    0    0    0  0.00000000000E+00  0.00000000000E+00  0.74505805969E-08  0.10566000000E+00  0.10566000000E+00 0.  1.
     999900   -1    0    0    0    0 -0.00000000000E+00 -0.00000000000E+00 -0.74505805969E-08  0.93827000000E+00  0.93827000000E+00 0. -1.
     999902    2    1    2    0    0 -0.18153722813E-02 -0.56019537359E-02  0.20289255630E-01  0.10228034443E+01  0.10225852308E+01 0.  0.
     999903    2    3    3    0    0 -0.52571452580E-01 -0.63734069933E-01  0.10537515086E+00  0.13533787753E+00  0.19662893428E-01 0.  0.
         14    1    1    2    0    0  0.18153722813E-02  0.56019537359E-02 -0.20289255630E-01  0.21126555711E-01  0.00000000000E+00 0. -1.
     999901    1    3    3    0    0  0.50756080298E-01  0.58132116197E-01 -0.85085895232E-01  0.88746556676E+00  0.88000000000E+00 0. -1.
        -11    1    4    4    0    0 -0.13432836728E-01 -0.78596235528E-02  0.29107518194E-01  0.33010960625E-01  0.51100000000E-03 0. -1.
         11    1    4    4    0    0 -0.39138615851E-01 -0.55874446380E-01  0.76267632668E-01  0.10232691690E+00  0.51100000000E-03 0.  1.
</event>
<event>
 8    1  0.1112958E+005  0.1043930E+01  0.7957747E-01            NaN
         13   -1    0    0    0    0  0.00000000000E+00  0.00000000000E+00  0.74505805969E-08  0.10566000000E+00  0.10566000000E+00 0.  1.
     999900   -1    0    0    0    0 -0.00000000000E+00 -0.00000000000E+00 -0.74505805969E-08  0.93827000000E+00  0.93827000000E+00 0.  1.
     999902    2    1    2    0    0  0.14913624188E-02 -0.16012459177E-01  0.16109755020E-01  0.10211671527E+01  0.10209134177E+01 0.  0.
     999903    2    3    3    0    0  0.10746759504E+00  0.36649046821E-01 -0.59756197702E-01  0.13001069119E+00  0.20965210334E-01 0.  0.
         14    1    1    2    0    0 -0.14913624188E-02  0.16012459177E-01 -0.16109755020E-01  0.22762847308E-01  0.00000000000E+00 0.  1.
     999901    1    3    3    0    0 -0.10597623262E+00 -0.52661505997E-01  0.75865952722E-01  0.89115646150E+00  0.88000000000E+00 0. -1.
        -11    1    4    4    0    0  0.49548690019E-01  0.87030075940E-02 -0.18494756968E-01  0.53601606133E-01  0.51100000000E-03 0.  1.
         11    1    4    4    0    0  0.57918905017E-01  0.27946039227E-01 -0.41261440734E-01  0.76409085057E-01  0.51100000000E-03 0. -1.
</event>
<event>
 8    1  0.1112958E+005  0.1043930E+01  0.7957747E-01            NaN
         13   -1    0    0    0    0  0.00000000000E+00  0.00000000000E+00  0.74505805969E-08  0.10566000000E+00  0.10566000000E+00 0.  1.
     999900   -1    0    0    0    0 -0.00000000000E+00 -0.00000000000E+00 -0.74505805969E-08  0.93827000000E+00  0.93827000000E+00 0. -1.
     999902    2    1    2    0    0  0.15074353854E-01  0.74858118094E-02  0.16191615819E-01  0.10205753014E+01  0.10203080437E+01 0.  0.
     999903    2    3    3    0    0  0.48734620973E-01 -0.10820326169E+00  0.53903247267E-01  0.13156509763E+00  0.17911050394E-01 0.  0.
         14    1    1    2    0    0 -0.15074353854E-01 -0.74858118094E-02 -0.16191615819E-01  0.23354698572E-01  0.00000000000E+00 0. -1.
     999901    1    3    3    0    0 -0.33660267119E-01  0.11568907350E+00 -0.37711631448E-01  0.88901020380E+00  0.88000000000E+00 0.  1.
        -11    1    4    4    0    0  0.36575460325E-01 -0.84053590162E-01  0.49458797927E-01  0.10415951291E+00  0.51100000000E-03 0.  1.
         11    1    4    4    0    0  0.12159160648E-01 -0.24149671530E-01  0.44444493398E-02  0.27405584715E-01  0.51100000000E-03 0. -1.
</event>
<event>
 8    1  0.1112958E+005  0.1043930E+01  0.7957747E-01            NaN
         13   -1    0    0    0    0  0.00000000000E+00  0.00000000000E+00  0.74505805969E-08  0.10566000000E+00  0.10566000000E+00 0.  1.
     999900   -1    0    0    0    0 -0.00000000000E+00 -0.00000000000E+00 -0.74505805969E-08  0.93827000000E+00  0.93827000000E+00 0.  1.
     999902    2    1    2    0    0 -0.17338166968E-01  0.10621046669E-01  0.98264109653E-02  0.10213473292E+01  0.10210976398E+01 0.  0.
     999903    2    3    3    0    0 -0.11468990752E-01 -0.11140130757E+00  0.64799832162E-01  0.13120914941E+00  0.21795264693E-01 0.  0.
         14    1    1    2    0    0  0.17338166968E-01 -0.10621046669E-01 -0.98264109653E-02  0.22582670759E-01  0.00000000000E+00 0. -1.
     999901    1    3    3    0    0 -0.58691762159E-02  0.12202235424E+00 -0.54973421197E-01  0.89013817984E+00  0.88000000000E+00 0.  1.
        -11    1    4    4    0    0 -0.11133884619E-02 -0.73513049619E-01  0.32642118043E-01  0.80443626780E-01  0.51100000000E-03 0. -1.
         11    1    4    4    0    0 -0.10355602290E-01 -0.37888257948E-01  0.32157714119E-01  0.50765522626E-01  0.51100000000E-03 0.  1.
</event>
<event>
 8    1  0.1112958E+005  0.1043930E+01  0.7957747E-01            NaN
         13   -1    0    0    0    0  0.00000000000E+00  0.00000000000E+00  0.74505805969E-08  0.10566000000E+00  0.10566000000E+00 0. -1.
     999900   -1    0    0    0    0 -0.00000000000E+00 -0.00000000000E+00 -0.74505805969E-08  0.93827000000E+00  0.93827000000E+00 0.  1.
     999902    2    1    2    0    0  0.20358133235E-02 -0.11332827259E-01 -0.21103504012E-01  0.10198897132E+01  0.10196063415E+01 0.  0.
     999903    2    3    3    0    0  0.12922331450E-01 -0.12768331112E+00  0.18115274114E-01  0.13129865765E+00  0.21003803379E-01 0.  0.
         14    1    1    2    0    0 -0.20358133235E-02  0.11332827259E-01  0.21103504012E-01  0.24040286836E-01  0.00000000000E+00 0. -1.
     999901    1    3    3    0    0 -0.10886518126E-01  0.11635048386E+00 -0.39218778126E-01  0.88859105551E+00  0.88000000000E+00 0.  1.
        -11    1    4    4    0    0 -0.39021493739E-02 -0.57043268897E-01  0.11994696671E-01  0.58423412819E-01  0.51100000000E-03 0. -1.
         11    1    4    4    0    0  0.16824480824E-01 -0.70640042226E-01  0.61205774422E-02  0.72875244836E-01  0.51100000000E-03 0.  1.
</event>
<event>
 8    1  0.1112958E+005  0.1043930E+01  0.7957747E-01            NaN
         13   -1    0    0    0    0  0.00000000000E+00  0.00000000000E+00  0.74505805969E-08  0.10566000000E+00  0.10566000000E+00 0.  1.
     999900   -1    0    0    0    0 -0.00000000000E+00 -0.00000000000E+00 -0.74505805969E-08  0.93827000000E+00  0.93827000000E+00 0. -1.
     999902    2    1    2    0    0  0.71483960446E-02 -0.15636732370E-02 -0.23964935097E-01  0.10188728103E+01  0.10185646474E+01 0.  0.
     999903    2    3    3    0    0  0.14940878789E-02 -0.85683729188E-01  0.90901451276E-01  0.12741196333E+00  0.25035990285E-01 0.  0.
         14    1    1    2    0    0 -0.71483960446E-02  0.15636732370E-02  0.23964935097E-01  0.25057189671E-01  0.00000000000E+00 0.  1.
     999901    1    3    3    0    0  0.56543081657E-02  0.84120055951E-01 -0.11486638637E+00  0.89146084700E+00  0.88000000000E+00 0. -1.
        -11    1    4    4    0    0  0.77713729610E-02 -0.23404317757E-01  0.14390841936E-01  0.28557201894E-01  0.51100000000E-03 0. -1.
         11    1    4    4    0    0 -0.62772850821E-02 -0.62279411431E-01  0.76510609340E-01  0.98854761437E-01  0.51100000000E-03 0.  1.
</event>
<event>
 8    1  0.1112958E+005  0.1043930E+01  0.7957747E-01            NaN
         13   -1    0    0    0    0  0.00000000000E+00  0.00000000000E+00  0.74505805969E-08  0.10566000000E+00  0.10566000000E+00 0.  1.
     999900   -1    0    0    0    0 -0.00000000000E+00 -0.00000000000E+00 -0.74505805969E-08  0.93827000000E+00  0.93827000000E+00 0.  1.
     999902    2    1    2    0    0  0.18350787828E-01 -0.11647773649E-01 -0.91007430214E-02  0.10203663507E+01  0.10200942329E+01 0.  0.
     999903    2    3    3    0    0  0.84897200826E-01  0.28704478444E-01 -0.95934486700E-01  0.13267449629E+00  0.19173274053E-01 0.  0.
         14    1    1    2    0    0 -0.18350787828E-01  0.11647773649E-01  0.91007430214E-02  0.23563649302E-01  0.00000000000E+00 0.  1.
     999901    1    3    3    0    0 -0.66546412998E-01 -0.40352252094E-01  0.86833743678E-01  0.88769185440E+00  0.88000000000E+00 0. -1.
        -11    1    4    4    0    0  0.53352322201E-01  0.10811587889E-01 -0.66656866564E-01  0.86062533649E-01  0.51100000000E-03 0.  1.
         11    1    4    4    0    0  0.31544878625E-01  0.17892890556E-01 -0.29277620135E-01  0.46611962646E-01  0.51100000000E-03 0. -1.
</event>
<event>
 8    1  0.1112958E+005  0.1043930E+01  0.7957747E-01            NaN
         13   -1    0    0    0    0  0.00000000000E+00  0.00000000000E+00  0.74505805969E-08  0.10566000000E+00  0.10566000000E+00 0.  1.
     999900   -1    0    0    0    0 -0.00000000000E+00 -0.00000000000E+00 -0.74505805969E-08  0.93827000000E+00  0.93827000000E+00 0.  1.
     999902    2    1    2    0    0  0.14849199097E-01  0.17110212497E-01  0.37627475599E-02  0.10209644529E+01  0.10207061270E+01 0.  0.
     999903    2    3    3    0    0  0.97837531259E-01  0.33869678763E-01  0.81769790829E-01  0.13346626032E+00  0.20189261747E-01 0.  0.
         14    1    1    2    0    0 -0.14849199097E-01 -0.17110212497E-01 -0.37627475599E-02  0.22965547124E-01  0.00000000000E+00 0. -1.
     999901    1    3    3    0    0 -0.82988332162E-01 -0.16759466266E-01 -0.78007043269E-01  0.88749819255E+00  0.88000000000E+00 0.  1.
        -11    1    4    4    0    0  0.21017692650E-01 -0.54392651787E-03  0.12609949301E-01  0.24521647635E-01  0.51100000000E-03 0. -1.
         11    1    4    4    0    0  0.76819838609E-01  0.34413605281E-01  0.69159841528E-01  0.10894461269E+00  0.51100000000E-03 0.  1.
</event>
<event>
 7    1  0.1112958E+005  0.1043930E+01  0.7957747E-01            NaN
         13   -1    0    0    0    0  0.00000000000E+00  0.00000000000E+00  0.74505805969E-08  0.10566000000E+00  0.10566000000E+00 0. -1.
     999900   -1    0    0    0    0 -0.00000000000E+00 -0.00000000000E+00 -0.74505805969E-08  0.93827000000E+00  0.93827000000E+00 0.  1.
     999902    2    1    2    0    0  0.13465922064E-01 -0.34867239648E-01 -0.77794352147E-02  0.10057517985E+01  0.10050269176E+01 0.  0.
         14    1    1    2    0    0 -0.13465922064E-01  0.34867239648E-01  0.77794352147E-02  0.38178201502E-01  0.00000000000E+00 0. -1.
     999901    1    3    3    0    0 -0.11334740776E-01  0.78085508234E-01  0.77181085843E-02  0.88356402832E+00  0.88000000000E+00 0. -1.
        -11    1    3    3    0    0  0.12508185746E-01 -0.24143796201E-01  0.99984076059E-02  0.28975970757E-01  0.51100000000E-03 0.  1.
         11    1    3    3    0    0  0.12292477093E-01 -0.88808951681E-01 -0.25495951405E-01  0.93211799418E-01  0.51100000000E-03 0. -1.
</event>
<event>
 8    1  0.1112958E+005  0.1043930E+01  0.7957747E-01            NaN
         13   -1    0    0    0    0  0.00000000000E+00  0.00000000000E+00  0.74505805969E-08  0.10566000000E+00  0.10566000000E+00 0.  1.
     999900   -1    0    0    0    0 -0.00000000000E+00 -0.00000000000E+00 -0.74505805969E-08  0.93827000000E+00  0.93827000000E+00 0. -1.
     999902    2    1    2    0    0 -0.41735813761E-02  0.20944230095E-01 -0.44576365574E-02  0.10221137199E+01  0.10218808669E+01 0.  0.
     999903    2    3    3    0    0  0.11547519514E+00 -0.49437637332E-01  0.29776834655E-01  0.13057491755E+00  0.19609909109E-01 0.  0.
         14    1    1    2    0    0  0.41735813761E-02 -0.20944230095E-01  0.44576365574E-02  0.21816280147E-01  0.00000000000E+00 0.  1.
     999901    1    3    3    0    0 -0.11964877651E+00  0.70381867427E-01 -0.34234471212E-01  0.89153880230E+00  0.88000000000E+00 0. -1.
        -11    1    4    4    0    0  0.66973828060E-01 -0.20504486919E-01  0.10107027764E-01  0.70769631623E-01  0.51100000000E-03 0. -1.
         11    1    4    4    0    0  0.48501367078E-01 -0.28933150414E-01  0.19669806891E-01  0.59805285932E-01  0.51100000000E-03 0.  1.
</event>
<event>
 8    1  0.1112958E+005  0.1043930E+01  0.7957747E-01            NaN
         13   -1    0    0    0    0  0.00000000000E+00  0.00000000000E+00  0.74505805969E-08  0.10566000000E+00  0.10566000000E+00 0.  1.
     999900   -1    0    0    0    0 -0.00000000000E+00 -0.00000000000E+00 -0.74505805969E-08  0.93827000000E+00  0.93827000000E+00 0.  1.
     999902    2    1    2    0    0  0.15999074180E-01 -0.15855109032E-01  0.52163253008E-02  0.10208093403E+01  0.10205474728E+01 0.  0.
     999903    2    3    3    0    0  0.44186415502E-01  0.64143269150E-01  0.10378976731E+00  0.13125271464E+00  0.19701802207E-01 0.  0.
         14    1    1    2    0    0 -0.15999074180E-01  0.15855109032E-01 -0.52163253008E-02  0.23120659737E-01  0.00000000000E+00 0. -1.
     999901    1    3    3    0    0 -0.28187341322E-01 -0.79998378182E-01 -0.98573442006E-01  0.88955662562E+00  0.88000000000E+00 0.  1.
        -11    1    4    4    0    0  0.10743221544E-02  0.14584145161E-01  0.17757138073E-01  0.23009314021E-01  0.51100000000E-03 0.  1.
         11    1    4    4    0    0  0.43112093348E-01  0.49559123989E-01  0.86032629234E-01  0.10824340062E+00  0.51100000000E-03 0. -1.
</event>
<event>
 8    1  0.1112958E+005  0.1043930E+01  0.7957747E-01            NaN
         13   -1    0    0    0    0  0.00000000000E+00  0.00000000000E+00  0.74505805969E-08  0.10566000000E+00  0.10566000000E+00 0.  1.
     999900   -1    0    0    0    0 -0.00000000000E+00 -0.00000000000E+00 -0.74505805969E-08  0.93827000000E+00  0.93827000000E+00 0.  1.
     999902    2    1    2    0    0 -0.31675252442E-02 -0.21521906370E-01  0.91676749205E-02  0.10203233922E+01  0.10200502697E+01 0.  0.
     999903    2    3    3    0    0  0.11540063412E+00  0.53279378885E-01  0.11963602001E-01  0.12922213086E+00  0.19980809858E-01 0.  0.
         14    1    1    2    0    0  0.31675252442E-02  0.21521906370E-01 -0.91676749205E-02  0.23606607834E-01  0.00000000000E+00 0. -1.
     999901    1    3    3    0    0 -0.11856815936E+00 -0.74801285255E-01 -0.27959270804E-02  0.89110126130E+00  0.88000000000E+00 0. -1.
        -11    1    4    4    0    0  0.88690242451E-01  0.46637830023E-01  0.29293117264E-02  0.10024913109E+00  0.51100000000E-03 0. -1.
         11    1    4    4    0    0  0.26710391666E-01  0.66415488621E-02  0.90342902746E-02  0.28972999775E-01  0.51100000000E-03 0.  1.
</event>
<event>
 8    1  0.1112958E+005  0.1043930E+01  0.7957747E-01            NaN
         13   -1    0    0    0    0  0.00000000000E+00  0.00000000000E+00  0.74505805969E-08  0.10566000000E+00  0.10566000000E+00 0. -1.
     999900   -1    0    0    0    0 -0.00000000000E+00 -0.00000000000E+00 -0.74505805969E-08  0.93827000000E+00  0.93827000000E+00 0. -1.
     999902    2    1    2    0    0 -0.47582233182E-02 -0.22272423071E-01  0.34658283256E-02  0.10208927805E+01  0.10206328212E+01 0.  0.
     999903    2    3    3    0    0  0.67435694760E-02  0.76857413362E-01  0.10246707535E+00  0.12973608120E+00  0.19478488532E-01 0.  0.
         14    1    1    2    0    0  0.47582233182E-02  0.22272423071E-01 -0.34658283256E-02  0.23037219549E-01  0.00000000000E+00 0. -1.
     999901    1    3    3    0    0 -0.11501792794E-01 -0.99129836432E-01 -0.99001247027E-01  0.89115669925E+00  0.88000000000E+00 0. -1.
        -11    1    4    4    0    0  0.12956425295E-01  0.44417660611E-01  0.54476325723E-01  0.71475371394E-01  0.51100000000E-03 0. -1.
         11    1    4    4    0    0 -0.62128558191E-02  0.32439752751E-01  0.47990749630E-01  0.58260709805E-01  0.51100000000E-03 0.  1.
</event>
<event>
 8    1  0.1112958E+005  0.1043930E+01  0.7957747E-01            NaN
         13   -1    0    0    0    0  0.00000000000E+00  0.00000000000E+00  0.74505805969E-08  0.10566000000E+00  0.10566000000E+00 0. -1.
     999900   -1    0    0    0    0 -0.00000000000E+00 -0.00000000000E+00 -0.74505805969E-08  0.93827000000E+00  0.93827000000E+00 0.  1.
     999902    2    1    2    0    0  0.92208245941E-02 -0.20953239305E-01  0.29579884486E-02  0.10208472892E+01  0.10205862905E+01 0.  0.
     999903    2    3    3    0    0 -0.11970020394E+00 -0.64232059108E-02 -0.46556182613E-01  0.12995817901E+00  0.18768424418E-01 0.  0.
         14    1    1    2    0    0 -0.92208245941E-02  0.20953239305E-01 -0.29579884486E-02  0.23082710830E-01  0.00000000000E+00 0.  1.
     999901    1    3    3    0    0  0.12892102853E+00 -0.14530033395E-01  0.49514171061E-01  0.89088911016E+00  0.88000000000E+00 0.  1.
        -11    1    4    4    0    0 -0.59817592579E-01 -0.12088420900E-01 -0.20198195469E-01  0.64284543422E-01  0.51100000000E-03 0. -1.
         11    1    4    4    0    0 -0.59882611358E-01  0.56652149889E-02 -0.26357987143E-01  0.65673635587E-01  0.51100000000E-03 0.  1.
</event>
<event>
 8    1  0.1112958E+005  0.1043930E+01  0.7957747E-01            NaN
         13   -1    0    0    0    0  0.00000000000E+00  0.00000000000E+00  0.74505805969E-08  0.10566000000E+00  0.10566000000E+00 0.  1.
     999900   -1    0    0    0    0 -0.00000000000E+00 -0.00000000000E+00 -0.74505805969E-08  0.93827000000E+00  0.93827000000E+00 0.  1.
     999902    2    1    2    0    0  0.15089194822E-01 -0.16955916170E-01 -0.98751067615E-02  0.10191771289E+01  0.10188764967E+01 0.  0.
     999903    2    3    3    0    0  0.10428094793E+00  0.57858531608E-01 -0.49759805313E-01  0.13061471715E+00  0.19027357425E-01 0.  0.
         14    1    1    2    0    0 -0.15089194822E-01  0.16955916170E-01  0.98751067615E-02  0.24752871087E-01  0.00000000000E+00 0.  1.
     999901    1    3    3    0    0 -0.89191753107E-01 -0.74814447778E-01  0.39884698551E-01  0.88856241176E+00  0.88000000000E+00 0. -1.
        -11    1    4    4    0    0  0.44449385224E-01  0.23222635821E-01 -0.10962024032E-01  0.51336787522E-01  0.51100000000E-03 0. -1.
         11    1    4    4    0    0  0.59831562705E-01  0.34635895787E-01 -0.38797781281E-01  0.79277929628E-01  0.51100000000E-03 0.  1.
</event>
<event>
 8    1  0.1112958E+005  0.1043930E+01  0.7957747E-01            NaN
         13   -1    0    0    0    0  0.00000000000E+00  0.00000000000E+00  0.74505805969E-08  0.10566000000E+00  0.10566000000E+00 0. -1.
     999900   -1    0    0    0    0 -0.00000000000E+00 -0.00000000000E+00 -0.74505805969E-08  0.93827000000E+00  0.93827000000E+00 0. -1.
     999902    2    1    2    0    0 -0.87817708644E-02 -0.14510376763E-01  0.13073885687E-01  0.10225151215E+01  0.10222908474E+01 0.  0.
     999903    2    3    3    0    0  0.34917796894E-01  0.31552294977E-01 -0.11967765892E+00  0.13029631733E+00  0.20966363748E-01 0.  0.
         14    1    1    2    0    0  0.87817708644E-02  0.14510376763E-01 -0.13073885687E-01  0.21414878479E-01  0.00000000000E+00 0.  1.
     999901    1    3    3    0    0 -0.43699567758E-01 -0.46062671740E-01  0.13275154460E+00  0.89221880419E+00  0.88000000000E+00 0.  1.
        -11    1    4    4    0    0  0.12589913301E-01  0.23020270913E-01 -0.47572018858E-01  0.54330441642E-01  0.51100000000E-03 0.  1.
         11    1    4    4    0    0  0.22327883592E-01  0.85320240645E-02 -0.72105640059E-01  0.75965875692E-01  0.51100000000E-03 0. -1.
</event>
<event>
 8    1  0.1112958E+005  0.1043930E+01  0.7957747E-01            NaN
         13   -1    0    0    0    0  0.00000000000E+00  0.00000000000E+00  0.74505805969E-08  0.10566000000E+00  0.10566000000E+00 0. -1.
     999900   -1    0    0    0    0 -0.00000000000E+00 -0.00000000000E+00 -0.74505805969E-08  0.93827000000E+00  0.93827000000E+00 0. -1.
     999902    2    1    2    0    0 -0.12060959458E-01  0.11511911915E-01 -0.16410008911E-01  0.10205359997E+01  0.10202678312E+01 0.  0.
     999903    2    3    3    0    0 -0.95527797385E-01  0.79117023352E-01 -0.46023843251E-01  0.13351055285E+00  0.17939066771E-01 0.  0.
         14    1    1    2    0    0  0.12060959458E-01 -0.11511911915E-01  0.16410008911E-01  0.23394000331E-01  0.00000000000E+00 0. -1.
     999901    1    3    3    0    0  0.83466837927E-01 -0.67605111437E-01  0.29613834340E-01  0.88702544682E+00  0.88000000000E+00 0.  1.
        -11    1    4    4    0    0 -0.44199559973E-01  0.26411753847E-01 -0.23228427144E-01  0.56488961680E-01  0.51100000000E-03 0. -1.
         11    1    4    4    0    0 -0.51328237412E-01  0.52705269505E-01 -0.22795416107E-01  0.77021591167E-01  0.51100000000E-03 0.  1.
</event>
<event>
 8    1  0.1112958E+005  0.1043930E+01  0.7957747E-01            NaN
         13   -1    0    0    0    0  0.00000000000E+00  0.00000000000E+00  0.74505805969E-08  0.10566000000E+00  0.10566000000E+00 0.  1.
     999900   -1    0    0    0    0 -0.00000000000E+00 -0.00000000000E+00 -0.74505805969E-08  0.93827000000E+00  0.93827000000E+00 0. -1.
     999902    2    1    2    0    0  0.27182491349E-02 -0.23715725633E-01 -0.15514214944E-02  0.10200086407E+01  0.10197280989E+01 0.  0.
     999903    2    3    3    0    0 -0.35729983319E-01 -0.65001662657E-01  0.10740482072E+00  0.13149625596E+00  0.15925512939E-01 0.  0.
         14    1    1    2    0    0 -0.27182491349E-02  0.23715725633E-01  0.15514214944E-02  0.23921359270E-01  0.00000000000E+00 0. -1.
     999901    1    3    3    0    0  0.38448232454E-01  0.41285937024E-01 -0.10895624221E+00  0.88851238477E+00  0.88000000000E+00 0. -1.
        -11    1    4    4    0    0 -0.92849880116E-02 -0.32880605271E-01  0.51537377339E-01  0.61836134981E-01  0.51100000000E-03 0.  1.
         11    1    4    4    0    0 -0.26444995308E-01 -0.32121057386E-01  0.55867443376E-01  0.69660120979E-01  0.51100000000E-03 0. -1.
</event>
<event>
 8    1  0.1112958E+005  0.1043930E+01  0.7957747E-01            NaN
         13   -1    0    0    0    0  0.00000000000E+00  0.00000000000E+00  0.74505805969E-08  0.10566000000E+00  0.10566000000E+00 0. -1.
     999900   -1    0    0    0    0 -0.00000000000E+00 -0.00000000000E+00 -0.74505805969E-08  0.93827000000E+00  0.93827000000E+00 0. -1.
     999902    2    1    2    0    0 -0.69296113483E-02  0.91336152410E-02 -0.21963616329E-01  0.10191541472E+01  0.10188529496E+01 0.  0.
     999903    2    3    3    0    0  0.93575475582E-01 -0.84777724434E-01 -0.88134645158E-02  0.12837160429E+00  0.21399986934E-01 0.  0.
         14    1    1    2    0    0  0.69296113483E-02 -0.91336152410E-02  0.21963616329E-01  0.24775852822E-01  0.00000000000E+00 0. -1.
     999901    1    3    3    0    0 -0.10050508693E+00  0.93911339675E-01 -0.13150151813E-01  0.89078254289E+00  0.88000000000E+00 0.  1.
        -11    1    4    4    0    0  0.43493215484E-01 -0.38363767411E-01 -0.14708068418E-01  0.59833325502E-01  0.51100000000E-03 0. -1.
         11    1    4    4    0    0  0.50082260099E-01 -0.46413957023E-01  0.58946039025E-02  0.68538278789E-01  0.51100000000E-03 0.  1.
</event>
<event>
 8    1  0.1112958E+005  0.1043930E+01  0.7957747E-01            NaN
         13   -1    0    0    0    0  0.00000000000E+00  0.00000000000E+00  0.74505805969E-08  0.10566000000E+00  0.10566000000E+00 0.  1.
     999900   -1    0    0    0    0 -0.00000000000E+00 -0.00000000000E+00 -0.74505805969E-08  0.93827000000E+00  0.93827000000E+00 0. -1.
     999902    2    1    2    0    0  0.25394051960E-01  0.25723515465E-02 -0.70003036232E-02  0.10174634340E+01  0.10171191476E+01 0.  0.
     999903    2    3    3    0    0  0.45043271615E-01  0.11271558514E+00  0.41125355965E-01  0.12907517263E+00  0.15342940902E-01 0.  0.
         14    1    1    2    0    0 -0.25394051960E-01 -0.25723515465E-02  0.70003036232E-02  0.26466566046E-01  0.00000000000E+00 0. -1.
     999901    1    3    3    0    0 -0.19649219655E-01 -0.11014323360E+00 -0.48125659589E-01  0.88838826132E+00  0.88000000000E+00 0.  1.
        -11    1    4    4    0    0  0.14992691122E-01  0.37512467424E-01  0.21411061256E-01  0.45723742896E-01  0.51100000000E-03 0.  1.
         11    1    4    4    0    0  0.30050580493E-01  0.75203117718E-01  0.19714294710E-01  0.83351429738E-01  0.51100000000E-03 0. -1.
</event>
<event>
 8    1  0.1112958E+005  0.1043930E+01  0.7957747E-01            NaN
         13   -1    0    0    0    0  0.00000000000E+00  0.00000000000E+00  0.74505805969E-08  0.10566000000E+00  0.10566000000E+00 0. -1.
     999900   -1    0    0    0    0 -0.00000000000E+00 -0.00000000000E+00 -0.74505805969E-08  0.93827000000E+00  0.93827000000E+00 0.  1.
     999902    2    1    2    0    0  0.17889241932E-01  0.12251074234E-01  0.76877061738E-02  0.10209253348E+01  0.10206661180E+01 0.  0.
     999903    2    3    3    0    0  0.10932897259E+00  0.70977660692E-01 -0.22859936945E-01  0.13371442702E+00  0.19139454312E-01 0.  0.
         14    1    1    2    0    0 -0.17889241932E-01 -0.12251074234E-01 -0.76877061738E-02  0.23004665245E-01  0.00000000000E+00 0.  1.
     999901    1    3    3    0    0 -0.91439730660E-01 -0.58726586457E-01  0.30547643118E-01  0.88721090773E+00  0.88000000000E+00 0. -1.
        -11    1    4    4    0    0  0.94258587006E-01  0.68117151895E-01 -0.21865920683E-01  0.11833430278E+00  0.51100000000E-03 0. -1.
         11    1    4    4    0    0  0.15070385587E-01  0.28605087967E-02 -0.99401626160E-03  0.15380124240E-01  0.51100000000E-03 0.  1.
</event>
<event>
 8    1  0.1112958E+005  0.1043930E+01  0.7957747E-01            NaN
         13   -1    0    0    0    0  0.00000000000E+00  0.00000000000E+00  0.74505805969E-08  0.10566000000E+00  0.10566000000E+00 0.  1.
     999900   -1    0    0    0    0 -0.00000000000E+00 -0.00000000000E+00 -0.74505805969E-08  0.93827000000E+00  0.93827000000E+00 0.  1.
     999902    2    1    2    0    0  0.24051962288E-01 -0.42719075637E-02 -0.32431116051E-02  0.10192872758E+01  0.10189893457E+01 0.  0.
     999903    2    3    3    0    0  0.45381991842E-01 -0.33901226774E-01  0.11581233311E+00  0.13052011525E+00  0.20351550878E-01 0.  0.
         14    1    1    2    0    0 -0.24051962288E-01  0.42719075637E-02  0.32431116051E-02  0.24642724221E-01  0.00000000000E+00 0. -1.
     999901    1    3    3    0    0 -0.21330029554E-01  0.29629319210E-01 -0.11905544472E+00  0.88876716053E+00  0.88000000000E+00 0.  1.
        -11    1    4    4    0    0  0.25508008924E-01 -0.25957481222E-01  0.54134319202E-01  0.65232162214E-01  0.51100000000E-03 0. -1.
         11    1    4    4    0    0  0.19873982918E-01 -0.79437455513E-02  0.61678013913E-01  0.65287953036E-01  0.51100000000E-03 0.  1.
</event>
<event>
 8    1  0.1112958E+005  0.1043930E+01  0.7957747E-01            NaN
         13   -1    0    0    0    0  0.00000000000E+00  0.00000000000E+00  0.74505805969E-08  0.10566000000E+00  0.10566000000E+00 0. -1.
     999900   -1    0    0    0    0 -0.00000000000E+00 -0.00000000000E+00 -0.74505805969E-08  0.93827000000E+00  0.93827000000E+00 0. -1.
     999902    2    1    2    0    0 -0.12893032686E-01  0.16412757861E-01 -0.44210130899E-02  0.10225956552E+01  0.10223730824E+01 0.  0.
     999903    2    3    3    0    0 -0.11061325617E+00  0.72368127850E-01  0.19412392449E-01  0.13510014717E+00  0.20069140851E-01 0.  0.
         14    1    1    2    0    0  0.12893032686E-01 -0.16412757861E-01  0.44210130899E-02  0.21334344827E-01  0.00000000000E+00 0.  1.
     999901    1    3    3    0    0  0.97720223488E-01 -0.55955369989E-01 -0.23833405539E-01  0.88749550800E+00  0.88000000000E+00 0. -1.
        -11    1    4    4    0    0 -0.80257178910E-01  0.60931085774E-01  0.19602797712E-01  0.10265643077E+00  0.51100000000E-03 0.  1.
         11    1    4    4    0    0 -0.30356077264E-01  0.11437042075E-01 -0.19040526280E-03  0.32443716394E-01  0.51100000000E-03 0. -1.
</event>
<event>
 8    1  0.1112958E+005  0.1043930E+01  0.7957747E-01            NaN
         13   -1    0    0    0    0  0.00000000000E+00  0.00000000000E+00  0.74505805969E-08  0.10566000000E+00  0.10566000000E+00 0.  1.
     999900   -1    0    0    0    0 -0.00000000000E+00 -0.00000000000E+00 -0.74505805969E-08  0.93827000000E+00  0.93827000000E+00 0.  1.
     999902    2    1    2    0    0  0.18349682202E-01  0.52270325577E-02  0.13993866607E-01  0.10202686178E+01  0.10199942115E+01 0.  0.
     999903    2    3    3    0    0  0.92441683313E-01  0.55099919665E-01  0.77070636069E-01  0.13350167638E+00  0.17359397804E-01 0.  0.
         14    1    1    2    0    0 -0.18349682202E-01 -0.52270325577E-02 -0.13993866607E-01  0.23661382227E-01  0.00000000000E+00 0.  1.
     999901    1    3    3    0    0 -0.74092001112E-01 -0.49872887107E-01 -0.63076769462E-01  0.88676694139E+00  0.88000000000E+00 0. -1.
        -11    1    4    4    0    0  0.50584412692E-01  0.39002839907E-01  0.49974490651E-01  0.81103114398E-01  0.51100000000E-03 0.  1.
         11    1    4    4    0    0  0.41857270621E-01  0.16097079758E-01  0.27096145418E-01  0.52398561985E-01  0.51100000000E-03 0. -1.
</event>
<event>
 8    1  0.1112958E+005  0.1043930E+01  0.7957747E-01            NaN
         13   -1    0    0    0    0  0.00000000000E+00  0.00000000000E+00  0.74505805969E-08  0.10566000000E+00  0.10566000000E+00 0.  1.
     999900   -1    0    0    0    0 -0.00000000000E+00 -0.00000000000E+00 -0.74505805969E-08  0.93827000000E+00  0.93827000000E+00 0.  1.
     999902    2    1    2    0    0  0.12028859663E-01  0.81187913538E-02 -0.18218176462E-01  0.10206381518E+01  0.10203723471E+01 0.  0.
     999903    2    3    3    0    0  0.87486857757E-01  0.62993260536E-01 -0.76619134139E-01  0.13378089798E+00  0.20118046475E-01 0.  0.
         14    1    1    2    0    0 -0.12028859663E-01 -0.81187913538E-02  0.18218176462E-01  0.23291848176E-01  0.00000000000E+00 0.  1.
     999901    1    3    3    0    0 -0.75457998094E-01 -0.54874469182E-01  0.58400957677E-01  0.88685725385E+00  0.88000000000E+00 0.  1.
        -11    1    4    4    0    0  0.15639061019E-01  0.83606605440E-02 -0.22070597893E-01  0.28317014084E-01  0.51100000000E-03 0. -1.
         11    1    4    4    0    0  0.71847796739E-01  0.54632599992E-01 -0.54548536246E-01  0.10546388389E+00  0.51100000000E-03 0.  1.
</event>
<event>
 8    1  0.1112958E+005  0.1043930E+01  0.7957747E-01            NaN
         13   -1    0    0    0    0  0.00000000000E+00  0.00000000000E+00  0.74505805969E-08  0.10566000000E+00  0.10566000000E+00 0.  1.
     999900   -1    0    0    0    0 -0.00000000000E+00 -0.00000000000E+00 -0.74505805969E-08  0.93827000000E+00  0.93827000000E+00 0. -1.
     999902    2    1    2    0    0  0.19744759713E-01  0.10651610701E-01 -0.38415480296E-02  0.10211688524E+01  0.10209151558E+01 0.  0.
     999903    2    3    3    0    0  0.87112955702E-01 -0.45912891314E-01 -0.86285713066E-01  0.13294868995E+00  0.23096953048E-01 0.  0.
         14    1    1    2    0    0 -0.19744759713E-01 -0.10651610701E-01  0.38415480296E-02  0.22761147552E-01  0.00000000000E+00 0.  1.
     999901    1    3    3    0    0 -0.67368195990E-01  0.56564502016E-01  0.82444165036E-01  0.88822016250E+00  0.88000000000E+00 0. -1.
        -11    1    4    4    0    0  0.18933635083E-01 -0.10529980453E-01 -0.32929598424E-01  0.39420585982E-01  0.51100000000E-03 0.  1.
         11    1    4    4    0    0  0.68179320620E-01 -0.35382910862E-01 -0.53356114641E-01  0.93528103968E-01  0.51100000000E-03 0. -1.
</event>
<event>
 8    1  0.1112958E+005  0.1043930E+01  0.7957747E-01            NaN
         13   -1    0    0    0    0  0.00000000000E+00  0.00000000000E+00  0.74505805969E-08  0.10566000000E+00  0.10566000000E+00 0.  1.
     999900   -1    0    0    0    0 -0.00000000000E+00 -0.00000000000E+00 -0.74505805969E-08  0.93827000000E+00  0.93827000000E+00 0. -1.
     999902    2    1    2    0    0 -0.12318176027E-01 -0.18591100226E-01  0.97558834233E-02  0.10195877789E+01  0.10192971574E+01 0.  0.
     999903    2    3    3    0    0 -0.11311894837E+00  0.41863065829E-01 -0.44435808149E-01  0.13012038692E+00  0.20207951057E-01 0.  0.
         14    1    1    2    0    0  0.12318176027E-01  0.18591100226E-01 -0.97558834233E-02  0.24342221131E-01  0.00000000000E+00 0. -1.
     999901    1    3    3    0    0  0.10080077235E+00 -0.60454166054E-01  0.54191691572E-01  0.88946739195E+00  0.88000000000E+00 0. -1.
        -11    1    4    4    0    0 -0.10234558309E-01  0.95221591311E-02 -0.16146315263E-02  0.14081401005E-01  0.51100000000E-03 0. -1.
         11    1    4    4    0    0 -0.10288439006E+00  0.32340906697E-01 -0.42821176622E-01  0.11603898592E+00  0.51100000000E-03 0.  1.
</event>
<event>
 8    1  0.1112958E+005  0.1043930E+01  0.7957747E-01            NaN
         13   -1    0    0    0    0  0.00000000000E+00  0.00000000000E+00  0.74505805969E-08  0.10566000000E+00  0.10566000000E+00 0. -1.
     999900   -1    0    0    0    0 -0.00000000000E+00 -0.00000000000E+00 -0.74505805969E-08  0.93827000000E+00  0.93827000000E+00 0. -1.
     999902    2    1    2    0    0  0.42804932474E-02 -0.23222681470E-01 -0.64411193018E-03  0.10203073321E+01  0.10200338335E+01 0.  0.
     999903    2    3    3    0    0 -0.24720307939E-01 -0.15309233638E-01 -0.12581540484E+00  0.13094153467E+00  0.21695694179E-01 0.  0.
         14    1    1    2    0    0 -0.42804932474E-02  0.23222681470E-01  0.64411193018E-03  0.23622667870E-01  0.00000000000E+00 0.  1.
     999901    1    3    3    0    0  0.29000801186E-01 -0.79134478324E-02  0.12517129291E+00  0.88936579746E+00  0.88000000000E+00 0.  1.
        -11    1    4    4    0    0 -0.48553701304E-02 -0.29037104258E-02 -0.72307992928E-01  0.72530773577E-01  0.51100000000E-03 0. -1.
         11    1    4    4    0    0 -0.19864937808E-01 -0.12405523212E-01 -0.53507411916E-01  0.58410761091E-01  0.51100000000E-03 0.  1.
</event>
<event>
 8    1  0.1112958E+005  0.1043930E+01  0.7957747E-01            NaN
         13   -1    0    0    0    0  0.00000000000E+00  0.00000000000E+00  0.74505805969E-08  0.10566000000E+00  0.10566000000E+00 0. -1.
     999900   -1    0    0    0    0 -0.00000000000E+00 -0.00000000000E+00 -0.74505805969E-08  0.93827000000E+00  0.93827000000E+00 0.  1.
     999902    2    1    2    0    0 -0.92651768505E-02 -0.11091386014E-01  0.18655356302E-01  0.10203315961E+01  0.10200586657E+01 0.  0.
     999903    2    3    3    0    0 -0.43527775605E-01  0.89526726372E-01  0.80458701416E-01  0.13178357624E+00  0.31362499078E-01 0.  0.
         14    1    1    2    0    0  0.92651768505E-02  0.11091386014E-01 -0.18655356302E-01  0.23598403855E-01  0.00000000000E+00 0.  1.
     999901    1    3    3    0    0  0.34262598755E-01 -0.10061811239E+00 -0.61803345115E-01  0.88854801991E+00  0.88000000000E+00 0. -1.
        -11    1    4    4    0    0 -0.27843991544E-01  0.69845522163E-01  0.74640165338E-01  0.10594857353E+00  0.51100000000E-03 0. -1.
         11    1    4    4    0    0 -0.15683784061E-01  0.19681204208E-01  0.58185360785E-02  0.25835002703E-01  0.51100000000E-03 0.  1.
</event>
<event>
 8    1  0.1112958E+005  0.1043930E+01  0.7957747E-01            NaN
         13   -1    0    0    0    0  0.00000000000E+00  0.00000000000E+00  0.74505805969E-08  0.10566000000E+00  0.10566000000E+00 0.  1.
     999900   -1    0    0    0    0 -0.00000000000E+00 -0.00000000000E+00 -0.74505805969E-08  0.93827000000E+00  0.93827000000E+00 0. -1.
     999902    2    1    2    0    0  0.17764766574E-01 -0.99297304271E-02 -0.11891227642E-01  0.10203590905E+01  0.10200868031E+01 0.  0.
     999903    2    3    3    0    0  0.75388050636E-01 -0.91695216732E-01 -0.56821996722E-01  0.13355313002E+00  0.22722857989E-01 0.  0.
         14    1    1    2    0    0 -0.17764766574E-01  0.99297304271E-02  0.11891227642E-01  0.23570909457E-01  0.00000000000E+00 0.  1.
     999901    1    3    3    0    0 -0.57623284062E-01  0.81765486305E-01  0.44930769080E-01  0.88680596053E+00  0.88000000000E+00 0.  1.
        -11    1    4    4    0    0  0.45581692287E-01 -0.67333090132E-01 -0.30171278569E-01  0.86729480974E-01  0.51100000000E-03 0. -1.
         11    1    4    4    0    0  0.29806358349E-01 -0.24362126600E-01 -0.26650718154E-01  0.46823649042E-01  0.51100000000E-03 0.  1.
</event>
<event>
 8    1  0.1112958E+005  0.1043930E+01  0.7957747E-01            NaN
         13   -1    0    0    0    0  0.00000000000E+00  0.00000000000E+00  0.74505805969E-08  0.10566000000E+00  0.10566000000E+00 0. -1.
     999900   -1    0    0    0    0 -0.00000000000E+00 -0.00000000000E+00 -0.74505805969E-08  0.93827000000E+00  0.93827000000E+00 0.  1.
     999902    2    1    2    0    0  0.38115932049E-02  0.11304333050E-01  0.21440288446E-01  0.10193942677E+01  0.10190989505E+01 0.  0.
     999903    2    3    3    0    0 -0.66931420712E-01 -0.26950148346E-01 -0.10270193718E+00  0.12704945124E+00  0.19691358139E-01 0.  0.
         14    1    1    2    0    0 -0.38115932049E-02 -0.11304333050E-01 -0.21440288446E-01  0.24535732252E-01  0.00000000000E+00 0. -1.
     999901    1    3    3    0    0  0.70743013917E-01  0.38254481396E-01  0.12414222563E+00  0.89234481651E+00  0.88000000000E+00 0. -1.
        -11    1    4    4    0    0 -0.24606678979E-01  0.48539763592E-06 -0.34061736052E-01  0.42023227321E-01  0.51100000000E-03 0. -1.
         11    1    4    4    0    0 -0.42324741733E-01 -0.26950633743E-01 -0.68640201129E-01  0.85026223919E-01  0.51100000000E-03 0.  1.
</event>
<event>
 8    1  0.1112958E+005  0.1043930E+01  0.7957747E-01            NaN
         13   -1    0    0    0    0  0.00000000000E+00  0.00000000000E+00  0.74505805969E-08  0.10566000000E+00  0.10566000000E+00 0. -1.
     999900   -1    0    0    0    0 -0.00000000000E+00 -0.00000000000E+00 -0.74505805969E-08  0.93827000000E+00  0.93827000000E+00 0.  1.
     999902    2    1    2    0    0  0.11592904523E-01 -0.87331079219E-02  0.17668973401E-01  0.10210639721E+01  0.10208079055E+01 0.  0.
     999903    2    3    3    0    0  0.83790746908E-01 -0.81456879040E-01  0.62109531909E-01  0.13400352404E+00  0.21053220454E-01 0.  0.
         14    1    1    2    0    0 -0.11592904523E-01  0.87331079219E-02 -0.17668973401E-01  0.22866027865E-01  0.00000000000E+00 0. -1.
     999901    1    3    3    0    0 -0.72197842384E-01  0.72723771118E-01 -0.44440558508E-01  0.88706044809E+00  0.88000000000E+00 0.  1.
        -11    1    4    4    0    0  0.35210830372E-01 -0.45248600689E-01  0.22386952611E-01  0.61552215297E-01  0.51100000000E-03 0. -1.
         11    1    4    4    0    0  0.48579916536E-01 -0.36208278351E-01  0.39722579298E-01  0.72451308745E-01  0.51100000000E-03 0.  1.
</event>
<event>
 8    1  0.1112958E+005  0.1043930E+01  0.7957747E-01            NaN
         13   -1    0    0    0    0  0.00000000000E+00  0.00000000000E+00  0.74505805969E-08  0.10566000000E+00  0.10566000000E+00 0.  1.
     999900   -1    0    0    0    0 -0.00000000000E+00 -0.00000000000E+00 -0.74505805969E-08  0.93827000000E+00  0.93827000000E+00 0.  1.
     999902    2    1    2    0    0  0.53692108767E-03 -0.15980316462E-01  0.17206055903E-01  0.10204415527E+01  0.10201711892E+01 0.  0.
     999903    2    3    3    0    0  0.10815830836E+00  0.68601580893E-01 -0.17075403095E-02  0.12965864731E+00  0.20101058671E-01 0.  0.
         14    1    1    2    0    0 -0.53692108767E-03  0.15980316462E-01 -0.17206055903E-01  0.23488447335E-01  0.00000000000E+00 0. -1.
     999901    1    3    3    0    0 -0.10762138727E+00 -0.84581897355E-01  0.18913596212E-01  0.89078290536E+00  0.88000000000E+00 0. -1.
        -11    1    4    4    0    0  0.53036968275E-01  0.29703713816E-01  0.86475759763E-02  0.61402543184E-01  0.51100000000E-03 0.  1.
         11    1    4    4    0    0  0.55121340083E-01  0.38897867076E-01 -0.10355116286E-01  0.68256104122E-01  0.51100000000E-03 0. -1.
</event>
<event>
 8    1  0.1112958E+005  0.1043930E+01  0.7957747E-01            NaN
         13   -1    0    0    0    0  0.00000000000E+00  0.00000000000E+00  0.74505805969E-08  0.10566000000E+00  0.10566000000E+00 0.  1.
     999900   -1    0    0    0    0 -0.00000000000E+00 -0.00000000000E+00 -0.74505805969E-08  0.93827000000E+00  0.93827000000E+00 0.  1.
     999902    2    1    2    0    0 -0.77104640471E-02  0.11744812613E-01  0.19203865472E-01  0.10201354559E+01  0.10198579156E+01 0.  0.
     999903    2    3    3    0    0  0.12202028096E+00 -0.37123861404E-01  0.16023842696E-02  0.12910906706E+00  0.19986333058E-01 0.  0.
         14    1    1    2    0    0  0.77104640471E-02 -0.11744812613E-01 -0.19203865472E-01  0.23794544085E-01  0.00000000000E+00 0.  1.
     999901    1    3    3    0    0 -0.12973074501E+00  0.48868674018E-01  0.17601481202E-01  0.89102638886E+00  0.88000000000E+00 0. -1.
        -11    1    4    4    0    0  0.29689690963E-01 -0.12787449316E-01  0.83320055944E-02  0.33386824462E-01  0.51100000000E-03 0. -1.
         11    1    4    4    0    0  0.92330590000E-01 -0.24336412089E-01 -0.67296213248E-02  0.95722242595E-01  0.51100000000E-03 0.  1.
</event>
<event>
 7    1  0.1112958E+005  0.1043930E+01  0.7957747E-01            NaN
         13   -1    0    0    0    0  0.00000000000E+00  0.00000000000E+00  0.74505805969E-08  0.10566000000E+00  0.10566000000E+00 0.  1.
     999900   -1    0    0    0    0 -0.00000000000E+00 -0.00000000000E+00 -0.74505805969E-08  0.93827000000E+00  0.93827000000E+00 0. -1.
     999903    2    1    2    0    0 -0.51926255752E-01 -0.68551325449E-01 -0.15532280593E-01  0.89352721668E-01  0.18628925676E-01 0.  0.
         14    1    1    2    0    0 -0.18585935917E-01  0.33375889226E-01  0.58661814171E-01  0.70004252995E-01  0.00000000000E+00 0.  1.
     999901    1    1    2    0    0  0.70512191669E-01  0.35175436223E-01 -0.43129533578E-01  0.88457302534E+00  0.88000000000E+00 0. -1.
        -11    1    3    3    0    0 -0.24584312895E-01 -0.20605326426E-01 -0.26147232371E-03  0.32082665202E-01  0.51100000000E-03 0.  1.
         11    1    3    3    0    0 -0.27341942857E-01 -0.47945999022E-01 -0.15270808270E-01  0.57270056466E-01  0.51100000000E-03 0. -1.
</event>
<event>
 8    1  0.1112958E+005  0.1043930E+01  0.7957747E-01            NaN
         13   -1    0    0    0    0  0.00000000000E+00  0.00000000000E+00  0.74505805969E-08  0.10566000000E+00  0.10566000000E+00 0.  1.
     999900   -1    0    0    0    0 -0.00000000000E+00 -0.00000000000E+00 -0.74505805969E-08  0.93827000000E+00  0.93827000000E+00 0.  1.
     999902    2    1    2    0    0 -0.14814071188E-01 -0.15398088522E-01 -0.10884399766E-01  0.10199502587E+01  0.10196683295E+01 0.  0.
     999903    2    3    3    0    0  0.10133299062E+00  0.67466023265E-01  0.31759661457E-01  0.12743968903E+00  0.20301698491E-01 0.  0.
         14    1    1    2    0    0  0.14814071188E-01  0.15398088522E-01  0.10884399766E-01  0.23979741315E-01  0.00000000000E+00 0.  1.
     999901    1    3    3    0    0 -0.11614706180E+00 -0.82864111787E-01 -0.42644061223E-01  0.89251056965E+00  0.88000000000E+00 0. -1.
        -11    1    4    4    0    0  0.72178944807E-01  0.56362800307E-01  0.29252659881E-01  0.96138153524E-01  0.51100000000E-03 0. -1.
         11    1    4    4    0    0  0.29154045810E-01  0.11103222958E-01  0.25070015767E-02  0.31301535506E-01  0.51100000000E-03 0.  1.
</event>
<event>
 8    1  0.1112958E+005  0.1043930E+01  0.7957747E-01            NaN
         13   -1    0    0    0    0  0.00000000000E+00  0.00000000000E+00  0.74505805969E-08  0.10566000000E+00  0.10566000000E+00 0. -1.
     999900   -1    0    0    0    0 -0.00000000000E+00 -0.00000000000E+00 -0.74505805969E-08  0.93827000000E+00  0.93827000000E+00 0.  1.
     999902    2    1    2    0    0  0.17897725077E-01  0.60213497423E-02 -0.14736002310E-01  0.10199772344E+01  0.10196959467E+01 0.  0.
     999903    2    3    3    0    0  0.68084043684E-01 -0.10384751919E+00 -0.38026410702E-01  0.13142094578E+00  0.20142314486E-01 0.  0.
         14    1    1    2    0    0 -0.17897725077E-01 -0.60213497423E-02  0.14736002310E-01  0.23952765596E-01  0.00000000000E+00 0. -1.
     999901    1    3    3    0    0 -0.50186318607E-01  0.10986886893E+00  0.23290408392E-01  0.88855628863E+00  0.88000000000E+00 0.  1.
        -11    1    4    4    0    0  0.51882023506E-01 -0.92215048353E-01 -0.30806156890E-01  0.11020272197E+00  0.51100000000E-03 0. -1.
         11    1    4    4    0    0  0.16202020178E-01 -0.11632470832E-01 -0.72202538118E-02  0.21218223809E-01  0.51100000000E-03 0.  1.
</event>
<event>
 8    1  0.1112958E+005  0.1043930E+01  0.7957747E-01            NaN
         13   -1    0    0    0    0  0.00000000000E+00  0.00000000000E+00  0.74505805969E-08  0.10566000000E+00  0.10566000000E+00 0. -1.
     999900   -1    0    0    0    0 -0.00000000000E+00 -0.00000000000E+00 -0.74505805969E-08  0.93827000000E+00  0.93827000000E+00 0.  1.
     999902    2    1    2    0    0 -0.16888111766E-01 -0.57161497630E-02  0.15577642048E-01  0.10202541554E+01  0.10199794096E+01 0.  0.
     999903    2    3    3    0    0  0.26098553431E-02  0.69435801012E-01  0.11017732553E+00  0.13178519894E+00  0.20003844432E-01 0.  0.
         14    1    1    2    0    0  0.16888111766E-01  0.57161497630E-02 -0.15577642048E-01  0.23675844629E-01  0.00000000000E+00 0.  1.
     999901    1    3    3    0    0 -0.19497967109E-01 -0.75151950775E-01 -0.94599683480E-01  0.88846895643E+00  0.88000000000E+00 0.  1.
        -11    1    4    4    0    0 -0.57312606142E-02  0.47290064595E-01  0.83391480866E-01  0.96039563512E-01  0.51100000000E-03 0. -1.
         11    1    4    4    0    0  0.83411159574E-02  0.22145736417E-01  0.26785844663E-01  0.35745635428E-01  0.51100000000E-03 0.  1.
</event>
<event>
 8    1  0.1112958E+005  0.1043930E+01  0.7957747E-01            NaN
         13   -1    0    0    0    0  0.00000000000E+00  0.00000000000E+00  0.74505805969E-08  0.10566000000E+00  0.10566000000E+00 0.  1.
     999900   -1    0    0    0    0 -0.00000000000E+00 -0.00000000000E+00 -0.74505805969E-08  0.93827000000E+00  0.93827000000E+00 0.  1.
     999902    2    1    2    0    0 -0.21476265088E-01 -0.37624152874E-02 -0.11830821231E-01  0.10191236689E+01  0.10188217207E+01 0.  0.
     999903    2    3    3    0    0  0.10374949659E-01 -0.53696718803E-01 -0.11712778381E+00  0.13086954712E+00  0.20419192806E-01 0.  0.
         14    1    1    2    0    0  0.21476265088E-01  0.37624152874E-02  0.11830821231E-01  0.24806331086E-01  0.00000000000E+00 0.  1.
     999901    1    3    3    0    0 -0.31851214747E-01  0.49934303516E-01  0.10529696257E+00  0.88825412179E+00  0.88000000000E+00 0. -1.
        -11    1    4    4    0    0  0.55173023447E-02 -0.81672957440E-02 -0.39758779563E-01  0.40965436874E-01  0.51100000000E-03 0.  1.
         11    1    4    4    0    0  0.48576473144E-02 -0.45529423059E-01 -0.77369004242E-01  0.89904110250E-01  0.51100000000E-03 0. -1.
</event>
<event>
 8    1  0.1112958E+005  0.1043930E+01  0.7957747E-01            NaN
         13   -1    0    0    0    0  0.00000000000E+00  0.00000000000E+00  0.74505805969E-08  0.10566000000E+00  0.10566000000E+00 0.  1.
     999900   -1    0    0    0    0 -0.00000000000E+00 -0.00000000000E+00 -0.74505805969E-08  0.93827000000E+00  0.93827000000E+00 0.  1.
     999902    2    1    2    0    0 -0.43617302755E-02  0.83507138564E-02  0.15322935584E-01  0.10259424635E+01  0.10257847664E+01 0.  0.
     999903    2    3    3    0    0  0.10499030650E-01 -0.79258118867E-01  0.10882640891E+00  0.13653870298E+00  0.20187894471E-01 0.  0.
         14    1    1    2    0    0  0.43617302755E-02 -0.83507138564E-02 -0.15322935584E-01  0.17987536458E-01  0.00000000000E+00 0. -1.
     999901    1    3    3    0    0 -0.14860760926E-01  0.87608832723E-01 -0.93503473325E-01  0.88940376057E+00  0.88000000000E+00 0.  1.
        -11    1    4    4    0    0  0.16448562489E-01 -0.52916584785E-01  0.71322584592E-01  0.90321051517E-01  0.51100000000E-03 0.  1.
         11    1    4    4    0    0 -0.59495318392E-02 -0.26341534082E-01  0.37503824318E-01  0.46217651459E-01  0.51100000000E-03 0. -1.
</event>
<event>
 8    1  0.1112958E+005  0.1043930E+01  0.7957747E-01            NaN
         13   -1    0    0    0    0  0.00000000000E+00  0.00000000000E+00  0.74505805969E-08  0.10566000000E+00  0.10566000000E+00 0. -1.
     999900   -1    0    0    0    0 -0.00000000000E+00 -0.00000000000E+00 -0.74505805969E-08  0.93827000000E+00  0.93827000000E+00 0. -1.
     999902    2    1    2    0    0 -0.15752842875E-01  0.13808749500E-01 -0.10051672071E-01  0.10206949030E+01  0.10204304069E+01 0.  0.
     999903    2    3    3    0    0 -0.83127966434E-01  0.10264694622E+00 -0.25264948712E-02  0.13362767851E+00  0.20082801496E-01 0.  0.
         14    1    1    2    0    0  0.15752842875E-01 -0.13808749500E-01  0.10051672071E-01  0.23235097005E-01  0.00000000000E+00 0. -1.
     999901    1    3    3    0    0  0.67375123558E-01 -0.88838196716E-01 -0.75251772003E-02  0.88706722449E+00  0.88000000000E+00 0.  1.
        -11    1    4    4    0    0 -0.30265836823E-01  0.24505383122E-01 -0.49055751837E-02  0.39253795605E-01  0.51100000000E-03 0.  1.
         11    1    4    4    0    0 -0.52862129611E-01  0.78141563094E-01  0.23790803125E-02  0.94373882901E-01  0.51100000000E-03 0. -1.
</event>
<event>
 8    1  0.1112958E+005  0.1043930E+01  0.7957747E-01            NaN
         13   -1    0    0    0    0  0.00000000000E+00  0.00000000000E+00  0.74505805969E-08  0.10566000000E+00  0.10566000000E+00 0. -1.
     999900   -1    0    0    0    0 -0.00000000000E+00 -0.00000000000E+00 -0.74505805969E-08  0.93827000000E+00  0.93827000000E+00 0.  1.
     999902    2    1    2    0    0  0.11053689715E-01 -0.20775407495E-01 -0.58568453516E-03  0.10203897230E+01  0.10201181511E+01 0.  0.
     999903    2    3    3    0    0  0.12587901344E+00 -0.28774758658E-01 -0.14938041499E-01  0.13277785137E+00  0.27079511975E-01 0.  0.
         14    1    1    2    0    0 -0.11053689715E-01  0.20775407495E-01  0.58568453516E-03  0.23540276958E-01  0.00000000000E+00 0.  1.
     999901    1    3    3    0    0 -0.11482532373E+00  0.79993511629E-02  0.14352356964E-01  0.88761187168E+00  0.88000000000E+00 0. -1.
        -11    1    4    4    0    0  0.48847470866E-01  0.14782579883E-02 -0.12198686126E-02  0.48887727061E-01  0.51100000000E-03 0.  1.
         11    1    4    4    0    0  0.77031542576E-01 -0.30253016646E-01 -0.13718172887E-01  0.83890124306E-01  0.51100000000E-03 0. -1.
</event>
<event>
 8    1  0.1112958E+005  0.1043930E+01  0.7957747E-01            NaN
         13   -1    0    0    0    0  0.00000000000E+00  0.00000000000E+00  0.74505805969E-08  0.10566000000E+00  0.10566000000E+00 0.  1.
     999900   -1    0    0    0    0 -0.00000000000E+00 -0.00000000000E+00 -0.74505805969E-08  0.93827000000E+00  0.93827000000E+00 0. -1.
     999902    2    1    2    0    0  0.19337153387E-01  0.10716187445E-02  0.13148524176E-01  0.10205215068E+01  0.10202530021E+01 0.  0.
     999903    2    3    3    0    0  0.53900362681E-02 -0.11747988188E+00  0.55256033908E-01  0.13146469038E+00  0.19978998833E-01 0.  0.
         14    1    1    2    0    0 -0.19337153387E-01 -0.10716187445E-02 -0.13148524176E-01  0.23408493241E-01  0.00000000000E+00 0. -1.
     999901    1    3    3    0    0  0.13947117119E-01  0.11855150063E+00 -0.42107509732E-01  0.88905681638E+00  0.88000000000E+00 0.  1.
        -11    1    4    4    0    0  0.71749354804E-02 -0.11711405700E+00  0.53820348713E-01  0.12908939965E+00  0.51100000000E-03 0.  1.
         11    1    4    4    0    0 -0.17848992124E-02 -0.36582488301E-03  0.14356851947E-02  0.23752907236E-02  0.51100000000E-03 0. -1.
</event>
<event>
 8    1  0.1112958E+005  0.1043930E+01  0.7957747E-01            NaN
         13   -1    0    0    0    0  0.00000000000E+00  0.00000000000E+00  0.74505805969E-08  0.10566000000E+00  0.10566000000E+00 0.  1.
     999900   -1    0    0    0    0 -0.00000000000E+00 -0.00000000000E+00 -0.74505805969E-08  0.93827000000E+00  0.93827000000E+00 0.  1.
     999902    2    1    2    0    0  0.17889908094E-01  0.15479049806E-01 -0.86630255243E-03  0.10202572250E+01  0.10199825513E+01 0.  0.
     999903    2    3    3    0    0 -0.58560426181E-01 -0.10692220142E+00  0.32792374194E-01  0.12786738509E+00  0.20323574839E-01 0.  0.
         14    1    1    2    0    0 -0.17889908094E-01 -0.15479049806E-01  0.86630255243E-03  0.23672774967E-01  0.00000000000E+00 0. -1.
     999901    1    3    3    0    0  0.76450334275E-01  0.12240125122E+00 -0.33658676746E-01  0.89238983994E+00  0.88000000000E+00 0.  1.
        -11    1    4    4    0    0 -0.47186841408E-02 -0.18334958200E-01 -0.61773827790E-03  0.18949390328E-01  0.51100000000E-03 0. -1.
         11    1    4    4    0    0 -0.53841742040E-01 -0.88587243217E-01  0.33410112472E-01  0.10891799476E+00  0.51100000000E-03 0.  1.
</event>
<event>
 8    1  0.1112958E+005  0.1043930E+01  0.7957747E-01            NaN
         13   -1    0    0    0    0  0.00000000000E+00  0.00000000000E+00  0.74505805969E-08  0.10566000000E+00  0.10566000000E+00 0. -1.
     999900   -1    0    0    0    0 -0.00000000000E+00 -0.00000000000E+00 -0.74505805969E-08  0.93827000000E+00  0.93827000000E+00 0. -1.
     999902    2    1    2    0    0  0.22934049858E-01 -0.27286033163E-02 -0.61191305244E-02  0.10200373301E+01  0.10197574687E+01 0.  0.
     999903    2    3    3    0    0  0.59665360407E-01  0.23543809814E-01  0.11258444469E+00  0.13091980821E+00  0.18720918318E-01 0.  0.
         14    1    1    2    0    0 -0.22934049858E-01  0.27286033163E-02  0.61191305244E-02  0.23892669950E-01  0.00000000000E+00 0. -1.
     999901    1    3    3    0    0 -0.36731310549E-01 -0.26272413130E-01 -0.11870357522E+00  0.88911752184E+00  0.88000000000E+00 0. -1.
        -11    1    4    4    0    0  0.30286304180E-01  0.11961959555E-01  0.38776685114E-01  0.50638336532E-01  0.51100000000E-03 0. -1.
         11    1    4    4    0    0  0.29379056227E-01  0.11581850258E-01  0.73807759580E-01  0.80281471682E-01  0.51100000000E-03 0.  1.
</event>
<event>
 8    1  0.1112958E+005  0.1043930E+01  0.7957747E-01            NaN
         13   -1    0    0    0    0  0.00000000000E+00  0.00000000000E+00  0.74505805969E-08  0.10566000000E+00  0.10566000000E+00 0.  1.
     999900   -1    0    0    0    0 -0.00000000000E+00 -0.00000000000E+00 -0.74505805969E-08  0.93827000000E+00  0.93827000000E+00 0.  1.
     999902    2    1    2    0    0  0.10942031896E-01 -0.10871318071E-01 -0.18022587952E-01  0.10202081262E+01  0.10199322985E+01 0.  0.
     999903    2    3    3    0    0 -0.12690250301E+00  0.96789741594E-02  0.16096392345E-01  0.12858739120E+00  0.88145061797E-02 0.  0.
         14    1    1    2    0    0 -0.10942031896E-01  0.10871318071E-01  0.18022587952E-01  0.23721873768E-01  0.00000000000E+00 0.  1.
     999901    1    3    3    0    0  0.13784453491E+00 -0.20550292230E-01 -0.34118980297E-01  0.89162073503E+00  0.88000000000E+00 0. -1.
        -11    1    4    4    0    0 -0.63659729375E-01  0.39584245833E-02  0.37467730580E-02  0.63894676607E-01  0.51100000000E-03 0. -1.
         11    1    4    4    0    0 -0.63242773635E-01  0.57205495761E-02  0.12349619287E-01  0.64692714597E-01  0.51100000000E-03 0.  1.
</event>
<event>
 8    1  0.1112958E+005  0.1043930E+01  0.7957747E-01            NaN
         13   -1    0    0    0    0  0.00000000000E+00  0.00000000000E+00  0.74505805969E-08  0.10566000000E+00  0.10566000000E+00 0.  1.
     999900   -1    0    0    0    0 -0.00000000000E+00 -0.00000000000E+00 -0.74505805969E-08  0.93827000000E+00  0.93827000000E+00 0. -1.
     999902    2    1    2    0    0  0.63920097004E-02  0.10539215935E-01  0.18916658129E-01  0.10213518509E+01  0.10211022626E+01 0.  0.
     999903    2    3    3    0    0  0.87227387116E-02 -0.12656747958E+00  0.25975422776E-01  0.13070405050E+00  0.17703479063E-01 0.  0.
         14    1    1    2    0    0 -0.63920097004E-02 -0.10539215935E-01 -0.18916658129E-01  0.22578149067E-01  0.00000000000E+00 0. -1.
     999901    1    3    3    0    0 -0.23307290112E-02  0.13710669552E+00 -0.70587646473E-02  0.89064780043E+00  0.88000000000E+00 0. -1.
        -11    1    4    4    0    0  0.93621188298E-04 -0.43311617016E-01  0.89525773630E-03  0.43323983437E-01  0.51100000000E-03 0. -1.
         11    1    4    4    0    0  0.86291175233E-02 -0.83255862566E-01  0.25080165040E-01  0.87380067065E-01  0.51100000000E-03 0.  1.
</event>
<event>
 8    1  0.1112958E+005  0.1043930E+01  0.7957747E-01            NaN
         13   -1    0    0    0    0  0.00000000000E+00  0.00000000000E+00  0.74505805969E-08  0.10566000000E+00  0.10566000000E+00 0. -1.
     999900   -1    0    0    0    0 -0.00000000000E+00 -0.00000000000E+00 -0.74505805969E-08  0.93827000000E+00  0.93827000000E+00 0. -1.
     999902    2    1    2    0    0 -0.30136988930E-02  0.22016926393E-01 -0.10074503844E-01  0.10195307571E+01  0.10192387559E+01 0.  0.
     999903    2    3    3    0    0  0.28234232088E-01  0.11608940048E+00 -0.54552886658E-01  0.13284908356E+00  0.19973502286E-01 0.  0.
         14    1    1    2    0    0  0.30136988930E-02 -0.22016926393E-01  0.10074503844E-01  0.24399242950E-01  0.00000000000E+00 0. -1.
     999901    1    3    3    0    0 -0.31247930981E-01 -0.94072474088E-01  0.44478382814E-01  0.88668167349E+00  0.88000000000E+00 0.  1.
        -11    1    4    4    0    0  0.23167972033E-01  0.59905773348E-01 -0.34961284379E-01  0.73130083652E-01  0.51100000000E-03 0.  1.
         11    1    4    4    0    0  0.50662600549E-02  0.56183627133E-01 -0.19591602279E-01  0.59718999905E-01  0.51100000000E-03 0. -1.
</event>
<event>
 8    1  0.1112958E+005  0.1043930E+01  0.7957747E-01            NaN
         13   -1    0    0    0    0  0.00000000000E+00  0.00000000000E+00  0.74505805969E-08  0.10566000000E+00  0.10566000000E+00 0.  1.
     999900   -1    0    0    0    0 -0.00000000000E+00 -0.00000000000E+00 -0.74505805969E-08  0.93827000000E+00  0.93827000000E+00 0. -1.
     999902    2    1    2    0    0 -0.23122298091E-01 -0.14984078992E-01  0.12232119377E-01  0.10137838885E+01  0.10133355735E+01 0.  0.
     999903    2    3    3    0    0 -0.67728089336E-01 -0.39521248603E-03  0.10626624836E+00  0.12753057878E+00  0.19603129972E-01 0.  0.
         14    1    1    2    0    0  0.23122298091E-01  0.14984078992E-01 -0.12232119377E-01  0.30146111469E-01  0.00000000000E+00 0. -1.
     999901    1    3    3    0    0  0.44605791246E-01 -0.14588866506E-01 -0.94034128982E-01  0.88625330976E+00  0.88000000000E+00 0. -1.
        -11    1    4    4    0    0 -0.66840874269E-01  0.15470195978E-02  0.95725252695E-01  0.11676335413E+00  0.51100000000E-03 0. -1.
         11    1    4    4    0    0 -0.88721506743E-03 -0.19422320838E-02  0.10540995664E-01  0.10767224648E-01  0.51100000000E-03 0.  1.
</event>
<event>
 8    1  0.1112958E+005  0.1043930E+01  0.7957747E-01            NaN
         13   -1    0    0    0    0  0.00000000000E+00  0.00000000000E+00  0.74505805969E-08  0.10566000000E+00  0.10566000000E+00 0.  1.
     999900   -1    0    0    0    0 -0.00000000000E+00 -0.00000000000E+00 -0.74505805969E-08  0.93827000000E+00  0.93827000000E+00 0.  1.
     999902    2    1    2    0    0 -0.41818408548E-02 -0.22441377660E-01  0.40191358740E-02  0.10207512020E+01  0.10204880008E+01 0.  0.
     999903    2    3    3    0    0 -0.92939585498E-01  0.51399503710E-01 -0.71641842811E-01  0.12999029316E+00  0.22028325865E-01 0.  0.
         14    1    1    2    0    0  0.41818408548E-02  0.22441377660E-01 -0.40191358740E-02  0.23178798014E-01  0.00000000000E+00 0.  1.
     999901    1    3    3    0    0  0.88757744643E-01 -0.73840881370E-01  0.75660978685E-01  0.89076090883E+00  0.88000000000E+00 0. -1.
        -11    1    4    4    0    0 -0.86627543933E-01  0.53212250656E-01 -0.65202949738E-01  0.12077897484E+00  0.51100000000E-03 0.  1.
         11    1    4    4    0    0 -0.63120415650E-02 -0.18127469457E-02 -0.64388930727E-02  0.92113183209E-02  0.51100000000E-03 0. -1.
</event>
<event>
 8    1  0.1112958E+005  0.1043930E+01  0.7957747E-01            NaN
         13   -1    0    0    0    0  0.00000000000E+00  0.00000000000E+00  0.74505805969E-08  0.10566000000E+00  0.10566000000E+00 0.  1.
     999900   -1    0    0    0    0 -0.00000000000E+00 -0.00000000000E+00 -0.74505805969E-08  0.93827000000E+00  0.93827000000E+00 0.  1.
     999902    2    1    2    0    0  0.11737515343E-01 -0.19875938912E-01 -0.55234914415E-02  0.10201954014E+01  0.10199192742E+01 0.  0.
     999903    2    3    3    0    0 -0.70080489743E-01  0.10364074806E+00  0.14915985303E-01  0.12757659689E+00  0.20015537843E-01 0.  0.
         14    1    1    2    0    0 -0.11737515343E-01  0.19875938912E-01  0.55234914415E-02  0.23734598622E-01  0.00000000000E+00 0.  1.
     999901    1    3    3    0    0  0.81818005086E-01 -0.12351668697E+00 -0.20439476745E-01  0.89261880449E+00  0.88000000000E+00 0.  1.
        -11    1    4    4    0    0 -0.32892682539E-01  0.38649169024E-01 -0.20609977760E-02  0.50795626423E-01  0.51100000000E-03 0.  1.
         11    1    4    4    0    0 -0.37187807204E-01  0.64991579037E-01  0.16976983079E-01  0.76780970467E-01  0.51100000000E-03 0. -1.
</event>
<event>
 8    1  0.1112958E+005  0.1043930E+01  0.7957747E-01            NaN
         13   -1    0    0    0    0  0.00000000000E+00  0.00000000000E+00  0.74505805969E-08  0.10566000000E+00  0.10566000000E+00 0. -1.
     999900   -1    0    0    0    0 -0.00000000000E+00 -0.00000000000E+00 -0.74505805969E-08  0.93827000000E+00  0.93827000000E+00 0.  1.
     999902    2    1    2    0    0 -0.12498133779E-01  0.12692973022E-01  0.15494669526E-01  0.10203206862E+01  0.10200475004E+01 0.  0.
     999903    2    3    3    0    0 -0.12033394811E+00 -0.43095074659E-01  0.25600421594E-01  0.13192719497E+00  0.20296764765E-01 0.  0.
         14    1    1    2    0    0  0.12498133779E-01 -0.12692973022E-01 -0.15494669526E-01  0.23609313752E-01  0.00000000000E+00 0.  1.
     999901    1    3    3    0    0  0.10783581433E+00  0.55788047680E-01 -0.10105752068E-01  0.88839349128E+00  0.88000000000E+00 0.  1.
        -11    1    4    4    0    0 -0.99196169208E-01 -0.43330295875E-01  0.22393167868E-01  0.11054008148E+00  0.51100000000E-03 0. -1.
         11    1    4    4    0    0 -0.21137778902E-01  0.23522121677E-03  0.32072537266E-02  0.21387113489E-01  0.51100000000E-03 0.  1.
</event>
<event>
 8    1  0.1112958E+005  0.1043930E+01  0.7957747E-01            NaN
         13   -1    0    0    0    0  0.00000000000E+00  0.00000000000E+00  0.74505805969E-08  0.10566000000E+00  0.10566000000E+00 0. -1.
     999900   -1    0    0    0    0 -0.00000000000E+00 -0.00000000000E+00 -0.74505805969E-08  0.93827000000E+00  0.93827000000E+00 0. -1.
     999902    2    1    2    0    0 -0.14921873218E-01 -0.88285614229E-02 -0.16367595310E-01  0.10200866786E+01  0.10198079858E+01 0.  0.
     999903    2    3    3    0    0 -0.35682867194E-01  0.12113246623E+00 -0.24851406181E-01  0.13025924446E+00  0.20088230189E-01 0.  0.
         14    1    1    2    0    0  0.14921873218E-01  0.88285614229E-02  0.16367595310E-01  0.23843321358E-01  0.00000000000E+00 0. -1.
     999901    1    3    3    0    0  0.20760993976E-01 -0.12996102765E+00  0.84838108708E-02  0.88982743418E+00  0.88000000000E+00 0.  1.
        -11    1    4    4    0    0 -0.11049113679E-01  0.56564231691E-01 -0.27481245052E-02  0.57701027106E-01  0.51100000000E-03 0.  1.
         11    1    4    4    0    0 -0.24633753515E-01  0.64568234538E-01 -0.22103281675E-01  0.72558217352E-01  0.51100000000E-03 0. -1.
</event>
<event>
 8    1  0.1112958E+005  0.1043930E+01  0.7957747E-01            NaN
         13   -1    0    0    0    0  0.00000000000E+00  0.00000000000E+00  0.74505805969E-08  0.10566000000E+00  0.10566000000E+00 0.  1.
     999900   -1    0    0    0    0 -0.00000000000E+00 -0.00000000000E+00 -0.74505805969E-08  0.93827000000E+00  0.93827000000E+00 0.  1.
     999902    2    1    2    0    0  0.91008497666E-02 -0.14731419882E-01  0.17379793815E-01  0.10193964020E+01  0.10191011368E+01 0.  0.
     999903    2    3    3    0    0 -0.85219627599E-01 -0.16084283342E-01 -0.91536804061E-01  0.12767839276E+00  0.20042364677E-01 0.  0.
         14    1    1    2    0    0 -0.91008497666E-02  0.14731419882E-01 -0.17379793815E-01  0.24533598009E-01  0.00000000000E+00 0. -1.
     999901    1    3    3    0    0  0.94320477366E-01  0.13528634596E-02  0.10891659788E+00  0.89171800923E+00  0.88000000000E+00 0. -1.
        -11    1    4    4    0    0 -0.80178148446E-01 -0.11135001202E-01 -0.78068339500E-01  0.11246088428E+00  0.51100000000E-03 0. -1.
         11    1    4    4    0    0 -0.50414791540E-02 -0.49492821394E-02 -0.13468464561E-01  0.15217508482E-01  0.51100000000E-03 0.  1.
</event>
<event>
 8    1  0.1112958E+005  0.1043930E+01  0.7957747E-01            NaN
         13   -1    0    0    0    0  0.00000000000E+00  0.00000000000E+00  0.74505805969E-08  0.10566000000E+00  0.10566000000E+00 0.  1.
     999900   -1    0    0    0    0 -0.00000000000E+00 -0.00000000000E+00 -0.74505805969E-08  0.93827000000E+00  0.93827000000E+00 0.  1.
     999902    2    1    2    0    0 -0.25740509116E-02 -0.55569584726E-02  0.21141315351E-01  0.10219195311E+01  0.10216824689E+01 0.  0.
     999903    2    3    3    0    0 -0.10329853689E+00  0.78307604740E-01  0.17041640407E-01  0.13220300639E+00  0.19609913526E-01 0.  0.
         14    1    1    2    0    0  0.25740509116E-02  0.55569584726E-02 -0.21141315351E-01  0.22010468880E-01  0.00000000000E+00 0. -1.
     999901    1    3    3    0    0  0.10072448597E+00 -0.83864563212E-01  0.40996749438E-02  0.88971652473E+00  0.88000000000E+00 0.  1.
        -11    1    4    4    0    0 -0.53673495905E-01  0.28701119476E-01  0.99656425148E-02  0.61677982892E-01  0.51100000000E-03 0. -1.
         11    1    4    4    0    0 -0.49625040981E-01  0.49606485263E-01  0.70759978925E-02  0.70525023501E-01  0.51100000000E-03 0.  1.
</event>
<event>
 8    1  0.1112958E+005  0.1043930E+01  0.7957747E-01            NaN
         13   -1    0    0    0    0  0.00000000000E+00  0.00000000000E+00  0.74505805969E-08  0.10566000000E+00  0.10566000000E+00 0. -1.
     999900   -1    0    0    0    0 -0.00000000000E+00 -0.00000000000E+00 -0.74505805969E-08  0.93827000000E+00  0.93827000000E+00 0.  1.
     999902    2    1    2    0    0 -0.22129151383E-01  0.34625885374E-02 -0.60332448051E-02  0.10207332566E+01  0.10204696430E+01 0.  0.
     999903    2    3    3    0    0 -0.63086303700E-01  0.22489276077E-01  0.11283345501E+00  0.13159390001E+00  0.99958340045E-02 0.  0.
         14    1    1    2    0    0  0.22129151383E-01 -0.34625885374E-02  0.60332448051E-02  0.23196743375E-01  0.00000000000E+00 0. -1.
     999901    1    3    3    0    0  0.40957152316E-01 -0.19026687540E-01 -0.11886669981E+00  0.88913935662E+00  0.88000000000E+00 0.  1.
        -11    1    4    4    0    0 -0.43573921647E-01  0.13505715796E-01  0.84561694678E-01  0.96083465460E-01  0.51100000000E-03 0.  1.
         11    1    4    4    0    0 -0.19512382053E-01  0.89835602816E-02  0.28271760327E-01  0.35510434547E-01  0.51100000000E-03 0. -1.
</event>
<event>
 8    1  0.1112958E+005  0.1043930E+01  0.7957747E-01            NaN
         13   -1    0    0    0    0  0.00000000000E+00  0.00000000000E+00  0.74505805969E-08  0.10566000000E+00  0.10566000000E+00 0. -1.
     999900   -1    0    0    0    0 -0.00000000000E+00 -0.00000000000E+00 -0.74505805969E-08  0.93827000000E+00  0.93827000000E+00 0.  1.
     999902    2    1    2    0    0 -0.14743228988E-01  0.18553837034E-01 -0.11527169218E-01  0.10175769489E+01  0.10172356481E+01 0.  0.
     999903    2    3    3    0    0  0.38187158011E-01 -0.10018027959E+00 -0.63758879430E-01  0.12649470366E+00  0.21008757477E-01 0.  0.
         14    1    1    2    0    0  0.14743228988E-01 -0.18553837034E-01  0.11527169218E-01  0.26353051054E-01  0.00000000000E+00 0. -1.
     999901    1    3    3    0    0 -0.52930386999E-01  0.11873411663E+00  0.52231710212E-01  0.89108224529E+00  0.88000000000E+00 0. -1.
        -11    1    4    4    0    0  0.27964653651E-01 -0.63567530878E-01 -0.51808039527E-01  0.86644024124E-01  0.51100000000E-03 0. -1.
         11    1    4    4    0    0  0.10222504360E-01 -0.36612748715E-01 -0.11950839904E-01  0.39850679533E-01  0.51100000000E-03 0.  1.
</event>
<event>
 8    1  0.1112958E+005  0.1043930E+01  0.7957747E-01            NaN
         13   -1    0    0    0    0  0.00000000000E+00  0.00000000000E+00  0.74505805969E-08  0.10566000000E+00  0.10566000000E+00 0.  1.
     999900   -1    0    0    0    0 -0.00000000000E+00 -0.00000000000E+00 -0.74505805969E-08  0.93827000000E+00  0.93827000000E+00 0. -1.
     999902    2    1    2    0    0 -0.13968781778E-01  0.32562922929E-02 -0.18361340583E-01  0.10206304478E+01  0.10203644652E+01 0.  0.
     999903    2    3    3    0    0  0.61788674591E-01  0.64043545599E-01  0.90639674666E-01  0.12860157851E+00  0.20084803465E-01 0.  0.
         14    1    1    2    0    0  0.13968781778E-01 -0.32562922929E-02  0.18361340583E-01  0.23299552182E-01  0.00000000000E+00 0.  1.
     999901    1    3    3    0    0 -0.75757456370E-01 -0.60787253306E-01 -0.10900101525E+00  0.89202886931E+00  0.88000000000E+00 0. -1.
        -11    1    4    4    0    0  0.31230816596E-01  0.20274736379E-01  0.44647989176E-01  0.58138910369E-01  0.51100000000E-03 0.  1.
         11    1    4    4    0    0  0.30557857995E-01  0.43768809220E-01  0.45991685490E-01  0.70462668137E-01  0.51100000000E-03 0. -1.
</event>
<event>
 8    1  0.1112958E+005  0.1043930E+01  0.7957747E-01            NaN
         13   -1    0    0    0    0  0.00000000000E+00  0.00000000000E+00  0.74505805969E-08  0.10566000000E+00  0.10566000000E+00 0. -1.
     999900   -1    0    0    0    0 -0.00000000000E+00 -0.00000000000E+00 -0.74505805969E-08  0.93827000000E+00  0.93827000000E+00 0.  1.
     999902    2    1    2    0    0  0.15177793715E-01 -0.20506830990E-01 -0.12492983490E-02  0.10183867761E+01  0.10180663876E+01 0.  0.
     999903    2    3    3    0    0 -0.76652638770E-01  0.37103094351E-01 -0.92086022603E-01  0.12709387124E+00  0.20512189247E-01 0.  0.
         14    1    1    2    0    0 -0.15177793715E-01  0.20506830990E-01  0.12492983490E-02  0.25543223870E-01  0.00000000000E+00 0.  1.
     999901    1    3    3    0    0  0.91830432485E-01 -0.57609925341E-01  0.90836724254E-01  0.89129290489E+00  0.88000000000E+00 0.  1.
        -11    1    4    4    0    0 -0.14993549481E-01  0.13802688333E-01 -0.13169878033E-01  0.24269889568E-01  0.51100000000E-03 0.  1.
         11    1    4    4    0    0 -0.61659089289E-01  0.23300406018E-01 -0.78916144570E-01  0.10282398167E+00  0.51100000000E-03 0. -1.
</event>
<event>
 8    1  0.1112958E+005  0.1043930E+01  0.7957747E-01            NaN
         13   -1    0    0    0    0  0.00000000000E+00  0.00000000000E+00  0.74505805969E-08  0.10566000000E+00  0.10566000000E+00 0. -1.
     999900   -1    0    0    0    0 -0.00000000000E+00 -0.00000000000E+00 -0.74505805969E-08  0.93827000000E+00  0.93827000000E+00 0.  1.
     999902    2    1    2    0    0 -0.23138709788E-01  0.31093853393E-02  0.56587406664E-02  0.10199073125E+01  0.10196243605E+01 0.  0.
     999903    2    3    3    0    0 -0.91494611079E-01  0.19481245324E-01 -0.90987787894E-01  0.13183010950E+00  0.18698060031E-01 0.  0.
         14    1    1    2    0    0  0.23138709788E-01 -0.31093853393E-02 -0.56587406664E-02  0.24022687480E-01  0.00000000000E+00 0. -1.
     999901    1    3    3    0    0  0.68355901291E-01 -0.16371859985E-01  0.96646528561E-01  0.88807720302E+00  0.88000000000E+00 0.  1.
        -11    1    4    4    0    0 -0.60368490028E-01  0.18607128316E-01 -0.69913739965E-01  0.94227235814E-01  0.51100000000E-03 0. -1.
         11    1    4    4    0    0 -0.31126121052E-01  0.87411700808E-03 -0.21074047930E-01  0.37602873685E-01  0.51100000000E-03 0.  1.
</event>
<event>
 8    1  0.1112958E+005  0.1043930E+01  0.7957747E-01            NaN
         13   -1    0    0    0    0  0.00000000000E+00  0.00000000000E+00  0.74505805969E-08  0.10566000000E+00  0.10566000000E+00 0. -1.
     999900   -1    0    0    0    0 -0.00000000000E+00 -0.00000000000E+00 -0.74505805969E-08  0.93827000000E+00  0.93827000000E+00 0. -1.
     999902    2    1    2    0    0  0.73645304927E-02  0.37258212554E-02 -0.22201417616E-01  0.10202441182E+01  0.10199691366E+01 0.  0.
     999903    2    3    3    0    0  0.88097468674E-01 -0.66427652910E-01  0.64910722100E-01  0.12949845183E+00  0.19561444826E-01 0.  0.
         14    1    1    2    0    0 -0.73645304927E-02 -0.37258212554E-02  0.22201417616E-01  0.23685881819E-01  0.00000000000E+00 0. -1.
     999901    1    3    3    0    0 -0.80732938182E-01  0.70153474165E-01 -0.87112139716E-01  0.89074566636E+00  0.88000000000E+00 0.  1.
        -11    1    4    4    0    0  0.20587829150E-01 -0.21540172339E-01  0.94203451097E-02  0.31254467785E-01  0.51100000000E-03 0. -1.
         11    1    4    4    0    0  0.67509639524E-01 -0.44887480571E-01  0.55490376990E-01  0.98243984041E-01  0.51100000000E-03 0.  1.
</event>
<event>
 8    1  0.1112958E+005  0.1043930E+01  0.7957747E-01            NaN
         13   -1    0    0    0    0  0.00000000000E+00  0.00000000000E+00  0.74505805969E-08  0.10566000000E+00  0.10566000000E+00 0.  1.
     999900   -1    0    0    0    0 -0.00000000000E+00 -0.00000000000E+00 -0.74505805969E-08  0.93827000000E+00  0.93827000000E+00 0. -1.
     999902    2    1    2    0    0  0.69056887927E-02 -0.67596792425E-02  0.57849608510E-02  0.10326673372E+01  0.10326059179E+01 0.  0.
     999903    2    3    3    0    0  0.13115565462E-01 -0.13167875973E+00  0.49829042603E-01  0.14273294616E+00  0.19453704292E-01 0.  0.
         14    1    1    2    0    0 -0.69056887927E-02  0.67596792425E-02 -0.57849608510E-02  0.11262662794E-01  0.00000000000E+00 0. -1.
     999901    1    3    3    0    0 -0.62098766696E-02  0.12491908048E+00 -0.44044081752E-01  0.88993439105E+00  0.88000000000E+00 0.  1.
        -11    1    4    4    0    0  0.14508389388E-01 -0.12249200414E+00  0.50750555931E-01  0.13338164975E+00  0.51100000000E-03 0.  1.
         11    1    4    4    0    0 -0.13928239255E-02 -0.91867555860E-02 -0.92151332761E-03  0.93512964074E-02  0.51100000000E-03 0. -1.
</event>
<event>
 8    1  0.1112958E+005  0.1043930E+01  0.7957747E-01            NaN
         13   -1    0    0    0    0  0.00000000000E+00  0.00000000000E+00  0.74505805969E-08  0.10566000000E+00  0.10566000000E+00 0. -1.
     999900   -1    0    0    0    0 -0.00000000000E+00 -0.00000000000E+00 -0.74505805969E-08  0.93827000000E+00  0.93827000000E+00 0. -1.
     999902    2    1    2    0    0 -0.12223380342E-01 -0.12770978282E-01  0.15310548374E-01  0.10205436406E+01  0.10202756493E+01 0.  0.
     999903    2    3    3    0    0 -0.12857081524E+00 -0.26424270770E-01  0.28612667342E-02  0.13269335898E+00  0.19252118165E-01 0.  0.
         14    1    1    2    0    0  0.12223380342E-01  0.12770978282E-01 -0.15310548374E-01  0.23386359374E-01  0.00000000000E+00 0.  1.
     999901    1    3    3    0    0  0.11634743490E+00  0.13653292488E-01  0.12449281640E-01  0.88785028164E+00  0.88000000000E+00 0. -1.
        -11    1    4    4    0    0 -0.71921129299E-01 -0.53315186296E-02 -0.89091358401E-03  0.72125784423E-01  0.51100000000E-03 0.  1.
         11    1    4    4    0    0 -0.56649685938E-01 -0.21092752141E-01  0.37521803182E-02  0.60567574559E-01  0.51100000000E-03 0. -1.
</event>
<event>
 8    1  0.1112958E+005  0.1043930E+01  0.7957747E-01            NaN
         13   -1    0    0    0    0  0.00000000000E+00  0.00000000000E+00  0.74505805969E-08  0.10566000000E+00  0.10566000000E+00 0. -1.
     999900   -1    0    0    0    0 -0.00000000000E+00 -0.00000000000E+00 -0.74505805969E-08  0.93827000000E+00  0.93827000000E+00 0.  1.
     999902    2    1    2    0    0 -0.82620262384E-04 -0.14671576884E-01  0.18078361535E-01  0.10206471920E+01  0.10203815959E+01 0.  0.
     999903    2    3    3    0    0 -0.87742765288E-01 -0.68627205527E-01  0.66643035859E-01  0.13331746831E+00  0.30393534319E-01 0.  0.
         14    1    1    2    0    0  0.82620262384E-04  0.14671576884E-01 -0.18078361535E-01  0.23282808039E-01  0.00000000000E+00 0. -1.
     999901    1    3    3    0    0  0.87660145026E-01  0.53955628643E-01 -0.48564674324E-01  0.88732972365E+00  0.88000000000E+00 0.  1.
        -11    1    4    4    0    0 -0.24543275825E-01 -0.37086221743E-01  0.20703489795E-01  0.49057678727E-01  0.51100000000E-03 0.  1.
         11    1    4    4    0    0 -0.63199489464E-01 -0.31540983784E-01  0.45939546064E-01  0.84259789580E-01  0.51100000000E-03 0. -1.
</event>
<event>
 8    1  0.1112958E+005  0.1043930E+01  0.7957747E-01            NaN
         13   -1    0    0    0    0  0.00000000000E+00  0.00000000000E+00  0.74505805969E-08  0.10566000000E+00  0.10566000000E+00 0.  1.
     999900   -1    0    0    0    0 -0.00000000000E+00 -0.00000000000E+00 -0.74505805969E-08  0.93827000000E+00  0.93827000000E+00 0.  1.
     999902    2    1    2    0    0 -0.21660940055E-01  0.89428695166E-02 -0.85276752829E-02  0.10189922277E+01  0.10186870313E+01 0.  0.
     999903    2    3    3    0    0 -0.10008536760E+00 -0.78031979275E-01 -0.25871098066E-01  0.13106441003E+00  0.20062284611E-01 0.  0.
         14    1    1    2    0    0  0.21660940055E-01 -0.89428695166E-02  0.85276752829E-02  0.24937772254E-01  0.00000000000E+00 0. -1.
     999901    1    3    3    0    0  0.78424427548E-01  0.86974848792E-01  0.17343422783E-01  0.88792781772E+00  0.88000000000E+00 0.  1.
        -11    1    4    4    0    0 -0.67511247457E-01 -0.51093698082E-01 -0.26717357302E-01  0.88782953426E-01  0.51100000000E-03 0.  1.
         11    1    4    4    0    0 -0.32574120146E-01 -0.26938281194E-01  0.84625923601E-03  0.42281456605E-01  0.51100000000E-03 0. -1.
</event>
<event>
 8    1  0.1112958E+005  0.1043930E+01  0.7957747E-01            NaN
         13   -1    0    0    0    0  0.00000000000E+00  0.00000000000E+00  0.74505805969E-08  0.10566000000E+00  0.10566000000E+00 0. -1.
     999900   -1    0    0    0    0 -0.00000000000E+00 -0.00000000000E+00 -0.74505805969E-08  0.93827000000E+00  0.93827000000E+00 0. -1.
     999902    2    1    2    0    0  0.19195732422E-01  0.34245208370E-02 -0.13870948908E-01  0.10200007980E+01  0.10197200700E+01 0.  0.
     999903    2    3    3    0    0  0.78846141501E-02  0.26879282677E-01  0.12416205949E+00  0.12886041697E+00  0.20102911878E-01 0.  0.
         14    1    1    2    0    0 -0.19195732422E-01 -0.34245208370E-02  0.13870948908E-01  0.23929202030E-01  0.00000000000E+00 0. -1.
     999901    1    3    3    0    0  0.11311118271E-01 -0.23454761840E-01 -0.13803300840E+00  0.89114038100E+00  0.88000000000E+00 0. -1.
        -11    1    4    4    0    0  0.59658366042E-02  0.28342529577E-01  0.88652714927E-01  0.93265509027E-01  0.51100000000E-03 0. -1.
         11    1    4    4    0    0  0.19187775460E-02 -0.14632469004E-02  0.35509344564E-01  0.35594907938E-01  0.51100000000E-03 0.  1.
</event>
<event>
 8    1  0.1112958E+005  0.1043930E+01  0.7957747E-01            NaN
         13   -1    0    0    0    0  0.00000000000E+00  0.00000000000E+00  0.74505805969E-08  0.10566000000E+00  0.10566000000E+00 0. -1.
     999900   -1    0    0    0    0 -0.00000000000E+00 -0.00000000000E+00 -0.74505805969E-08  0.93827000000E+00  0.93827000000E+00 0.  1.
     999902    2    1    2    0    0  0.13253505880E-02 -0.22433909516E-01  0.71282352312E-02  0.10203535586E+01  0.10200811419E+01 0.  0.
     999903    2    3    3    0    0  0.12138251832E-01  0.12317178168E+00  0.27156991178E-01  0.12809850137E+00  0.18790926636E-01 0.  0.
         14    1    1    2    0    0 -0.13253505880E-02  0.22433909516E-01 -0.71282352312E-02  0.23576441374E-01  0.00000000000E+00 0.  1.
     999901    1    3    3    0    0 -0.10812901244E-01 -0.14560569119E+00 -0.20028755947E-01  0.89225505726E+00  0.88000000000E+00 0.  1.
        -11    1    4    4    0    0  0.14021835753E-01  0.49924876731E-01  0.13123058254E-01  0.53493747050E-01  0.51100000000E-03 0.  1.
         11    1    4    4    0    0 -0.18835839212E-02  0.73246904944E-01  0.14033932923E-01  0.74604754316E-01  0.51100000000E-03 0. -1.
</event>
<event>
 8    1  0.1112958E+005  0.1043930E+01  0.7957747E-01            NaN
         13   -1    0    0    0    0  0.00000000000E+00  0.00000000000E+00  0.74505805969E-08  0.10566000000E+00  0.10566000000E+00 0.  1.
     999900   -1    0    0    0    0 -0.00000000000E+00 -0.00000000000E+00 -0.74505805969E-08  0.93827000000E+00  0.93827000000E+00 0. -1.
     999902    2    1    2    0    0 -0.23639075479E-01  0.26136235443E-02  0.44312111200E-02  0.10197375931E+01  0.10194505806E+01 0.  0.
     999903    2    3    3    0    0  0.68698093047E-01  0.73991005212E-01 -0.76637400028E-01  0.12833812993E+00  0.20082023552E-01 0.  0.
         14    1    1    2    0    0  0.23639075479E-01 -0.26136235443E-02 -0.44312111200E-02  0.24192406857E-01  0.00000000000E+00 0.  1.
     999901    1    3    3    0    0 -0.92337168526E-01 -0.71377381668E-01  0.81068611148E-01  0.89139946321E+00  0.88000000000E+00 0.  1.
        -11    1    4    4    0    0  0.35366109301E-01  0.24912690361E-01 -0.27124776503E-01  0.51062887203E-01  0.51100000000E-03 0.  1.
         11    1    4    4    0    0  0.33331983746E-01  0.49078314851E-01 -0.49512623525E-01  0.77275242726E-01  0.51100000000E-03 0. -1.
</event>
<event>
 8    1  0.1112958E+005  0.1043930E+01  0.7957747E-01            NaN
         13   -1    0    0    0    0  0.00000000000E+00  0.00000000000E+00  0.74505805969E-08  0.10566000000E+00  0.10566000000E+00 0.  1.
     999900   -1    0    0    0    0 -0.00000000000E+00 -0.00000000000E+00 -0.74505805969E-08  0.93827000000E+00  0.93827000000E+00 0. -1.
     999902    2    1    2    0    0 -0.18043658527E-01 -0.20309168457E-01  0.43586312370E-02  0.10164157564E+01  0.10160432846E+01 0.  0.
     999903    2    3    3    0    0  0.25022867423E-01  0.12002511066E+00  0.26386849921E-02  0.12425467575E+00  0.20002267473E-01 0.  0.
         14    1    1    2    0    0  0.18043658527E-01  0.20309168457E-01 -0.43586312370E-02  0.27514243633E-01  0.00000000000E+00 0. -1.
     999901    1    3    3    0    0 -0.43066525950E-01 -0.14033427912E+00  0.17199462448E-02  0.89216108062E+00  0.88000000000E+00 0. -1.
        -11    1    4    4    0    0  0.28241393386E-02  0.48153013061E-01  0.77509447783E-02  0.48857207205E-01  0.51100000000E-03 0.  1.
         11    1    4    4    0    0  0.22198728085E-01  0.71872097599E-01 -0.51122597862E-02  0.75397468545E-01  0.51100000000E-03 0. -1.
</event>
<event>
 8    1  0.1112958E+005  0.1043930E+01  0.7957747E-01            NaN
         13   -1    0    0    0    0  0.00000000000E+00  0.00000000000E+00  0.74505805969E-08  0.10566000000E+00  0.10566000000E+00 0. -1.
     999900   -1    0    0    0    0 -0.00000000000E+00 -0.00000000000E+00 -0.74505805969E-08  0.93827000000E+00  0.93827000000E+00 0. -1.
     999902    2    1    2    0    0 -0.19619458888E-01 -0.13039581008E-01 -0.11571310456E-03  0.10203722575E+01  0.10201002778E+01 0.  0.
     999903    2    3    3    0    0  0.81450112292E-02  0.88130948518E-01  0.91747340660E-01  0.12939236861E+00  0.22167662072E-01 0.  0.
         14    1    1    2    0    0  0.19619458888E-01  0.13039581008E-01  0.11571310456E-03  0.23557742452E-01  0.00000000000E+00 0. -1.
     999901    1    3    3    0    0 -0.27764470117E-01 -0.10117052953E+00 -0.91863053764E-01  0.89097988894E+00  0.88000000000E+00 0. -1.
        -11    1    4    4    0    0  0.14842118725E-01  0.75181406443E-01  0.76108347195E-01  0.10800589797E+00  0.51100000000E-03 0. -1.
         11    1    4    4    0    0 -0.66971074954E-02  0.12949542075E-01  0.15638993464E-01  0.21386470638E-01  0.51100000000E-03 0.  1.
</event>
<event>
 8    1  0.1112958E+005  0.1043930E+01  0.7957747E-01            NaN
         13   -1    0    0    0    0  0.00000000000E+00  0.00000000000E+00  0.74505805969E-08  0.10566000000E+00  0.10566000000E+00 0.  1.
     999900   -1    0    0    0    0 -0.00000000000E+00 -0.00000000000E+00 -0.74505805969E-08  0.93827000000E+00  0.93827000000E+00 0.  1.
     999902    2    1    2    0    0 -0.21869719576E-01  0.80478350245E-02 -0.41766399782E-02  0.10202551905E+01  0.10199804690E+01 0.  0.
     999903    2    3    3    0    0 -0.48278568286E-02 -0.10038920405E+00 -0.80111063892E-01  0.13019055619E+00  0.20748442653E-01 0.  0.
         14    1    1    2    0    0  0.21869719576E-01 -0.80478350245E-02  0.41766399782E-02  0.23674809491E-01  0.00000000000E+00 0.  1.
     999901    1    3    3    0    0 -0.17041862748E-01  0.10843703907E+00  0.75934423913E-01  0.89006463432E+00  0.88000000000E+00 0. -1.
        -11    1    4    4    0    0 -0.10558060054E-01 -0.43753932123E-01 -0.42895138275E-01  0.62178237487E-01  0.51100000000E-03 0. -1.
         11    1    4    4    0    0  0.57302032257E-02 -0.56635271925E-01 -0.37215925617E-01  0.68012318704E-01  0.51100000000E-03 0.  1.
</event>
<event>
 8    1  0.1112958E+005  0.1043930E+01  0.7957747E-01            NaN
         13   -1    0    0    0    0  0.00000000000E+00  0.00000000000E+00  0.74505805969E-08  0.10566000000E+00  0.10566000000E+00 0.  1.
     999900   -1    0    0    0    0 -0.00000000000E+00 -0.00000000000E+00 -0.74505805969E-08  0.93827000000E+00  0.93827000000E+00 0. -1.
     999902    2    1    2    0    0 -0.19474379827E-01 -0.10970972719E-01 -0.15901686509E-01  0.10164986795E+01  0.10161284801E+01 0.  0.
     999903    2    3    3    0    0 -0.34646628394E-01 -0.10049196517E+00 -0.72072605904E-01  0.13004542216E+00  0.20453053089E-01 0.  0.
         14    1    1    2    0    0  0.19474379827E-01  0.10970972719E-01  0.15901686509E-01  0.27431320528E-01  0.00000000000E+00 0. -1.
     999901    1    3    3    0    0  0.15172248567E-01  0.89520992447E-01  0.56170919396E-01  0.88645325731E+00  0.88000000000E+00 0.  1.
        -11    1    4    4    0    0 -0.10437198406E-01 -0.57182852981E-01 -0.32645991918E-01  0.66669600981E-01  0.51100000000E-03 0. -1.
         11    1    4    4    0    0 -0.24209429989E-01 -0.43309112186E-01 -0.39426613986E-01  0.63375821179E-01  0.51100000000E-03 0.  1.
</event>
<event>
 8    1  0.1112958E+005  0.1043930E+01  0.7957747E-01            NaN
         13   -1    0    0    0    0  0.00000000000E+00  0.00000000000E+00  0.74505805969E-08  0.10566000000E+00  0.10566000000E+00 0.  1.
     999900   -1    0    0    0    0 -0.00000000000E+00 -0.00000000000E+00 -0.74505805969E-08  0.93827000000E+00  0.93827000000E+00 0.  1.
     999902    2    1    2    0    0  0.82802257578E-02 -0.30736394396E-02  0.18464734091E-01  0.10234615901E+01  0.10232568938E+01 0.  0.
     999903    2    3    3    0    0 -0.39742073910E-01  0.86886933770E-01 -0.87683371993E-01  0.13123602087E+00  0.20143181250E-01 0.  0.
         14    1    1    2    0    0 -0.82802257578E-02  0.30736394396E-02 -0.18464734091E-01  0.20468409881E-01  0.00000000000E+00 0.  1.
     999901    1    3    3    0    0  0.48022299668E-01 -0.89960573210E-01  0.10614810608E+00  0.89222556925E+00  0.88000000000E+00 0. -1.
        -11    1    4    4    0    0 -0.27229860895E-01  0.52720933514E-01 -0.66518187079E-01  0.89139735742E-01  0.51100000000E-03 0.  1.
         11    1    4    4    0    0 -0.12512213015E-01  0.34166000256E-01 -0.21165184914E-01  0.42096285127E-01  0.51100000000E-03 0. -1.
</event>
<event>
 8    1  0.1112958E+005  0.1043930E+01  0.7957747E-01            NaN
         13   -1    0    0    0    0  0.00000000000E+00  0.00000000000E+00  0.74505805969E-08  0.10566000000E+00  0.10566000000E+00 0.  1.
     999900   -1    0    0    0    0 -0.00000000000E+00 -0.00000000000E+00 -0.74505805969E-08  0.93827000000E+00  0.93827000000E+00 0. -1.
     999902    2    1    2    0    0 -0.67609616359E-02  0.22662737200E-01 -0.10002997354E-01  0.10182517949E+01  0.10179279678E+01 0.  0.
     999903    2    3    3    0    0  0.79283615648E-01  0.17567579040E-01 -0.98275975329E-01  0.12964516173E+00  0.23562450860E-01 0.  0.
         14    1    1    2    0    0  0.67609616359E-02 -0.22662737200E-01  0.10002997354E-01  0.25678205072E-01  0.00000000000E+00 0.  1.
     999901    1    3    3    0    0 -0.86044577284E-01  0.50951581600E-02  0.88272977975E-01  0.88860663319E+00  0.88000000000E+00 0.  1.
        -11    1    4    4    0    0  0.23311542641E-01 -0.72206554441E-03 -0.15303320865E-01  0.27899859309E-01  0.51100000000E-03 0. -1.
         11    1    4    4    0    0  0.55972073007E-01  0.18289644584E-01 -0.82972654464E-01  0.10174530242E+00  0.51100000000E-03 0.  1.
</event>
<event>
 8    1  0.1112958E+005  0.1043930E+01  0.7957747E-01            NaN
         13   -1    0    0    0    0  0.00000000000E+00  0.00000000000E+00  0.74505805969E-08  0.10566000000E+00  0.10566000000E+00 0.  1.
     999900   -1    0    0    0    0 -0.00000000000E+00 -0.00000000000E+00 -0.74505805969E-08  0.93827000000E+00  0.93827000000E+00 0.  1.
     999902    2    1    2    0    0  0.39772123674E-02 -0.17346903060E-01 -0.27170723387E-01  0.10114495217E+01  0.10109278675E+01 0.  0.
     999903    2    3    3    0    0 -0.85315085582E-01  0.57280276178E-01  0.58942329993E-01  0.11962118150E+00  0.16593219414E-01 0.  0.
         14    1    1    2    0    0 -0.39772123674E-02  0.17346903060E-01  0.27170723387E-01  0.32480478342E-01  0.00000000000E+00 0.  1.
     999901    1    3    3    0    0  0.89292297950E-01 -0.74627179238E-01 -0.86113053380E-01  0.89182834016E+00  0.88000000000E+00 0.  1.
        -11    1    4    4    0    0 -0.79437260221E-01  0.51553722798E-01  0.48708019187E-01  0.10649317771E+00  0.51100000000E-03 0. -1.
         11    1    4    4    0    0 -0.58778253617E-02  0.57265533802E-02  0.10234310806E-01  0.13128003781E-01  0.51100000000E-03 0.  1.
</event>
<event>
 8    1  0.1112958E+005  0.1043930E+01  0.7957747E-01            NaN
         13   -1    0    0    0    0  0.00000000000E+00  0.00000000000E+00  0.74505805969E-08  0.10566000000E+00  0.10566000000E+00 0. -1.
     999900   -1    0    0    0    0 -0.00000000000E+00 -0.00000000000E+00 -0.74505805969E-08  0.93827000000E+00  0.93827000000E+00 0.  1.
     999902    2    1    2    0    0  0.43066120387E-02  0.10237327437E-01 -0.20345416037E-01  0.10207505752E+01  0.10204873596E+01 0.  0.
     999903    2    3    3    0    0 -0.99163070205E-01  0.15618446070E-01 -0.84276685746E-01  0.13236882233E+00  0.18484994330E-01 0.  0.
         14    1    1    2    0    0 -0.43066120387E-02 -0.10237327437E-01  0.20345416037E-01  0.23179424799E-01  0.00000000000E+00 0. -1.
     999901    1    3    3    0    0  0.10346968224E+00 -0.53811186325E-02  0.63931269710E-01  0.88838175287E+00  0.88000000000E+00 0. -1.
        -11    1    4    4    0    0 -0.66069760620E-01  0.65273979725E-02 -0.65412282730E-01  0.93203261990E-01  0.51100000000E-03 0. -1.
         11    1    4    4    0    0 -0.33093309586E-01  0.90910480974E-02 -0.18864403016E-01  0.39165560343E-01  0.51100000000E-03 0.  1.
</event>
<event>
 8    1  0.1112958E+005  0.1043930E+01  0.7957747E-01            NaN
         13   -1    0    0    0    0  0.00000000000E+00  0.00000000000E+00  0.74505805969E-08  0.10566000000E+00  0.10566000000E+00 0. -1.
     999900   -1    0    0    0    0 -0.00000000000E+00 -0.00000000000E+00 -0.74505805969E-08  0.93827000000E+00  0.93827000000E+00 0.  1.
     999902    2    1    2    0    0 -0.90520196521E-02  0.14971779213E-01  0.13693317623E-01  0.10217128854E+01  0.10214713016E+01 0.  0.
     999903    2    3    3    0    0 -0.10667071308E+00 -0.72401557711E-01  0.19391753304E-01  0.13199608695E+00  0.20647040603E-01 0.  0.
         14    1    1    2    0    0  0.90520196521E-02 -0.14971779213E-01 -0.13693317623E-01  0.22217114577E-01  0.00000000000E+00 0.  1.
     999901    1    3    3    0    0  0.97618693432E-01  0.87373336924E-01 -0.56984356812E-02  0.88971679847E+00  0.88000000000E+00 0. -1.
        -11    1    4    4    0    0 -0.72447024641E-01 -0.59279227976E-01  0.17919021706E-01  0.95309761875E-01  0.51100000000E-03 0.  1.
         11    1    4    4    0    0 -0.34223688443E-01 -0.13122329735E-01  0.14727315983E-02  0.36686325077E-01  0.51100000000E-03 0. -1.
</event>
<event>
 8    1  0.1112958E+005  0.1043930E+01  0.7957747E-01            NaN
         13   -1    0    0    0    0  0.00000000000E+00  0.00000000000E+00  0.74505805969E-08  0.10566000000E+00  0.10566000000E+00 0. -1.
     999900   -1    0    0    0    0 -0.00000000000E+00 -0.00000000000E+00 -0.74505805969E-08  0.93827000000E+00  0.93827000000E+00 0. -1.
     999902    2    1    2    0    0 -0.12195212803E-01  0.16108023060E-01  0.89727024531E-02  0.10218234170E+01  0.10215842572E+01 0.  0.
     999903    2    3    3    0    0 -0.34341952545E-01 -0.57692920656E-01 -0.11030208080E+00  0.13044048510E+00  0.18447989757E-01 0.  0.
         14    1    1    2    0    0  0.12195212803E-01 -0.16108023060E-01 -0.89727024531E-02  0.22106582991E-01  0.00000000000E+00 0.  1.
     999901    1    3    3    0    0  0.22146739741E-01  0.73800943716E-01  0.11927478325E+00  0.89138293191E+00  0.88000000000E+00 0.  1.
        -11    1    4    4    0    0 -0.21531466782E-01 -0.19257469502E-01 -0.40863312414E-01  0.50045235696E-01  0.51100000000E-03 0.  1.
         11    1    4    4    0    0 -0.12810485763E-01 -0.38435451154E-01 -0.69438768387E-01  0.80395249406E-01  0.51100000000E-03 0. -1.
</event>
<event>
 8    1  0.1112958E+005  0.1043930E+01  0.7957747E-01            NaN
         13   -1    0    0    0    0  0.00000000000E+00  0.00000000000E+00  0.74505805969E-08  0.10566000000E+00  0.10566000000E+00 0. -1.
     999900   -1    0    0    0    0 -0.00000000000E+00 -0.00000000000E+00 -0.74505805969E-08  0.93827000000E+00  0.93827000000E+00 0.  1.
     999902    2    1    2    0    0  0.19567671026E-01  0.64541203317E-02 -0.43673256757E-02  0.10228676413E+01  0.10226507658E+01 0.  0.
     999903    2    3    3    0    0  0.10895838505E+00  0.53289992382E-02  0.76577273044E-01  0.13464244821E+00  0.19083558608E-01 0.  0.
         14    1    1    2    0    0 -0.19567671026E-01 -0.64541203317E-02  0.43673256757E-02  0.21062358657E-01  0.00000000000E+00 0.  1.
     999901    1    3    3    0    0 -0.89390714020E-01  0.11251210935E-02 -0.80944598720E-01  0.88822519313E+00  0.88000000000E+00 0.  1.
        -11    1    4    4    0    0  0.98143429088E-01  0.85770351493E-02  0.62846354787E-01  0.11685727892E+00  0.51100000000E-03 0. -1.
         11    1    4    4    0    0  0.10814955958E-01 -0.32480359110E-02  0.13730918258E-01  0.17785169295E-01  0.51100000000E-03 0.  1.
</event>
<event>
 8    1  0.1112958E+005  0.1043930E+01  0.7957747E-01            NaN
         13   -1    0    0    0    0  0.00000000000E+00  0.00000000000E+00  0.74505805969E-08  0.10566000000E+00  0.10566000000E+00 0. -1.
     999900   -1    0    0    0    0 -0.00000000000E+00 -0.00000000000E+00 -0.74505805969E-08  0.93827000000E+00  0.93827000000E+00 0.  1.
     999902    2    1    2    0    0  0.19241840564E-01 -0.87929377031E-02 -0.68439006290E-02  0.10216948216E+01  0.10214528405E+01 0.  0.
     999903    2    3    3    0    0 -0.11317961318E+00 -0.38679390752E-01  0.44552453343E-01  0.12980344556E+00  0.23628230416E-01 0.  0.
         14    1    1    2    0    0 -0.19241840564E-01  0.87929377031E-02  0.68439006290E-02  0.22235178379E-01  0.00000000000E+00 0. -1.
     999901    1    3    3    0    0  0.13242145374E+00  0.29886453049E-01 -0.51396353972E-01  0.89189137606E+00  0.88000000000E+00 0.  1.
        -11    1    4    4    0    0 -0.18907781604E-01  0.37899445545E-03  0.13139316530E-01  0.23033684070E-01  0.51100000000E-03 0. -1.
         11    1    4    4    0    0 -0.94271831575E-01 -0.39058385208E-01  0.31413136813E-01  0.10676976149E+00  0.51100000000E-03 0.  1.
</event>
<event>
 8    1  0.1112958E+005  0.1043930E+01  0.7957747E-01            NaN
         13   -1    0    0    0    0  0.00000000000E+00  0.00000000000E+00  0.74505805969E-08  0.10566000000E+00  0.10566000000E+00 0.  1.
     999900   -1    0    0    0    0 -0.00000000000E+00 -0.00000000000E+00 -0.74505805969E-08  0.93827000000E+00  0.93827000000E+00 0. -1.
     999902    2    1    2    0    0  0.15927556163E-01  0.91361273064E-02 -0.16045440616E-01  0.10195453320E+01  0.10192536838E+01 0.  0.
     999903    2    3    3    0    0 -0.22859907114E-01 -0.70761752251E-01 -0.10548475658E+00  0.13056415692E+00  0.19752576148E-01 0.  0.
         14    1    1    2    0    0 -0.15927556163E-01 -0.91361273064E-02  0.16045440616E-01  0.24384667971E-01  0.00000000000E+00 0. -1.
     999901    1    3    3    0    0  0.38787463277E-01  0.79897879558E-01  0.89439315968E-01  0.88898117511E+00  0.88000000000E+00 0.  1.
        -11    1    4    4    0    0 -0.16199630959E-01 -0.66566261142E-01 -0.89241825938E-01  0.11250715436E+00  0.51100000000E-03 0. -1.
         11    1    4    4    0    0 -0.66602761558E-02 -0.41954911094E-02 -0.16242930647E-01  0.18057002551E-01  0.51100000000E-03 0.  1.
</event>
<event>
 8    1  0.1112958E+005  0.1043930E+01  0.7957747E-01            NaN
         13   -1    0    0    0    0  0.00000000000E+00  0.00000000000E+00  0.74505805969E-08  0.10566000000E+00  0.10566000000E+00 0.  1.
     999900   -1    0    0    0    0 -0.00000000000E+00 -0.00000000000E+00 -0.74505805969E-08  0.93827000000E+00  0.93827000000E+00 0. -1.
     999902    2    1    2    0    0 -0.20754496064E-01  0.85192908258E-02  0.75738702086E-02  0.10202510867E+01  0.10199762689E+01 0.  0.
     999903    2    3    3    0    0 -0.56710966249E-03 -0.61967615684E-01 -0.11153164436E+00  0.12920560072E+00  0.20358599102E-01 0.  0.
         14    1    1    2    0    0  0.20754496064E-01 -0.85192908258E-02 -0.75738702086E-02  0.23678913256E-01  0.00000000000E+00 0. -1.
     999901    1    3    3    0    0 -0.20187386401E-01  0.70486906510E-01  0.11910551457E+00  0.89104548602E+00  0.88000000000E+00 0.  1.
        -11    1    4    4    0    0  0.16608529573E-02 -0.17907241943E-01 -0.52577169908E-01  0.55570204814E-01  0.51100000000E-03 0. -1.
         11    1    4    4    0    0 -0.22279626198E-02 -0.44060373741E-01 -0.58954474452E-01  0.73635395908E-01  0.51100000000E-03 0.  1.
</event>
<event>
 8    1  0.1112958E+005  0.1043930E+01  0.7957747E-01            NaN
         13   -1    0    0    0    0  0.00000000000E+00  0.00000000000E+00  0.74505805969E-08  0.10566000000E+00  0.10566000000E+00 0. -1.
     999900   -1    0    0    0    0 -0.00000000000E+00 -0.00000000000E+00 -0.74505805969E-08  0.93827000000E+00  0.93827000000E+00 0.  1.
     999902    2    1    2    0    0 -0.98855250053E-02 -0.21758445795E-01  0.30824745043E-02  0.10198332115E+01  0.10195484903E+01 0.  0.
     999903    2    3    3    0    0  0.35110079805E-02 -0.13135310081E+00  0.80746612157E-02  0.13291981242E+00  0.18344266385E-01 0.  0.
         14    1    1    2    0    0  0.98855250053E-02  0.21758445795E-01 -0.30824745043E-02  0.24096788523E-01  0.00000000000E+00 0.  1.
     999901    1    3    3    0    0 -0.13396532986E-01  0.10959465502E+00 -0.49921867114E-02  0.88691339906E+00  0.88000000000E+00 0.  1.
        -11    1    4    4    0    0  0.46011091979E-03 -0.57883663599E-01 -0.54796127607E-02  0.58146517442E-01  0.51100000000E-03 0.  1.
         11    1    4    4    0    0  0.30508970607E-02 -0.73469437214E-01  0.13554273976E-01  0.74773294975E-01  0.51100000000E-03 0. -1.
</event>
<event>
 8    1  0.1112958E+005  0.1043930E+01  0.7957747E-01            NaN
         13   -1    0    0    0    0  0.00000000000E+00  0.00000000000E+00  0.74505805969E-08  0.10566000000E+00  0.10566000000E+00 0. -1.
     999900   -1    0    0    0    0 -0.00000000000E+00 -0.00000000000E+00 -0.74505805969E-08  0.93827000000E+00  0.93827000000E+00 0. -1.
     999902    2    1    2    0    0  0.18477833531E-02  0.20334310660E-01 -0.12416284503E-01  0.10200330836E+01  0.10197531216E+01 0.  0.
     999903    2    3    3    0    0 -0.48468713308E-01  0.96442217918E-01 -0.75238662648E-01  0.13308843222E+00  0.20033892973E-01 0.  0.
         14    1    1    2    0    0 -0.18477833531E-02 -0.20334310660E-01  0.12416284503E-01  0.23896916416E-01  0.00000000000E+00 0. -1.
     999901    1    3    3    0    0  0.50316496661E-01 -0.76107907258E-01  0.62822378146E-01  0.88694465136E+00  0.88000000000E+00 0. -1.
        -11    1    4    4    0    0 -0.36649120573E-01  0.59103787395E-01 -0.56818048266E-01  0.89805163843E-01  0.51100000000E-03 0.  1.
         11    1    4    4    0    0 -0.11819592735E-01  0.37338430523E-01 -0.18420614383E-01  0.43283268379E-01  0.51100000000E-03 0. -1.
</event>
<event>
 8    1  0.1112958E+005  0.1043930E+01  0.7957747E-01            NaN
         13   -1    0    0    0    0  0.00000000000E+00  0.00000000000E+00  0.74505805969E-08  0.10566000000E+00  0.10566000000E+00 0.  1.
     999900   -1    0    0    0    0 -0.00000000000E+00 -0.00000000000E+00 -0.74505805969E-08  0.93827000000E+00  0.93827000000E+00 0.  1.
     999902    2    1    2    0    0  0.36980518678E-02  0.14872604440E-01  0.16050062116E-01  0.10217382348E+01  0.10214972080E+01 0.  0.
     999903    2    3    3    0    0  0.12196214962E+00 -0.13905301708E-01 -0.42460867953E-01  0.13143598629E+00  0.20108948971E-01 0.  0.
         14    1    1    2    0    0 -0.36980518678E-02 -0.14872604440E-01 -0.16050062116E-01  0.22191765238E-01  0.00000000000E+00 0.  1.
     999901    1    3    3    0    0 -0.11826409775E+00  0.28777906148E-01  0.58510930070E-01  0.89030224847E+00  0.88000000000E+00 0. -1.
        -11    1    4    4    0    0  0.36582980600E-01 -0.13207994678E-01 -0.10771950775E-01  0.40361635714E-01  0.51100000000E-03 0.  1.
         11    1    4    4    0    0  0.85379169020E-01 -0.69730703021E-03 -0.31688917179E-01  0.91074350574E-01  0.51100000000E-03 0. -1.
</event>
<event>
 8    1  0.1112958E+005  0.1043930E+01  0.7957747E-01            NaN
         13   -1    0    0    0    0  0.00000000000E+00  0.00000000000E+00  0.74505805969E-08  0.10566000000E+00  0.10566000000E+00 0.  1.
     999900   -1    0    0    0    0 -0.00000000000E+00 -0.00000000000E+00 -0.74505805969E-08  0.93827000000E+00  0.93827000000E+00 0.  1.
     999902    2    1    2    0    0 -0.68022932175E-04  0.20622826918E-01  0.12743298819E-01  0.10196875314E+01  0.10193993155E+01 0.  0.
     999903    2    3    3    0    0  0.22664119168E-01  0.11331819163E+00  0.62980887724E-01  0.13310251224E+00  0.19874901119E-01 0.  0.
         14    1    1    2    0    0  0.68022932175E-04 -0.20622826918E-01 -0.12743298819E-01  0.24242468562E-01  0.00000000000E+00 0.  1.
     999901    1    3    3    0    0 -0.22732142100E-01 -0.92695364713E-01 -0.50237588905E-01  0.88658501920E+00  0.88000000000E+00 0.  1.
        -11    1    4    4    0    0  0.18228079591E-01  0.67622396341E-01  0.47596243382E-01  0.84680073675E-01  0.51100000000E-03 0.  1.
         11    1    4    4    0    0  0.44360395769E-02  0.45695795289E-01  0.15384644343E-01  0.48422438567E-01  0.51100000000E-03 0. -1.
</event>
<event>
 8    1  0.1112958E+005  0.1043930E+01  0.7957747E-01            NaN
         13   -1    0    0    0    0  0.00000000000E+00  0.00000000000E+00  0.74505805969E-08  0.10566000000E+00  0.10566000000E+00 0.  1.
     999900   -1    0    0    0    0 -0.00000000000E+00 -0.00000000000E+00 -0.74505805969E-08  0.93827000000E+00  0.93827000000E+00 0. -1.
     999902    2    1    2    0    0 -0.17014029666E-01 -0.98086604407E-02 -0.13572770574E-01  0.10200572723E+01  0.10197778835E+01 0.  0.
     999903    2    3    3    0    0 -0.85346620784E-01  0.92113212590E-01 -0.33394310554E-01  0.13132204480E+00  0.19010782743E-01 0.  0.
         14    1    1    2    0    0  0.17014029666E-01  0.98086604407E-02  0.13572770574E-01  0.23872727665E-01  0.00000000000E+00 0.  1.
     999901    1    3    3    0    0  0.68332591118E-01 -0.10192187303E+00  0.19821539980E-01  0.88873522753E+00  0.88000000000E+00 0.  1.
        -11    1    4    4    0    0 -0.40024890237E-01  0.40947858062E-01 -0.56070722786E-02  0.57536243350E-01  0.51100000000E-03 0.  1.
         11    1    4    4    0    0 -0.45321730547E-01  0.51165354529E-01 -0.27787238276E-01  0.73785801451E-01  0.51100000000E-03 0. -1.
</event>
<event>
 8    1  0.1112958E+005  0.1043930E+01  0.7957747E-01            NaN
         13   -1    0    0    0    0  0.00000000000E+00  0.00000000000E+00  0.74505805969E-08  0.10566000000E+00  0.10566000000E+00 0.  1.
     999900   -1    0    0    0    0 -0.00000000000E+00 -0.00000000000E+00 -0.74505805969E-08  0.93827000000E+00  0.93827000000E+00 0. -1.
     999902    2    1    2    0    0 -0.86643641800E-02  0.89153303896E-02  0.17900159524E-01  0.10221361928E+01  0.10219038245E+01 0.  0.
     999903    2    3    3    0    0 -0.10710134440E+00  0.73208817053E-01  0.27696086394E-01  0.13426263663E+00  0.20716021048E-01 0.  0.
         14    1    1    2    0    0  0.86643641800E-02 -0.89153303896E-02 -0.17900159524E-01  0.21793807230E-01  0.00000000000E+00 0. -1.
     999901    1    3    3    0    0  0.98436980219E-01 -0.64293486663E-01 -0.97959268695E-02  0.88787355614E+00  0.88000000000E+00 0.  1.
        -11    1    4    4    0    0 -0.51162346461E-01  0.32547372911E-01  0.26106926312E-02  0.60695914325E-01  0.51100000000E-03 0. -1.
         11    1    4    4    0    0 -0.55938997938E-01  0.40661444142E-01  0.25085393762E-01  0.73566722309E-01  0.51100000000E-03 0.  1.
</event>
<event>
 8    1  0.1112958E+005  0.1043930E+01  0.7957747E-01            NaN
         13   -1    0    0    0    0  0.00000000000E+00  0.00000000000E+00  0.74505805969E-08  0.10566000000E+00  0.10566000000E+00 0. -1.
     999900   -1    0    0    0    0 -0.00000000000E+00 -0.00000000000E+00 -0.74505805969E-08  0.93827000000E+00  0.93827000000E+00 0.  1.
     999902    2    1    2    0    0 -0.17759813734E-02  0.24348828851E-01  0.13019595368E-02  0.10194817961E+01  0.10191886076E+01 0.  0.
     999903    2    3    3    0    0 -0.73873827892E-01  0.79935326740E-01 -0.71461601548E-01  0.13179801565E+00  0.20419537819E-01 0.  0.
         14    1    1    2    0    0  0.17759813734E-02 -0.24348828851E-01 -0.13019595368E-02  0.24448203919E-01  0.00000000000E+00 0.  1.
     999901    1    3    3    0    0  0.72097846519E-01 -0.55586497889E-01  0.72763561084E-01  0.88768378043E+00  0.88000000000E+00 0. -1.
        -11    1    4    4    0    0 -0.39523518602E-01  0.29170786259E-01 -0.36798740042E-01  0.61379570570E-01  0.51100000000E-03 0. -1.
         11    1    4    4    0    0 -0.34350309290E-01  0.50764540481E-01 -0.34662861505E-01  0.70418445079E-01  0.51100000000E-03 0.  1.
</event>
<event>
 8    1  0.1112958E+005  0.1043930E+01  0.7957747E-01            NaN
         13   -1    0    0    0    0  0.00000000000E+00  0.00000000000E+00  0.74505805969E-08  0.10566000000E+00  0.10566000000E+00 0. -1.
     999900   -1    0    0    0    0 -0.00000000000E+00 -0.00000000000E+00 -0.74505805969E-08  0.93827000000E+00  0.93827000000E+00 0. -1.
     999902    2    1    2    0    0  0.13211580435E-01  0.35192306884E-02 -0.20668378327E-01  0.10191487025E+01  0.10188473709E+01 0.  0.
     999903    2    3    3    0    0  0.23791926529E-04  0.12753525461E+00  0.11946781952E-01  0.12975697744E+00  0.20710042502E-01 0.  0.
         14    1    1    2    0    0 -0.13211580435E-01 -0.35192306884E-02  0.20668378327E-01  0.24781297482E-01  0.00000000000E+00 0. -1.
     999901    1    3    3    0    0  0.13187788508E-01 -0.12401602392E+00 -0.32615160279E-01  0.88939172508E+00  0.88000000000E+00 0. -1.
        -11    1    4    4    0    0 -0.74861270794E-02  0.10062171190E+00  0.53514162138E-02  0.10104291059E+00  0.51100000000E-03 0. -1.
         11    1    4    4    0    0  0.75099190060E-02  0.26913542717E-01  0.65953657379E-02  0.28714066853E-01  0.51100000000E-03 0.  1.
</event>
<event>
 8    1  0.1112958E+005  0.1043930E+01  0.7957747E-01            NaN
         13   -1    0    0    0    0  0.00000000000E+00  0.00000000000E+00  0.74505805969E-08  0.10566000000E+00  0.10566000000E+00 0.  1.
     999900   -1    0    0    0    0 -0.00000000000E+00 -0.00000000000E+00 -0.74505805969E-08  0.93827000000E+00  0.93827000000E+00 0. -1.
     999902    2    1    2    0    0  0.93690276783E-02 -0.17388487767E-02 -0.20173055421E-01  0.10216195890E+01  0.10213759495E+01 0.  0.
     999903    2    3    3    0    0  0.49347309100E-01 -0.79562390974E-01  0.88788416222E-01  0.13059356860E+00  0.20148606170E-01 0.  0.
         14    1    1    2    0    0 -0.93690276783E-02  0.17388487767E-02  0.20173055421E-01  0.22310411016E-01  0.00000000000E+00 0.  1.
     999901    1    3    3    0    0 -0.39978281421E-01  0.77823542197E-01 -0.10896147164E+00  0.89102602039E+00  0.88000000000E+00 0. -1.
        -11    1    4    4    0    0  0.48393180657E-01 -0.64407169259E-01  0.75375862185E-01  0.11032662918E+00  0.51100000000E-03 0. -1.
         11    1    4    4    0    0  0.95412844233E-03 -0.15155221715E-01  0.13412554036E-01  0.20266939411E-01  0.51100000000E-03 0.  1.
</event>
<event>
 8    1  0.1112958E+005  0.1043930E+01  0.7957747E-01            NaN
         13   -1    0    0    0    0  0.00000000000E+00  0.00000000000E+00  0.74505805969E-08  0.10566000000E+00  0.10566000000E+00 0. -1.
     999900   -1    0    0    0    0 -0.00000000000E+00 -0.00000000000E+00 -0.74505805969E-08  0.93827000000E+00  0.93827000000E+00 0. -1.
     999902    2    1    2    0    0 -0.16716600028E-01  0.15721849991E-01  0.76940517340E-02  0.10197262872E+01  0.10194390031E+01 0.  0.
     999903    2    3    3    0    0 -0.12362481399E+00  0.15368443367E-01 -0.38918942985E-01  0.13203137200E+00  0.19957840177E-01 0.  0.
         14    1    1    2    0    0  0.16716600028E-01 -0.15721849991E-01 -0.76940517340E-02  0.24203712850E-01  0.00000000000E+00 0.  1.
     999901    1    3    3    0    0  0.10690821396E+00  0.35340662453E-03  0.46612994719E-01  0.88769491515E+00  0.88000000000E+00 0.  1.
        -11    1    4    4    0    0 -0.11093241576E+00  0.19481235686E-01 -0.32563336011E-01  0.11724398229E+00  0.51100000000E-03 0.  1.
         11    1    4    4    0    0 -0.12692398221E-01 -0.41127923195E-02 -0.63556069744E-02  0.14787389705E-01  0.51100000000E-03 0. -1.
</event>
<event>
 8    1  0.1112958E+005  0.1043930E+01  0.7957747E-01            NaN
         13   -1    0    0    0    0  0.00000000000E+00  0.00000000000E+00  0.74505805969E-08  0.10566000000E+00  0.10566000000E+00 0.  1.
     999900   -1    0    0    0    0 -0.00000000000E+00 -0.00000000000E+00 -0.74505805969E-08  0.93827000000E+00  0.93827000000E+00 0.  1.
     999902    2    1    2    0    0 -0.11020965664E-01 -0.12299149002E-01 -0.17169583898E-01  0.10201072092E+01  0.10198290018E+01 0.  0.
     999903    2    3    3    0    0 -0.15965828544E-01  0.74235298050E-01  0.10119231629E+00  0.12796248909E+00  0.19202254586E-01 0.  0.
         14    1    1    2    0    0  0.11020965664E-01  0.12299149002E-01  0.17169583898E-01  0.23822790802E-01  0.00000000000E+00 0.  1.
     999901    1    3    3    0    0  0.49448628798E-02 -0.86534447053E-01 -0.11836190019E+00  0.89214472011E+00  0.88000000000E+00 0.  1.
        -11    1    4    4    0    0 -0.12967615459E-02  0.29392892299E-01  0.26411774030E-01  0.39540695955E-01  0.51100000000E-03 0.  1.
         11    1    4    4    0    0 -0.14669066998E-01  0.44842405752E-01  0.74780542259E-01  0.88421793138E-01  0.51100000000E-03 0. -1.
</event>
<event>
 8    1  0.1112958E+005  0.1043930E+01  0.7957747E-01            NaN
         13   -1    0    0    0    0  0.00000000000E+00  0.00000000000E+00  0.74505805969E-08  0.10566000000E+00  0.10566000000E+00 0. -1.
     999900   -1    0    0    0    0 -0.00000000000E+00 -0.00000000000E+00 -0.74505805969E-08  0.93827000000E+00  0.93827000000E+00 0. -1.
     999902    2    1    2    0    0  0.45874339074E-03 -0.20743409127E-01  0.49660539296E-02  0.10225954937E+01  0.10223729176E+01 0.  0.
     999903    2    3    3    0    0 -0.50431634314E-01 -0.30398749218E-01  0.11844685152E+00  0.13379802095E+00  0.20120141159E-01 0.  0.
         14    1    1    2    0    0 -0.45874339074E-03  0.20743409127E-01 -0.49660539296E-02  0.21334506307E-01  0.00000000000E+00 0.  1.
     999901    1    3    3    0    0  0.50890377705E-01  0.96553400906E-02 -0.11348079759E+00  0.88879747274E+00  0.88000000000E+00 0. -1.
        -11    1    4    4    0    0 -0.23398191722E-01 -0.25024795801E-01  0.58055298384E-01  0.67412124816E-01  0.51100000000E-03 0.  1.
         11    1    4    4    0    0 -0.27033442592E-01 -0.53739534172E-02  0.60391553139E-01  0.66385896132E-01  0.51100000000E-03 0. -1.
</event>
<event>
 8    1  0.1112958E+005  0.1043930E+01  0.7957747E-01            NaN
         13   -1    0    0    0    0  0.00000000000E+00  0.00000000000E+00  0.74505805969E-08  0.10566000000E+00  0.10566000000E+00 0.  1.
     999900   -1    0    0    0    0 -0.00000000000E+00 -0.00000000000E+00 -0.74505805969E-08  0.93827000000E+00  0.93827000000E+00 0. -1.
     999902    2    1    2    0    0 -0.21486064509E-01  0.16946577154E-02  0.78330910217E-02  0.10209979232E+01  0.10207403583E+01 0.  0.
     999903    2    3    3    0    0 -0.38863370996E-01  0.11114343898E+00 -0.55478302368E-01  0.13179078249E+00  0.20681940935E-01 0.  0.
         14    1    1    2    0    0  0.21486064509E-01 -0.16946577154E-02 -0.78330910217E-02  0.22932076832E-01  0.00000000000E+00 0. -1.
     999901    1    3    3    0    0  0.17377306487E-01 -0.10944878127E+00  0.63311393389E-01  0.88920714068E+00  0.88000000000E+00 0.  1.
        -11    1    4    4    0    0 -0.19199411516E-01  0.27779873263E-01 -0.18363212180E-01  0.38442261167E-01  0.51100000000E-03 0.  1.
         11    1    4    4    0    0 -0.19663959480E-01  0.83363565722E-01 -0.37115090187E-01  0.93348521322E-01  0.51100000000E-03 0. -1.
</event>
<event>
 8    1  0.1112958E+005  0.1043930E+01  0.7957747E-01            NaN
         13   -1    0    0    0    0  0.00000000000E+00  0.00000000000E+00  0.74505805969E-08  0.10566000000E+00  0.10566000000E+00 0.  1.
     999900   -1    0    0    0    0 -0.00000000000E+00 -0.00000000000E+00 -0.74505805969E-08  0.93827000000E+00  0.93827000000E+00 0. -1.
     999902    2    1    2    0    0 -0.19238255759E-01  0.99561777129E-02  0.10632377094E-01  0.10197994509E+01  0.10195139217E+01 0.  0.
     999903    2    3    3    0    0 -0.80019712125E-01 -0.70390551684E-01  0.74535179198E-01  0.13174902972E+00  0.21079131844E-01 0.  0.
         14    1    1    2    0    0  0.19238255759E-01 -0.99561777129E-02 -0.10632377094E-01  0.24130549144E-01  0.00000000000E+00 0.  1.
     999901    1    3    3    0    0  0.60781456366E-01  0.80346729396E-01 -0.63902802104E-01  0.88805042114E+00  0.88000000000E+00 0.  1.
        -11    1    4    4    0    0 -0.36425714873E-01 -0.36279489293E-01  0.48099132077E-01  0.70404699239E-01  0.51100000000E-03 0. -1.
         11    1    4    4    0    0 -0.43593997252E-01 -0.34111062391E-01  0.26436047120E-01  0.61344330481E-01  0.51100000000E-03 0.  1.
</event>
<event>
 8    1  0.1112958E+005  0.1043930E+01  0.7957747E-01            NaN
         13   -1    0    0    0    0  0.00000000000E+00  0.00000000000E+00  0.74505805969E-08  0.10566000000E+00  0.10566000000E+00 0.  1.
     999900   -1    0    0    0    0 -0.00000000000E+00 -0.00000000000E+00 -0.74505805969E-08  0.93827000000E+00  0.93827000000E+00 0. -1.
     999902    2    1    2    0    0 -0.37017840625E-02  0.20805355934E-01  0.73560585787E-02  0.10215541729E+01  0.10213090867E+01 0.  0.
     999903    2    3    3    0    0  0.11374649373E+00 -0.56257013698E-01  0.21717255378E-01  0.13029722300E+00  0.20065161701E-01 0.  0.
         14    1    1    2    0    0  0.37017840625E-02 -0.20805355934E-01 -0.73560585787E-02  0.22375827104E-01  0.00000000000E+00 0. -1.
     999901    1    3    3    0    0 -0.11744827779E+00  0.77062369632E-01 -0.14361196799E-01  0.89125694990E+00  0.88000000000E+00 0. -1.
        -11    1    4    4    0    0  0.62342339499E-01 -0.21642347092E-01  0.54225735002E-02  0.66216492706E-01  0.51100000000E-03 0. -1.
         11    1    4    4    0    0  0.51404154228E-01 -0.34614666607E-01  0.16294681878E-01  0.64080730291E-01  0.51100000000E-03 0.  1.
</event>
<event>
 8    1  0.1112958E+005  0.1043930E+01  0.7957747E-01            NaN
         13   -1    0    0    0    0  0.00000000000E+00  0.00000000000E+00  0.74505805969E-08  0.10566000000E+00  0.10566000000E+00 0.  1.
     999900   -1    0    0    0    0 -0.00000000000E+00 -0.00000000000E+00 -0.74505805969E-08  0.93827000000E+00  0.93827000000E+00 0. -1.
     999902    2    1    2    0    0  0.22394311860E-01  0.77015418550E-02 -0.29742557917E-02  0.10200623410E+01  0.10197830722E+01 0.  0.
     999903    2    3    3    0    0 -0.55534304612E-01  0.99643712914E-01 -0.58648885804E-01  0.13010397311E+00  0.21781264881E-01 0.  0.
         14    1    1    2    0    0 -0.22394311860E-01 -0.77015418550E-02  0.29742557917E-02  0.23867659042E-01  0.00000000000E+00 0. -1.
     999901    1    3    3    0    0  0.77928616471E-01 -0.91942171059E-01  0.55674630012E-01  0.88995836785E+00  0.88000000000E+00 0.  1.
        -11    1    4    4    0    0 -0.22272818526E-01  0.27006872478E-01 -0.26832001241E-01  0.44109715684E-01  0.51100000000E-03 0.  1.
         11    1    4    4    0    0 -0.33261486086E-01  0.72636840436E-01 -0.31816884563E-01  0.85994257421E-01  0.51100000000E-03 0. -1.
</event>
<event>
 8    1  0.1112958E+005  0.1043930E+01  0.7957747E-01            NaN
         13   -1    0    0    0    0  0.00000000000E+00  0.00000000000E+00  0.74505805969E-08  0.10566000000E+00  0.10566000000E+00 0. -1.
     999900   -1    0    0    0    0 -0.00000000000E+00 -0.00000000000E+00 -0.74505805969E-08  0.93827000000E+00  0.93827000000E+00 0. -1.
     999902    2    1    2    0    0 -0.20627772262E-01 -0.56942726257E-02  0.11469027280E-01  0.10196510314E+01  0.10193619365E+01 0.  0.
     999903    2    3    3    0    0 -0.48990867565E-01 -0.12042668140E+00  0.72746578060E-02  0.13174023435E+00  0.19996949844E-01 0.  0.
         14    1    1    2    0    0  0.20627772262E-01  0.56942726257E-02 -0.11469027280E-01  0.24278968594E-01  0.00000000000E+00 0.  1.
     999901    1    3    3    0    0  0.28363095303E-01  0.11473240877E+00  0.41943694741E-02  0.88791079706E+00  0.88000000000E+00 0.  1.
        -11    1    4    4    0    0 -0.23104575605E-01 -0.42615357164E-01  0.10768519208E-01  0.49659965838E-01  0.51100000000E-03 0.  1.
         11    1    4    4    0    0 -0.25886291960E-01 -0.77811324232E-01 -0.34938614018E-02  0.82080268510E-01  0.51100000000E-03 0. -1.
</event>
<event>
 8    1  0.1112958E+005  0.1043930E+01  0.7957747E-01            NaN
         13   -1    0    0    0    0  0.00000000000E+00  0.00000000000E+00  0.74505805969E-08  0.10566000000E+00  0.10566000000E+00 0.  1.
     999900   -1    0    0    0    0 -0.00000000000E+00 -0.00000000000E+00 -0.74505805969E-08  0.93827000000E+00  0.93827000000E+00 0. -1.
     999902    2    1    2    0    0 -0.20942164490E-01  0.11245961853E-01 -0.71263093059E-02  0.10191140737E+01  0.10188118890E+01 0.  0.
     999903    2    3    3    0    0  0.17275908231E-01  0.74552624215E-02 -0.12689296787E+00  0.13017141925E+00  0.22107355118E-01 0.  0.
         14    1    1    2    0    0  0.20942164490E-01 -0.11245961853E-01  0.71263093059E-02  0.24815926254E-01  0.00000000000E+00 0.  1.
     999901    1    3    3    0    0 -0.38218072721E-01  0.37906994314E-02  0.11976665857E+00  0.88894265450E+00  0.88000000000E+00 0.  1.
        -11    1    4    4    0    0  0.19473958363E-01  0.26598729337E-02 -0.11931462158E+00  0.12092373639E+00  0.51100000000E-03 0. -1.
         11    1    4    4    0    0 -0.21980501320E-02  0.47953894878E-02 -0.75783462918E-02  0.92476828579E-02  0.51100000000E-03 0.  1.
</event>
<event>
 8    1  0.1112958E+005  0.1043930E+01  0.7957747E-01            NaN
         13   -1    0    0    0    0  0.00000000000E+00  0.00000000000E+00  0.74505805969E-08  0.10566000000E+00  0.10566000000E+00 0.  1.
     999900   -1    0    0    0    0 -0.00000000000E+00 -0.00000000000E+00 -0.74505805969E-08  0.93827000000E+00  0.93827000000E+00 0. -1.
     999902    2    1    2    0    0  0.90073533664E-02  0.63983673432E-02  0.21021180021E-01  0.10201821258E+01  0.10199056860E+01 0.  0.
     999903    2    3    3    0    0 -0.19163837125E-02 -0.11980160978E+00  0.48021645190E-01  0.13070206005E+00  0.20514674303E-01 0.  0.
         14    1    1    2    0    0 -0.90073533664E-02 -0.63983673432E-02 -0.21021180021E-01  0.23747874195E-01  0.00000000000E+00 0. -1.
     999901    1    3    3    0    0  0.10923737079E-01  0.12619997712E+00 -0.27000465169E-01  0.88948006576E+00  0.88000000000E+00 0. -1.
        -11    1    4    4    0    0 -0.77807683345E-02 -0.41739179218E-01  0.24202339887E-01  0.48874469968E-01  0.51100000000E-03 0. -1.
         11    1    4    4    0    0  0.58643846220E-02 -0.78062430562E-01  0.23819305303E-01  0.81827590081E-01  0.51100000000E-03 0.  1.
</event>
<event>
 8    1  0.1112958E+005  0.1043930E+01  0.7957747E-01            NaN
         13   -1    0    0    0    0  0.00000000000E+00  0.00000000000E+00  0.74505805969E-08  0.10566000000E+00  0.10566000000E+00 0. -1.
     999900   -1    0    0    0    0 -0.00000000000E+00 -0.00000000000E+00 -0.74505805969E-08  0.93827000000E+00  0.93827000000E+00 0.  1.
     999902    2    1    2    0    0 -0.61524498450E-02 -0.74169298546E-02 -0.21996866964E-01  0.10199148872E+01  0.10196321157E+01 0.  0.
     999903    2    3    3    0    0 -0.42536810279E-01  0.10579512424E+00 -0.61164874593E-01  0.13105329857E+00  0.20780679532E-01 0.  0.
         14    1    1    2    0    0  0.61524498450E-02  0.74169298546E-02  0.21996866964E-01  0.24015112821E-01  0.00000000000E+00 0. -1.
     999901    1    3    3    0    0  0.36384360434E-01 -0.11321205409E+00  0.39168007629E-01  0.88886158861E+00  0.88000000000E+00 0. -1.
        -11    1    4    4    0    0 -0.32213182341E-01  0.52358910400E-01 -0.32684524028E-01  0.69625310389E-01  0.51100000000E-03 0. -1.
         11    1    4    4    0    0 -0.10323627939E-01  0.53436213838E-01 -0.28480350565E-01  0.61427988185E-01  0.51100000000E-03 0.  1.
</event>
<event>
 8    1  0.1112958E+005  0.1043930E+01  0.7957747E-01            NaN
         13   -1    0    0    0    0  0.00000000000E+00  0.00000000000E+00  0.74505805969E-08  0.10566000000E+00  0.10566000000E+00 0.  1.
     999900   -1    0    0    0    0 -0.00000000000E+00 -0.00000000000E+00 -0.74505805969E-08  0.93827000000E+00  0.93827000000E+00 0. -1.
     999902    2    1    2    0    0 -0.12547484389E-01  0.16856225718E-01  0.15579717746E-01  0.10177708847E+01  0.10174346536E+01 0.  0.
     999903    2    3    3    0    0 -0.84687473879E-01  0.46601882756E-01  0.86509225884E-01  0.13147523573E+00  0.21405320350E-01 0.  0.
         14    1    1    2    0    0  0.12547484389E-01 -0.16856225718E-01 -0.15579717746E-01  0.26159115333E-01  0.00000000000E+00 0. -1.
     999901    1    3    3    0    0  0.72139989490E-01 -0.29745657038E-01 -0.70929508138E-01  0.88629564893E+00  0.88000000000E+00 0. -1.
        -11    1    4    4    0    0 -0.68345747028E-01  0.27569560655E-01  0.60670895135E-01  0.95459103542E-01  0.51100000000E-03 0. -1.
         11    1    4    4    0    0 -0.16341726850E-01  0.19032322101E-01  0.25838330749E-01  0.36016132190E-01  0.51100000000E-03 0.  1.
</event>
<event>
 8    1  0.1112958E+005  0.1043930E+01  0.7957747E-01            NaN
         13   -1    0    0    0    0  0.00000000000E+00  0.00000000000E+00  0.74505805969E-08  0.10566000000E+00  0.10566000000E+00 0. -1.
     999900   -1    0    0    0    0 -0.00000000000E+00 -0.00000000000E+00 -0.74505805969E-08  0.93827000000E+00  0.93827000000E+00 0. -1.
     999902    2    1    2    0    0 -0.13020701437E-01 -0.18541737284E-01 -0.66868171308E-02  0.10203069559E+01  0.10200334485E+01 0.  0.
     999903    2    3    3    0    0 -0.65232073043E-01  0.74556989853E-01  0.80876384936E-01  0.12954283751E+00  0.20649189347E-01 0.  0.
         14    1    1    2    0    0  0.13020701437E-01  0.18541737284E-01  0.66868171308E-02  0.23623044062E-01  0.00000000000E+00 0.  1.
     999901    1    3    3    0    0  0.52211371605E-01 -0.93098727137E-01 -0.87563202067E-01  0.89076411843E+00  0.88000000000E+00 0.  1.
        -11    1    4    4    0    0 -0.51935710196E-01  0.69173294353E-01  0.65457698201E-01  0.10847688242E+00  0.51100000000E-03 0. -1.
         11    1    4    4    0    0 -0.13296362847E-01  0.53836955005E-02  0.15418686735E-01  0.21065955089E-01  0.51100000000E-03 0.  1.
</event>
<event>
 8    1  0.1112958E+005  0.1043930E+01  0.7957747E-01            NaN
         13   -1    0    0    0    0  0.00000000000E+00  0.00000000000E+00  0.74505805969E-08  0.10566000000E+00  0.10566000000E+00 0.  1.
     999900   -1    0    0    0    0 -0.00000000000E+00 -0.00000000000E+00 -0.74505805969E-08  0.93827000000E+00  0.93827000000E+00 0.  1.
     999902    2    1    2    0    0 -0.20702583575E-01 -0.11372374584E-01 -0.11674881713E-02  0.10202806681E+01  0.10200065445E+01 0.  0.
     999903    2    3    3    0    0 -0.48089460111E-01 -0.88307499694E-01 -0.84110236796E-01  0.13261600505E+00  0.20041511587E-01 0.  0.
         14    1    1    2    0    0  0.20702583575E-01  0.11372374584E-01  0.11674881713E-02  0.23649331893E-01  0.00000000000E+00 0.  1.
     999901    1    3    3    0    0  0.27386876535E-01  0.76935125111E-01  0.82942748625E-01  0.88766466305E+00  0.88000000000E+00 0. -1.
        -11    1    4    4    0    0 -0.12956389961E-01 -0.44620476132E-01 -0.38267354686E-01  0.60195568664E-01  0.51100000000E-03 0.  1.
         11    1    4    4    0    0 -0.35133070150E-01 -0.43687023563E-01 -0.45842882110E-01  0.72420436391E-01  0.51100000000E-03 0. -1.
</event>
<event>
 8    1  0.1112958E+005  0.1043930E+01  0.7957747E-01            NaN
         13   -1    0    0    0    0  0.00000000000E+00  0.00000000000E+00  0.74505805969E-08  0.10566000000E+00  0.10566000000E+00 0.  1.
     999900   -1    0    0    0    0 -0.00000000000E+00 -0.00000000000E+00 -0.74505805969E-08  0.93827000000E+00  0.93827000000E+00 0.  1.
     999902    2    1    2    0    0  0.11779551183E-02  0.17386245631E-01 -0.28403113668E-01  0.10106072453E+01  0.10100577203E+01 0.  0.
     999903    2    3    3    0    0  0.84669345626E-01  0.79829400820E-01  0.31989648213E-01  0.12239710934E+00  0.20398123880E-01 0.  0.
         14    1    1    2    0    0 -0.11779551183E-02 -0.17386245631E-01  0.28403113668E-01  0.33322754710E-01  0.00000000000E+00 0.  1.
     999901    1    3    3    0    0 -0.83491390507E-01 -0.62443155189E-01 -0.60392761881E-01  0.88821013595E+00  0.88000000000E+00 0.  1.
        -11    1    4    4    0    0  0.54716358174E-01  0.47060481216E-01  0.29375756561E-01  0.77921530649E-01  0.51100000000E-03 0. -1.
         11    1    4    4    0    0  0.29952987451E-01  0.32768919604E-01  0.26138916523E-02  0.44475578690E-01  0.51100000000E-03 0.  1.
</event>
<event>
 8    1  0.1112958E+005  0.1043930E+01  0.7957747E-01            NaN
         13   -1    0    0    0    0  0.00000000000E+00  0.00000000000E+00  0.74505805969E-08  0.10566000000E+00  0.10566000000E+00 0. -1.
     999900   -1    0    0    0    0 -0.00000000000E+00 -0.00000000000E+00 -0.74505805969E-08  0.93827000000E+00  0.93827000000E+00 0. -1.
     999902    2    1    2    0    0 -0.20397115153E-01 -0.76035284638E-02 -0.89956645821E-02  0.10203762756E+01  0.10201043897E+01 0.  0.
     999903    2    3    3    0    0 -0.12630113162E+00  0.34770295525E-01  0.80426921408E-02  0.13285077892E+00  0.20583859266E-01 0.  0.
         14    1    1    2    0    0  0.20397115153E-01  0.76035284638E-02  0.89956645821E-02  0.23553724396E-01  0.00000000000E+00 0. -1.
     999901    1    3    3    0    0  0.10590401647E+00 -0.42373823989E-01 -0.17038356723E-01  0.88752549668E+00  0.88000000000E+00 0.  1.
        -11    1    4    4    0    0 -0.44427677540E-01  0.17631827612E-01  0.11370607292E-01  0.49135035440E-01  0.51100000000E-03 0.  1.
         11    1    4    4    0    0 -0.81873454084E-01  0.17138467914E-01 -0.33279151512E-02  0.83715743480E-01  0.51100000000E-03 0. -1.
</event>
<event>
 8    1  0.1112958E+005  0.1043930E+01  0.7957747E-01            NaN
         13   -1    0    0    0    0  0.00000000000E+00  0.00000000000E+00  0.74505805969E-08  0.10566000000E+00  0.10566000000E+00 0. -1.
     999900   -1    0    0    0    0 -0.00000000000E+00 -0.00000000000E+00 -0.74505805969E-08  0.93827000000E+00  0.93827000000E+00 0. -1.
     999902    2    1    2    0    0  0.26285628862E-02  0.55574852498E-02  0.19318148786E-01  0.10236572139E+01  0.10234564503E+01 0.  0.
     999903    2    3    3    0    0  0.83949160998E-01 -0.48653840558E-01 -0.86884426527E-01  0.13190001904E+00  0.20833953437E-01 0.  0.
         14    1    1    2    0    0 -0.26285628862E-02 -0.55574852498E-02 -0.19318148786E-01  0.20272786135E-01  0.00000000000E+00 0.  1.
     999901    1    3    3    0    0 -0.81320598111E-01  0.54211325808E-01  0.10620257531E+00  0.89175719483E+00  0.88000000000E+00 0.  1.
        -11    1    4    4    0    0  0.82860719441E-01 -0.42881011631E-01 -0.80759336219E-01  0.12339777750E+00  0.51100000000E-03 0.  1.
         11    1    4    4    0    0  0.10884415563E-02 -0.57728289276E-02 -0.61250903083E-02  0.85022415358E-02  0.51100000000E-03 0. -1.
</event>
<event>
 8    1  0.1112958E+005  0.1043930E+01  0.7957747E-01            NaN
         13   -1    0    0    0    0  0.00000000000E+00  0.00000000000E+00  0.74505805969E-08  0.10566000000E+00  0.10566000000E+00 0.  1.
     999900   -1    0    0    0    0 -0.00000000000E+00 -0.00000000000E+00 -0.74505805969E-08  0.93827000000E+00  0.93827000000E+00 0.  1.
     999902    2    1    2    0    0 -0.74515898024E-02  0.17972671296E-01  0.12955097805E-01  0.10205552773E+01  0.10202875557E+01 0.  0.
     999903    2    3    3    0    0  0.39897827684E-01  0.11580009168E+00  0.48415614308E-01  0.13316042729E+00  0.19650185775E-01 0.  0.
         14    1    1    2    0    0  0.74515898024E-02 -0.17972671296E-01 -0.12955097805E-01  0.23374722741E-01  0.00000000000E+00 0. -1.
     999901    1    3    3    0    0 -0.47349417487E-01 -0.97827420385E-01 -0.35460516502E-01  0.88739484997E+00  0.88000000000E+00 0.  1.
        -11    1    4    4    0    0  0.15948680446E-01  0.50090723934E-01  0.31203804752E-01  0.61134111462E-01  0.51100000000E-03 0.  1.
         11    1    4    4    0    0  0.23949147238E-01  0.65709367746E-01  0.17211809555E-01  0.72026315831E-01  0.51100000000E-03 0. -1.
</event>
<event>
 8    1  0.1112958E+005  0.1043930E+01  0.7957747E-01            NaN
         13   -1    0    0    0    0  0.00000000000E+00  0.00000000000E+00  0.74505805969E-08  0.10566000000E+00  0.10566000000E+00 0.  1.
     999900   -1    0    0    0    0 -0.00000000000E+00 -0.00000000000E+00 -0.74505805969E-08  0.93827000000E+00  0.93827000000E+00 0.  1.
     999902    2    1    2    0    0 -0.10390121273E-01  0.20603382034E-01 -0.68960588681E-02  0.10198466116E+01  0.10195622107E+01 0.  0.
     999903    2    3    3    0    0 -0.73274162155E-01  0.76335102636E-01  0.76226365930E-01  0.13194472239E+00  0.20069882120E-01 0.  0.
         14    1    1    2    0    0  0.10390121273E-01 -0.20603382034E-01  0.68960588681E-02  0.24083388450E-01  0.00000000000E+00 0.  1.
     999901    1    3    3    0    0  0.62884040882E-01 -0.55731720603E-01 -0.83122424798E-01  0.88790188917E+00  0.88000000000E+00 0.  1.
        -11    1    4    4    0    0 -0.17018889324E-01  0.13140551023E-01  0.69780590184E-02  0.22611304776E-01  0.51100000000E-03 0.  1.
         11    1    4    4    0    0 -0.56255272831E-01  0.63194551613E-01  0.69248306912E-01  0.10933341761E+00  0.51100000000E-03 0. -1.
</event>
<event>
 8    1  0.1112958E+005  0.1043930E+01  0.7957747E-01            NaN
         13   -1    0    0    0    0  0.00000000000E+00  0.00000000000E+00  0.74505805969E-08  0.10566000000E+00  0.10566000000E+00 0.  1.
     999900   -1    0    0    0    0 -0.00000000000E+00 -0.00000000000E+00 -0.74505805969E-08  0.93827000000E+00  0.93827000000E+00 0.  1.
     999902    2    1    2    0    0  0.15310282130E-01  0.12544186672E-01  0.12450529275E-01  0.10205467360E+01  0.10202788164E+01 0.  0.
     999903    2    3    3    0    0 -0.66582692005E-01  0.50429483199E-01 -0.96549002044E-01  0.12924283002E+00  0.20139803026E-01 0.  0.
         14    1    1    2    0    0 -0.15310282130E-01 -0.12544186672E-01 -0.12450529275E-01  0.23383264044E-01  0.00000000000E+00 0. -1.
     999901    1    3    3    0    0  0.81892974134E-01 -0.37885296528E-01  0.10899953132E+00  0.89130390593E+00  0.88000000000E+00 0. -1.
        -11    1    4    4    0    0 -0.10650860959E-01  0.16879776089E-01 -0.15922941543E-01  0.25537597154E-01  0.51100000000E-03 0.  1.
         11    1    4    4    0    0 -0.55931831046E-01  0.33549707110E-01 -0.80626060501E-01  0.10370523287E+00  0.51100000000E-03 0. -1.
</event>
<event>
 8    1  0.1112958E+005  0.1043930E+01  0.7957747E-01            NaN
         13   -1    0    0    0    0  0.00000000000E+00  0.00000000000E+00  0.74505805969E-08  0.10566000000E+00  0.10566000000E+00 0. -1.
     999900   -1    0    0    0    0 -0.00000000000E+00 -0.00000000000E+00 -0.74505805969E-08  0.93827000000E+00  0.93827000000E+00 0. -1.
     999902    2    1    2    0    0 -0.13964293830E-01  0.19120815407E-01 -0.53644859302E-02  0.10196527515E+01  0.10193636981E+01 0.  0.
     999903    2    3    3    0    0  0.19417273113E-02 -0.11888900360E+00  0.41467079844E-01  0.12752444954E+00  0.20114697105E-01 0.  0.
         14    1    1    2    0    0  0.13964293830E-01 -0.19120815407E-01  0.53644859302E-02  0.24277248470E-01  0.00000000000E+00 0. -1.
     999901    1    3    3    0    0 -0.15906021141E-01  0.13800981900E+00 -0.46831565774E-01  0.89212830199E+00  0.88000000000E+00 0.  1.
        -11    1    4    4    0    0  0.70784714510E-02 -0.39694167594E-01  0.66839836269E-02  0.40873811386E-01  0.51100000000E-03 0.  1.
         11    1    4    4    0    0 -0.51367441397E-02 -0.79194836003E-01  0.34783096217E-01  0.86650638159E-01  0.51100000000E-03 0. -1.
</event>
<event>
 8    1  0.1112958E+005  0.1043930E+01  0.7957747E-01            NaN
         13   -1    0    0    0    0  0.00000000000E+00  0.00000000000E+00  0.74505805969E-08  0.10566000000E+00  0.10566000000E+00 0. -1.
     999900   -1    0    0    0    0 -0.00000000000E+00 -0.00000000000E+00 -0.74505805969E-08  0.93827000000E+00  0.93827000000E+00 0. -1.
     999902    2    1    2    0    0 -0.16705162360E-01  0.14484969684E-01  0.88875034041E-02  0.10201000920E+01  0.10198217164E+01 0.  0.
     999903    2    3    3    0    0  0.50609873755E-01  0.50769911621E-01 -0.10609043964E+00  0.12933197492E+00  0.18238286825E-01 0.  0.
         14    1    1    2    0    0  0.16705162360E-01 -0.14484969684E-01 -0.88875034041E-02  0.23829907952E-01  0.00000000000E+00 0.  1.
     999901    1    3    3    0    0 -0.67315036116E-01 -0.36284941937E-01  0.11497794305E+00  0.89076811712E+00  0.88000000000E+00 0.  1.
        -11    1    4    4    0    0  0.31812237431E-01  0.19246338852E-01 -0.50396557718E-01  0.62629978129E-01  0.51100000000E-03 0.  1.
         11    1    4    4    0    0  0.18797636324E-01  0.31523572768E-01 -0.55693881925E-01  0.66701996795E-01  0.51100000000E-03 0. -1.
</event>
<event>
 8    1  0.1112958E+005  0.1043930E+01  0.7957747E-01            NaN
         13   -1    0    0    0    0  0.00000000000E+00  0.00000000000E+00  0.74505805969E-08  0.10566000000E+00  0.10566000000E+00 0.  1.
     999900   -1    0    0    0    0 -0.00000000000E+00 -0.00000000000E+00 -0.74505805969E-08  0.93827000000E+00  0.93827000000E+00 0. -1.
     999902    2    1    2    0    0  0.17945598455E-01  0.92585929719E-02 -0.10441914573E-01  0.10211967726E+01  0.10209437050E+01 0.  0.
     999903    2    3    3    0    0  0.12537928505E+00 -0.35553225942E-01  0.18958391302E-01  0.13304449168E+00  0.18905532854E-01 0.  0.
         14    1    1    2    0    0 -0.17945598455E-01 -0.92585929719E-02  0.10441914573E-01  0.22733227393E-01  0.00000000000E+00 0.  1.
     999901    1    3    3    0    0 -0.10743368659E+00  0.44811818914E-01 -0.29400305875E-01  0.88815228093E+00  0.88000000000E+00 0. -1.
        -11    1    4    4    0    0  0.75671485583E-01 -0.27524546389E-01  0.44722895550E-02  0.80647609258E-01  0.51100000000E-03 0.  1.
         11    1    4    4    0    0  0.49707799463E-01 -0.80286795535E-02  0.14486101747E-01  0.52396882423E-01  0.51100000000E-03 0. -1.
</event>
<event>
 8    1  0.1112958E+005  0.1043930E+01  0.7957747E-01            NaN
         13   -1    0    0    0    0  0.00000000000E+00  0.00000000000E+00  0.74505805969E-08  0.10566000000E+00  0.10566000000E+00 0. -1.
     999900   -1    0    0    0    0 -0.00000000000E+00 -0.00000000000E+00 -0.74505805969E-08  0.93827000000E+00  0.93827000000E+00 0.  1.
     999902    2    1    2    0    0 -0.28764114795E-02 -0.18184478395E-01 -0.15087457986E-01  0.10201270509E+01  0.10198493122E+01 0.  0.
     999903    2    3    3    0    0  0.99364260436E-01 -0.15354712507E-01  0.78698973965E-01  0.12925272902E+00  0.20092685409E-01 0.  0.
         14    1    1    2    0    0  0.28764114795E-02  0.18184478395E-01  0.15087457986E-01  0.23802949102E-01  0.00000000000E+00 0. -1.
     999901    1    3    3    0    0 -0.10224067192E+00 -0.28297658879E-02 -0.93786431951E-01  0.89087432188E+00  0.88000000000E+00 0.  1.
        -11    1    4    4    0    0  0.25834928213E-01 -0.12272899891E-01  0.17486782923E-01  0.33527843437E-01  0.51100000000E-03 0.  1.
         11    1    4    4    0    0  0.73529332223E-01 -0.30818126158E-02  0.61212191043E-01  0.95724885580E-01  0.51100000000E-03 0. -1.
</event>
<event>
 8    1  0.1112958E+005  0.1043930E+01  0.7957747E-01            NaN
         13   -1    0    0    0    0  0.00000000000E+00  0.00000000000E+00  0.74505805969E-08  0.10566000000E+00  0.10566000000E+00 0.  1.
     999900   -1    0    0    0    0 -0.00000000000E+00 -0.00000000000E+00 -0.74505805969E-08  0.93827000000E+00  0.93827000000E+00 0. -1.
     999902    2    1    2    0    0  0.15352261879E-02  0.19450166834E-01  0.11827024237E-01  0.10211145576E+01  0.10208596355E+01 0.  0.
     999903    2    3    3    0    0  0.18846019480E-01  0.49373387826E-01 -0.11813739076E+00  0.13089783574E+00  0.19618777479E-01 0.  0.
         14    1    1    2    0    0 -0.15352261879E-02 -0.19450166834E-01 -0.11827024237E-01  0.22815442394E-01  0.00000000000E+00 0. -1.
     999901    1    3    3    0    0 -0.17310793292E-01 -0.29923220992E-01  0.12996441500E+00  0.89021672186E+00  0.88000000000E+00 0.  1.
        -11    1    4    4    0    0  0.18594385016E-01  0.30047898358E-01 -0.60046156427E-01  0.69673735170E-01  0.51100000000E-03 0.  1.
         11    1    4    4    0    0  0.25163446436E-03  0.19325489467E-01 -0.58091234338E-01  0.61224100573E-01  0.51100000000E-03 0. -1.
</event>
<event>
 8    1  0.1112958E+005  0.1043930E+01  0.7957747E-01            NaN
         13   -1    0    0    0    0  0.00000000000E+00  0.00000000000E+00  0.74505805969E-08  0.10566000000E+00  0.10566000000E+00 0.  1.
     999900   -1    0    0    0    0 -0.00000000000E+00 -0.00000000000E+00 -0.74505805969E-08  0.93827000000E+00  0.93827000000E+00 0. -1.
     999902    2    1    2    0    0  0.12737524818E-01  0.10005031075E-01 -0.17624856426E-01  0.10199929837E+01  0.10197120702E+01 0.  0.
     999903    2    3    3    0    0  0.44979809656E-01 -0.39419711317E-02 -0.12349012112E+00  0.13295209509E+00  0.19690788728E-01 0.  0.
         14    1    1    2    0    0 -0.12737524818E-01 -0.10005031075E-01  0.17624856426E-01  0.23937016300E-01  0.00000000000E+00 0. -1.
     999901    1    3    3    0    0 -0.32242284838E-01  0.13947002207E-01  0.10586526469E+00  0.88704088861E+00  0.88000000000E+00 0.  1.
        -11    1    4    4    0    0  0.98412332869E-02  0.67621195670E-02 -0.39761470897E-01  0.41518812874E-01  0.51100000000E-03 0.  1.
         11    1    4    4    0    0  0.35138576369E-01 -0.10704090699E-01 -0.83728650224E-01  0.91433282213E-01  0.51100000000E-03 0. -1.
</event>
<event>
 8    1  0.1112958E+005  0.1043930E+01  0.7957747E-01            NaN
         13   -1    0    0    0    0  0.00000000000E+00  0.00000000000E+00  0.74505805969E-08  0.10566000000E+00  0.10566000000E+00 0. -1.
     999900   -1    0    0    0    0 -0.00000000000E+00 -0.00000000000E+00 -0.74505805969E-08  0.93827000000E+00  0.93827000000E+00 0.  1.
     999902    2    1    2    0    0  0.64361811668E-04 -0.22106083215E-01 -0.68363062841E-02  0.10207908958E+01  0.10205286056E+01 0.  0.
     999903    2    3    3    0    0  0.49973287171E-01  0.79917024147E-01 -0.87237871076E-01  0.12985653974E+00  0.19188918252E-01 0.  0.
         14    1    1    2    0    0 -0.64361811668E-04  0.22106083215E-01  0.68363062841E-02  0.23139104157E-01  0.00000000000E+00 0.  1.
     999901    1    3    3    0    0 -0.49908925359E-01 -0.10202310736E+00  0.80401564792E-01  0.89093435610E+00  0.88000000000E+00 0. -1.
        -11    1    4    4    0    0  0.21573683153E-01  0.18667506570E-01 -0.22765679210E-01  0.36502559872E-01  0.51100000000E-03 0.  1.
         11    1    4    4    0    0  0.28399604018E-01  0.61249517577E-01 -0.64472191866E-01  0.93353979866E-01  0.51100000000E-03 0. -1.
</event>
<event>
 8    1  0.1112958E+005  0.1043930E+01  0.7957747E-01            NaN
         13   -1    0    0    0    0  0.00000000000E+00  0.00000000000E+00  0.74505805969E-08  0.10566000000E+00  0.10566000000E+00 0.  1.
     999900   -1    0    0    0    0 -0.00000000000E+00 -0.00000000000E+00 -0.74505805969E-08  0.93827000000E+00  0.93827000000E+00 0.  1.
     999902    2    1    2    0    0 -0.96666165096E-02  0.37597252479E-02  0.17681193639E-01  0.10234311313E+01  0.10232258191E+01 0.  0.
     999903    2    3    3    0    0 -0.97496034732E-01  0.81527700937E-01  0.42055265447E-01  0.13531179242E+00  0.19707689056E-01 0.  0.
         14    1    1    2    0    0  0.96666165096E-02 -0.37597252479E-02 -0.17681193639E-01  0.20498868681E-01  0.00000000000E+00 0. -1.
     999901    1    3    3    0    0  0.87829418222E-01 -0.77767975689E-01 -0.24374071807E-01  0.88811933890E+00  0.88000000000E+00 0.  1.
        -11    1    4    4    0    0 -0.14755803198E-01  0.10451903788E-01  0.13460329474E-01  0.22548117690E-01  0.51100000000E-03 0. -1.
         11    1    4    4    0    0 -0.82740231534E-01  0.71075797149E-01  0.28594935973E-01  0.11276367473E+00  0.51100000000E-03 0.  1.
</event>
<event>
 8    1  0.1112958E+005  0.1043930E+01  0.7957747E-01            NaN
         13   -1    0    0    0    0  0.00000000000E+00  0.00000000000E+00  0.74505805969E-08  0.10566000000E+00  0.10566000000E+00 0. -1.
     999900   -1    0    0    0    0 -0.00000000000E+00 -0.00000000000E+00 -0.74505805969E-08  0.93827000000E+00  0.93827000000E+00 0.  1.
     999902    2    1    2    0    0 -0.22604928122E-01  0.13781811943E-02  0.13071330130E-03  0.10212827210E+01  0.10210315847E+01 0.  0.
     999903    2    3    3    0    0 -0.12132143929E+00 -0.52239639428E-01 -0.11277964162E-01  0.13406799043E+00  0.19979039604E-01 0.  0.
         14    1    1    2    0    0  0.22604928122E-01 -0.13781811943E-02 -0.13071330130E-03  0.22647278971E-01  0.00000000000E+00 0.  1.
     999901    1    3    3    0    0  0.98716511170E-01  0.53617820623E-01  0.11408677463E-01  0.88721473060E+00  0.88000000000E+00 0.  1.
        -11    1    4    4    0    0 -0.17082681320E-01 -0.29056074593E-03 -0.45776801549E-03  0.17098920995E-01  0.51100000000E-03 0. -1.
         11    1    4    4    0    0 -0.10423875797E+00 -0.51949078683E-01 -0.10820196146E-01  0.11696906944E+00  0.51100000000E-03 0.  1.
</event>
<event>
 8    1  0.1112958E+005  0.1043930E+01  0.7957747E-01            NaN
         13   -1    0    0    0    0  0.00000000000E+00  0.00000000000E+00  0.74505805969E-08  0.10566000000E+00  0.10566000000E+00 0.  1.
     999900   -1    0    0    0    0 -0.00000000000E+00 -0.00000000000E+00 -0.74505805969E-08  0.93827000000E+00  0.93827000000E+00 0. -1.
     999902    2    1    2    0    0  0.15678478379E-01  0.14938388730E-01  0.41600928665E-02  0.10218783217E+01  0.10216403613E+01 0.  0.
     999903    2    3    3    0    0  0.88220990710E-02  0.13030563489E+00 -0.23253344802E-01  0.13389853142E+00  0.18185454512E-01 0.  0.
         14    1    1    2    0    0 -0.15678478379E-01 -0.14938388730E-01 -0.41600928665E-02  0.22051678276E-01  0.00000000000E+00 0. -1.
     999901    1    3    3    0    0  0.68563793082E-02 -0.11536724616E+00  0.27413437668E-01  0.88797979030E+00  0.88000000000E+00 0. -1.
        -11    1    4    4    0    0  0.12000225199E-02  0.11047959638E+00 -0.17301143944E-01  0.11183367996E+00  0.51100000000E-03 0. -1.
         11    1    4    4    0    0  0.76220765510E-02  0.19826038511E-01 -0.59522008579E-02  0.22064851462E-01  0.51100000000E-03 0.  1.
</event>
<event>
 8    1  0.1112958E+005  0.1043930E+01  0.7957747E-01            NaN
         13   -1    0    0    0    0  0.00000000000E+00  0.00000000000E+00  0.74505805969E-08  0.10566000000E+00  0.10566000000E+00 0. -1.
     999900   -1    0    0    0    0 -0.00000000000E+00 -0.00000000000E+00 -0.74505805969E-08  0.93827000000E+00  0.93827000000E+00 0.  1.
     999902    2    1    2    0    0 -0.18329986927E-01 -0.14967854021E-01 -0.47926287297E-02  0.10197847238E+01  0.10194988418E+01 0.  0.
     999903    2    3    3    0    0 -0.77022400487E-01 -0.54805939734E-01 -0.90642022028E-01  0.13276612710E+00  0.21788234008E-01 0.  0.
         14    1    1    2    0    0  0.18329986927E-01  0.14967854021E-01  0.47926287297E-02  0.24145276243E-01  0.00000000000E+00 0. -1.
     999901    1    3    3    0    0  0.58692413560E-01  0.39838085713E-01  0.85849393299E-01  0.88701859666E+00  0.88000000000E+00 0. -1.
        -11    1    4    4    0    0 -0.62694485779E-01 -0.33225208346E-01 -0.63127623683E-01  0.94973001477E-01  0.51100000000E-03 0. -1.
         11    1    4    4    0    0 -0.14327914708E-01 -0.21580731388E-01 -0.27514398346E-01  0.37793125624E-01  0.51100000000E-03 0.  1.
</event>
<event>
 7    1  0.1112958E+005  0.1043930E+01  0.7957747E-01            NaN
         13   -1    0    0    0    0  0.00000000000E+00  0.00000000000E+00  0.74505805969E-08  0.10566000000E+00  0.10566000000E+00 0. -1.
     999900   -1    0    0    0    0 -0.00000000000E+00 -0.00000000000E+00 -0.74505805969E-08  0.93827000000E+00  0.93827000000E+00 0. -1.
     999903    2    1    2    0    0  0.96391895186E-01 -0.46731163221E-01 -0.21541642596E-01  0.11132944894E+00  0.21330840644E-01 0.  0.
         14    1    1    2    0    0 -0.39775022733E-01  0.28904639988E-01  0.11721719118E-01  0.50546308919E-01  0.00000000000E+00 0. -1.
     999901    1    1    2    0    0 -0.56616872453E-01  0.17826523232E-01  0.98199234779E-02  0.88205424214E+00  0.88000000000E+00 0.  1.
        -11    1    3    3    0    0  0.34231462945E-01 -0.62212118433E-02 -0.35098775508E-02  0.34972516260E-01  0.51100000000E-03 0. -1.
         11    1    3    3    0    0  0.62160432241E-01 -0.40509951377E-01 -0.18031765045E-01  0.76356932682E-01  0.51100000000E-03 0.  1.
</event>
<event>
 8    1  0.1112958E+005  0.1043930E+01  0.7957747E-01            NaN
         13   -1    0    0    0    0  0.00000000000E+00  0.00000000000E+00  0.74505805969E-08  0.10566000000E+00  0.10566000000E+00 0.  1.
     999900   -1    0    0    0    0 -0.00000000000E+00 -0.00000000000E+00 -0.74505805969E-08  0.93827000000E+00  0.93827000000E+00 0. -1.
     999902    2    1    2    0    0  0.23593487702E-01  0.35440955730E-02  0.18436528836E-02  0.10200006805E+01  0.10197199497E+01 0.  0.
     999903    2    3    3    0    0  0.69076954884E-01 -0.10167878599E+00 -0.42297699110E-01  0.13146871173E+00  0.19614423156E-01 0.  0.
         14    1    1    2    0    0 -0.23593487702E-01 -0.35440955730E-02 -0.18436528836E-02  0.23929319491E-01  0.00000000000E+00 0. -1.
     999901    1    3    3    0    0 -0.45483467183E-01  0.10522288157E+00  0.44141351994E-01  0.88853196878E+00  0.88000000000E+00 0. -1.
        -11    1    4    4    0    0  0.52215173347E-01 -0.74800894510E-01 -0.40131979353E-01  0.99661602611E-01  0.51100000000E-03 0. -1.
         11    1    4    4    0    0  0.16861781537E-01 -0.26877891484E-01 -0.21657197569E-02  0.31807109116E-01  0.51100000000E-03 0.  1.
</event>
<event>
 8    1  0.1112958E+005  0.1043930E+01  0.7957747E-01            NaN
         13   -1    0    0    0    0  0.00000000000E+00  0.00000000000E+00  0.74505805969E-08  0.10566000000E+00  0.10566000000E+00 0.  1.
     999900   -1    0    0    0    0 -0.00000000000E+00 -0.00000000000E+00 -0.74505805969E-08  0.93827000000E+00  0.93827000000E+00 0. -1.
     999902    2    1    2    0    0  0.14552588265E-01 -0.17506101208E-01  0.66902782173E-02  0.10202023531E+01  0.10199263895E+01 0.  0.
     999903    2    3    3    0    0 -0.29589427070E-02 -0.53397482626E-01  0.11910548311E+00  0.13215279183E+00  0.20449884812E-01 0.  0.
         14    1    1    2    0    0 -0.14552588265E-01  0.17506101208E-01 -0.66902782173E-02  0.23727646899E-01  0.00000000000E+00 0. -1.
     999901    1    3    3    0    0  0.17511530972E-01  0.35891381417E-01 -0.11241520490E+00  0.88804956127E+00  0.88000000000E+00 0. -1.
        -11    1    4    4    0    0 -0.11051276670E-01 -0.29438213311E-01  0.74674458130E-01  0.81026384202E-01  0.51100000000E-03 0.  1.
         11    1    4    4    0    0  0.80923339634E-02 -0.23959269315E-01  0.44431024984E-01  0.51126407631E-01  0.51100000000E-03 0. -1.
</event>
<event>
 8    1  0.1112958E+005  0.1043930E+01  0.7957747E-01            NaN
         13   -1    0    0    0    0  0.00000000000E+00  0.00000000000E+00  0.74505805969E-08  0.10566000000E+00  0.10566000000E+00 0.  1.
     999900   -1    0    0    0    0 -0.00000000000E+00 -0.00000000000E+00 -0.74505805969E-08  0.93827000000E+00  0.93827000000E+00 0.  1.
     999902    2    1    2    0    0  0.26208676368E-02  0.22010845596E-01  0.72344818495E-02  0.10206129676E+01  0.10203465812E+01 0.  0.
     999903    2    3    3    0    0 -0.94200671536E-01  0.39340773097E-01 -0.79411078642E-01  0.13090391969E+00  0.20205292191E-01 0.  0.
         14    1    1    2    0    0 -0.26208676368E-02 -0.22010845596E-01 -0.72344818495E-02  0.23317032372E-01  0.00000000000E+00 0. -1.
     999901    1    3    3    0    0  0.96821539173E-01 -0.17329927502E-01  0.86645560492E-01  0.88970904794E+00  0.88000000000E+00 0. -1.
        -11    1    4    4    0    0 -0.18692965811E-01  0.52850828331E-04 -0.10954083861E-01  0.21672167364E-01  0.51100000000E-03 0.  1.
         11    1    4    4    0    0 -0.75507705726E-01  0.39287922269E-01 -0.68456994781E-01  0.10923175232E+00  0.51100000000E-03 0. -1.
</event>
<event>
 8    1  0.1112958E+005  0.1043930E+01  0.7957747E-01            NaN
         13   -1    0    0    0    0  0.00000000000E+00  0.00000000000E+00  0.74505805969E-08  0.10566000000E+00  0.10566000000E+00 0. -1.
     999900   -1    0    0    0    0 -0.00000000000E+00 -0.00000000000E+00 -0.74505805969E-08  0.93827000000E+00  0.93827000000E+00 0. -1.
     999902    2    1    2    0    0 -0.21690604783E-02  0.64293235048E-02 -0.22494177303E-01  0.10204347018E+01  0.10201641788E+01 0.  0.
     999903    2    3    3    0    0  0.24435178785E-01  0.78087861852E-01  0.97608033824E-01  0.12899358050E+00  0.20426047381E-01 0.  0.
         14    1    1    2    0    0  0.21690604783E-02 -0.64293235048E-02  0.22494177303E-01  0.23495298181E-01  0.00000000000E+00 0. -1.
     999901    1    3    3    0    0 -0.26604239263E-01 -0.71658538347E-01 -0.12010221113E+00  0.89144112132E+00  0.88000000000E+00 0. -1.
        -11    1    4    4    0    0  0.21650785152E-01  0.46847252601E-01  0.49158830374E-01  0.71276035935E-01  0.51100000000E-03 0.  1.
         11    1    4    4    0    0  0.27843936333E-02  0.31240609251E-01  0.48449203451E-01  0.57717544562E-01  0.51100000000E-03 0. -1.
</event>
<event>
 8    1  0.1112958E+005  0.1043930E+01  0.7957747E-01            NaN
         13   -1    0    0    0    0  0.00000000000E+00  0.00000000000E+00  0.74505805969E-08  0.10566000000E+00  0.10566000000E+00 0. -1.
     999900   -1    0    0    0    0 -0.00000000000E+00 -0.00000000000E+00 -0.74505805969E-08  0.93827000000E+00  0.93827000000E+00 0. -1.
     999902    2    1    2    0    0 -0.24349499139E-01 -0.19547925275E-01 -0.25438735116E-02  0.10126012467E+01  0.10121164923E+01 0.  0.
     999903    2    3    3    0    0  0.42026581476E-01  0.10345722030E+00 -0.41695757598E-01  0.12071060321E+00  0.19049502425E-01 0.  0.
         14    1    1    2    0    0  0.24349499139E-01  0.19547925275E-01  0.25438735116E-02  0.31328753300E-01  0.00000000000E+00 0.  1.
     999901    1    3    3    0    0 -0.66376080616E-01 -0.12300514558E+00  0.39151884086E-01  0.89189064349E+00  0.88000000000E+00 0.  1.
        -11    1    4    4    0    0  0.25638880184E-01  0.40725301053E-01 -0.13331854835E-01  0.49938980739E-01  0.51100000000E-03 0.  1.
         11    1    4    4    0    0  0.16387701293E-01  0.62731919249E-01 -0.28363902763E-01  0.70771622472E-01  0.51100000000E-03 0. -1.
</event>
<event>
 8    1  0.1112958E+005  0.1043930E+01  0.7957747E-01            NaN
         13   -1    0    0    0    0  0.00000000000E+00  0.00000000000E+00  0.74505805969E-08  0.10566000000E+00  0.10566000000E+00 0. -1.
     999900   -1    0    0    0    0 -0.00000000000E+00 -0.00000000000E+00 -0.74505805969E-08  0.93827000000E+00  0.93827000000E+00 0. -1.
     999902    2    1    2    0    0 -0.13342856732E-01  0.42128698178E-03  0.21013025605E-01  0.10190350898E+01  0.10187309545E+01 0.  0.
     999903    2    3    3    0    0 -0.12134433949E+00 -0.64851016747E-02  0.47445005664E-01  0.13201160193E+00  0.20236828067E-01 0.  0.
         14    1    1    2    0    0  0.13342856732E-01 -0.42128698178E-03 -0.21013025605E-01  0.24894910194E-01  0.00000000000E+00 0.  1.
     999901    1    3    3    0    0  0.10800148276E+00  0.69063886565E-02 -0.26431980059E-01  0.88702348788E+00  0.88000000000E+00 0.  1.
        -11    1    4    4    0    0 -0.53337071063E-01 -0.94958432157E-02  0.12992715923E-01  0.55714324693E-01  0.51100000000E-03 0.  1.
         11    1    4    4    0    0 -0.68007268428E-01  0.30107415410E-02  0.34452289741E-01  0.76297277232E-01  0.51100000000E-03 0. -1.
</event>
<event>
 8    1  0.1112958E+005  0.1043930E+01  0.7957747E-01            NaN
         13   -1    0    0    0    0  0.00000000000E+00  0.00000000000E+00  0.74505805969E-08  0.10566000000E+00  0.10566000000E+00 0.  1.
     999900   -1    0    0    0    0 -0.00000000000E+00 -0.00000000000E+00 -0.74505805969E-08  0.93827000000E+00  0.93827000000E+00 0.  1.
     999902    2    1    2    0    0  0.25095261204E-02  0.57377156293E-02  0.26352752649E-01  0.10168433488E+01  0.10164825179E+01 0.  0.
     999903    2    3    3    0    0 -0.23745002766E-01  0.10439259029E+00 -0.63666536215E-01  0.12637967353E+00  0.21371850233E-01 0.  0.
         14    1    1    2    0    0 -0.25095261204E-02 -0.57377156293E-02 -0.26352752649E-01  0.27086651218E-01  0.00000000000E+00 0. -1.
     999901    1    3    3    0    0  0.26254528886E-01 -0.98654874665E-01  0.90019288864E-01  0.89046367526E+00  0.88000000000E+00 0.  1.
        -11    1    4    4    0    0 -0.14372084888E-01  0.54187451712E-01 -0.21135627556E-01  0.59915045024E-01  0.51100000000E-03 0. -1.
         11    1    4    4    0    0 -0.93729178779E-02  0.50205138583E-01 -0.42530908659E-01  0.66464628503E-01  0.51100000000E-03 0.  1.
</event>
<event>
 8    1  0.1112958E+005  0.1043930E+01  0.7957747E-01            NaN
         13   -1    0    0    0    0  0.00000000000E+00  0.00000000000E+00  0.74505805969E-08  0.10566000000E+00  0.10566000000E+00 0. -1.
     999900   -1    0    0    0    0 -0.00000000000E+00 -0.00000000000E+00 -0.74505805969E-08  0.93827000000E+00  0.93827000000E+00 0. -1.
     999902    2    1    2    0    0 -0.54923582351E-02  0.11431345444E-02 -0.22704300431E-01  0.10205428665E+01  0.10202748573E+01 0.  0.
     999903    2    3    3    0    0 -0.57407053091E-01  0.11614803691E+00 -0.83167728970E-02  0.13142630267E+00  0.20439376228E-01 0.  0.
         14    1    1    2    0    0  0.54923582351E-02 -0.11431345444E-02  0.22704300431E-01  0.23387133506E-01  0.00000000000E+00 0. -1.
     999901    1    3    3    0    0  0.51914694856E-01 -0.11500490237E+00 -0.14387527534E-01  0.88911656382E+00  0.88000000000E+00 0.  1.
        -11    1    4    4    0    0 -0.41847694176E-01  0.66122571614E-01 -0.10690015251E-01  0.78980766847E-01  0.51100000000E-03 0. -1.
         11    1    4    4    0    0 -0.15559358915E-01  0.50025465296E-01  0.23732423542E-02  0.52445535827E-01  0.51100000000E-03 0.  1.
</event>
<event>
 8    1  0.1112958E+005  0.1043930E+01  0.7957747E-01            NaN
         13   -1    0    0    0    0  0.00000000000E+00  0.00000000000E+00  0.74505805969E-08  0.10566000000E+00  0.10566000000E+00 0. -1.
     999900   -1    0    0    0    0 -0.00000000000E+00 -0.00000000000E+00 -0.74505805969E-08  0.93827000000E+00  0.93827000000E+00 0. -1.
     999902    2    1    2    0    0  0.82852150227E-02  0.10795407664E-01 -0.27283469502E-01  0.10134410951E+01  0.10129823690E+01 0.  0.
     999903    2    3    3    0    0 -0.58363552755E-01 -0.39750837192E-01  0.96191755833E-01  0.12089243401E+00  0.19382811040E-01 0.  0.
         14    1    1    2    0    0 -0.82852150227E-02 -0.10795407664E-01  0.27283469502E-01  0.30488904912E-01  0.00000000000E+00 0. -1.
     999901    1    3    3    0    0  0.66648767778E-01  0.50546244857E-01 -0.12347522534E+00  0.89254866108E+00  0.88000000000E+00 0. -1.
        -11    1    4    4    0    0 -0.37654830966E-01 -0.14702666531E-01  0.47883838110E-01  0.62667198528E-01  0.51100000000E-03 0. -1.
         11    1    4    4    0    0 -0.20708721789E-01 -0.25048170661E-01  0.48307917723E-01  0.58225235485E-01  0.51100000000E-03 0.  1.
</event>
<event>
 8    1  0.1112958E+005  0.1043930E+01  0.7957747E-01            NaN
         13   -1    0    0    0    0  0.00000000000E+00  0.00000000000E+00  0.74505805969E-08  0.10566000000E+00  0.10566000000E+00 0. -1.
     999900   -1    0    0    0    0 -0.00000000000E+00 -0.00000000000E+00 -0.74505805969E-08  0.93827000000E+00  0.93827000000E+00 0.  1.
     999902    2    1    2    0    0  0.10261072570E-02 -0.23940685243E-01  0.19310936326E-02  0.10198896500E+01  0.10196062768E+01 0.  0.
     999903    2    3    3    0    0 -0.46197864126E-01  0.63896945616E-01 -0.99439546453E-01  0.12847416912E+00  0.20008158908E-01 0.  0.
         14    1    1    2    0    0 -0.10261072570E-02  0.23940685243E-01 -0.19310936326E-02  0.24040350010E-01  0.00000000000E+00 0. -1.
     999901    1    3    3    0    0  0.47223971383E-01 -0.87837630858E-01  0.10137064009E+00  0.89141548087E+00  0.88000000000E+00 0. -1.
        -11    1    4    4    0    0 -0.22639827219E-01  0.45491166268E-01 -0.54686152823E-01  0.74651486365E-01  0.51100000000E-03 0. -1.
         11    1    4    4    0    0 -0.23558036907E-01  0.18405779348E-01 -0.44753393630E-01  0.53822682752E-01  0.51100000000E-03 0.  1.
</event>
<event>
 8    1  0.1112958E+005  0.1043930E+01  0.7957747E-01            NaN
         13   -1    0    0    0    0  0.00000000000E+00  0.00000000000E+00  0.74505805969E-08  0.10566000000E+00  0.10566000000E+00 0. -1.
     999900   -1    0    0    0    0 -0.00000000000E+00 -0.00000000000E+00 -0.74505805969E-08  0.93827000000E+00  0.93827000000E+00 0. -1.
     999902    2    1    2    0    0  0.86571676367E-02  0.23280808666E-01 -0.12420742803E-02  0.10190606343E+01  0.10187571305E+01 0.  0.
     999903    2    3    3    0    0 -0.75074902966E-01 -0.69599628231E-02  0.10224058810E+00  0.12853594324E+00  0.19587463125E-01 0.  0.
         14    1    1    2    0    0 -0.86571676367E-02 -0.23280808666E-01  0.12420742803E-02  0.24869365737E-01  0.00000000000E+00 0. -1.
     999901    1    3    3    0    0  0.83732070602E-01  0.30240771489E-01 -0.10348266238E+00  0.89052469102E+00  0.88000000000E+00 0. -1.
        -11    1    4    4    0    0 -0.19342845031E-01 -0.43241872018E-02  0.41884771036E-01  0.46340472749E-01  0.51100000000E-03 0.  1.
         11    1    4    4    0    0 -0.55732057934E-01 -0.26357756213E-02  0.60355817064E-01  0.82195470491E-01  0.51100000000E-03 0. -1.
</event>
<event>
 8    1  0.1112958E+005  0.1043930E+01  0.7957747E-01            NaN
         13   -1    0    0    0    0  0.00000000000E+00  0.00000000000E+00  0.74505805969E-08  0.10566000000E+00  0.10566000000E+00 0. -1.
     999900   -1    0    0    0    0 -0.00000000000E+00 -0.00000000000E+00 -0.74505805969E-08  0.93827000000E+00  0.93827000000E+00 0.  1.
     999902    2    1    2    0    0 -0.22695064302E-01 -0.50318172789E-03  0.44938722726E-02  0.10207888241E+01  0.10205264863E+01 0.  0.
     999903    2    3    3    0    0 -0.25421320276E-01  0.36000450485E-01  0.12293225346E+00  0.13210012842E+00  0.19895452433E-01 0.  0.
         14    1    1    2    0    0  0.22695064302E-01  0.50318172789E-03 -0.44938722726E-02  0.23141175932E-01  0.00000000000E+00 0. -1.
     999901    1    3    3    0    0  0.27262559741E-02 -0.36503632213E-01 -0.11843838119E+00  0.88868869565E+00  0.88000000000E+00 0.  1.
        -11    1    4    4    0    0 -0.70751077180E-02  0.52169195773E-02  0.50771256538E-01  0.51529166600E-01  0.51100000000E-03 0. -1.
         11    1    4    4    0    0 -0.18346212558E-01  0.30783530907E-01  0.72160996924E-01  0.80570961819E-01  0.51100000000E-03 0.  1.
</event>
<event>
 8    1  0.1112958E+005  0.1043930E+01  0.7957747E-01            NaN
         13   -1    0    0    0    0  0.00000000000E+00  0.00000000000E+00  0.74505805969E-08  0.10566000000E+00  0.10566000000E+00 0. -1.
     999900   -1    0    0    0    0 -0.00000000000E+00 -0.00000000000E+00 -0.74505805969E-08  0.93827000000E+00  0.93827000000E+00 0. -1.
     999902    2    1    2    0    0 -0.15636078338E-01  0.29555979248E-01 -0.65635843474E-02  0.10098547378E+01  0.10092796778E+01 0.  0.
     999903    2    3    3    0    0 -0.13720636323E-01 -0.11393686939E+00 -0.19869237459E-01  0.11813117809E+00  0.19756582953E-01 0.  0.
         14    1    1    2    0    0  0.15636078338E-01 -0.29555979248E-01  0.65635843474E-02  0.34075262209E-01  0.00000000000E+00 0.  1.
     999901    1    3    3    0    0 -0.19154420151E-02  0.14349284864E+00  0.13305653111E-01  0.89172355971E+00  0.88000000000E+00 0. -1.
        -11    1    4    4    0    0 -0.18746356047E-01 -0.95774161738E-01 -0.16973422574E-01  0.99057933133E-01  0.51100000000E-03 0.  1.
         11    1    4    4    0    0  0.50257197236E-02 -0.18162707657E-01 -0.28958148850E-02  0.19073244952E-01  0.51100000000E-03 0. -1.
</event>
<event>
 8    1  0.1112958E+005  0.1043930E+01  0.7957747E-01            NaN
         13   -1    0    0    0    0  0.00000000000E+00  0.00000000000E+00  0.74505805969E-08  0.10566000000E+00  0.10566000000E+00 0.  1.
     999900   -1    0    0    0    0 -0.00000000000E+00 -0.00000000000E+00 -0.74505805969E-08  0.93827000000E+00  0.93827000000E+00 0. -1.
     999902    2    1    2    0    0  0.20978363399E-02  0.88810654258E-02  0.21526323039E-01  0.10205493066E+01  0.10202814466E+01 0.  0.
     999903    2    3    3    0    0  0.38103190221E-02 -0.12821191424E+00  0.66015888602E-02  0.12980794943E+00  0.18807160248E-01 0.  0.
         14    1    1    2    0    0 -0.20978363399E-02 -0.88810654258E-02 -0.21526323039E-01  0.23380693402E-01  0.00000000000E+00 0. -1.
     999901    1    3    3    0    0 -0.17124826822E-02  0.13709297967E+00  0.14924734178E-01  0.89074135716E+00  0.88000000000E+00 0.  1.
        -11    1    4    4    0    0  0.11049219026E-01 -0.92415195475E-01  0.32840423609E-02  0.93132699151E-01  0.51100000000E-03 0.  1.
         11    1    4    4    0    0 -0.72389000034E-02 -0.35796718765E-01  0.33175464993E-02  0.36675250284E-01  0.51100000000E-03 0. -1.
</event>
<event>
 8    1  0.1112958E+005  0.1043930E+01  0.7957747E-01            NaN
         13   -1    0    0    0    0  0.00000000000E+00  0.00000000000E+00  0.74505805969E-08  0.10566000000E+00  0.10566000000E+00 0. -1.
     999900   -1    0    0    0    0 -0.00000000000E+00 -0.00000000000E+00 -0.74505805969E-08  0.93827000000E+00  0.93827000000E+00 0.  1.
     999902    2    1    2    0    0  0.12932555970E-01 -0.64869017557E-02 -0.18700657636E-01  0.10202858571E+01  0.10200118552E+01 0.  0.
     999903    2    3    3    0    0  0.18055121900E-01  0.74666903627E-01  0.10106451896E+00  0.12845858774E+00  0.19658022483E-01 0.  0.
         14    1    1    2    0    0 -0.12932555970E-01  0.64869017557E-02  0.18700657636E-01  0.23644142918E-01  0.00000000000E+00 0.  1.
     999901    1    3    3    0    0 -0.51225659298E-02 -0.81153805382E-01 -0.11976517660E+00  0.89182726934E+00  0.88000000000E+00 0.  1.
        -11    1    4    4    0    0  0.68131108289E-02  0.64101008261E-02  0.69998574792E-02  0.11694742301E-01  0.51100000000E-03 0.  1.
         11    1    4    4    0    0  0.11242011071E-01  0.68256802801E-01  0.94064661483E-01  0.11676384544E+00  0.51100000000E-03 0. -1.
</event>
<event>
 7    1  0.1112958E+005  0.1043930E+01  0.7957747E-01            NaN
         13   -1    0    0    0    0  0.00000000000E+00  0.00000000000E+00  0.74505805969E-08  0.10566000000E+00  0.10566000000E+00 0. -1.
     999900   -1    0    0    0    0 -0.00000000000E+00 -0.00000000000E+00 -0.74505805969E-08  0.93827000000E+00  0.93827000000E+00 0. -1.
     999902    2    1    2    0    0  0.61243320231E-02  0.19158798821E-01 -0.13622501465E-01  0.10196372117E+01  0.10193477836E+01 0.  0.
         14    1    1    2    0    0 -0.61243320231E-02 -0.19158798821E-01  0.13622501465E-01  0.24292788254E-01  0.00000000000E+00 0.  1.
     999901    1    3    3    0    0  0.69578390176E-01 -0.29682493030E-01  0.85442783464E-01  0.88736839701E+00  0.88000000000E+00 0.  1.
        -11    1    3    3    0    0 -0.19599013715E-01 -0.13645509927E-02 -0.13698293439E-01  0.23955953376E-01  0.51100000000E-03 0. -1.
         11    1    3    3    0    0 -0.43855044438E-01  0.50205842844E-01 -0.85366991489E-01  0.10831286136E+00  0.51100000000E-03 0.  1.
</event>
<event>
 8    1  0.1112958E+005  0.1043930E+01  0.7957747E-01            NaN
         13   -1    0    0    0    0  0.00000000000E+00  0.00000000000E+00  0.74505805969E-08  0.10566000000E+00  0.10566000000E+00 0. -1.
     999900   -1    0    0    0    0 -0.00000000000E+00 -0.00000000000E+00 -0.74505805969E-08  0.93827000000E+00  0.93827000000E+00 0.  1.
     999902    2    1    2    0    0 -0.21301371018E-03  0.12500642185E-01 -0.20123195742E-01  0.10202391909E+01  0.10199640936E+01 0.  0.
     999903    2    3    3    0    0  0.34696540228E-01  0.81997646067E-01  0.92250872055E-01  0.12969079713E+00  0.19545219361E-01 0.  0.
         14    1    1    2    0    0  0.21301371018E-03 -0.12500642185E-01  0.20123195742E-01  0.23690809120E-01  0.00000000000E+00 0.  1.
     999901    1    3    3    0    0 -0.34909553938E-01 -0.69497003882E-01 -0.11237406780E+00  0.89054839375E+00  0.88000000000E+00 0.  1.
        -11    1    4    4    0    0  0.31572288263E-02  0.31089553379E-01  0.30548330639E-01  0.43703432920E-01  0.51100000000E-03 0. -1.
         11    1    4    4    0    0  0.31539311402E-01  0.50908092688E-01  0.61702541416E-01  0.85987364206E-01  0.51100000000E-03 0.  1.
</event>
<event>
 8    1  0.1112958E+005  0.1043930E+01  0.7957747E-01            NaN
         13   -1    0    0    0    0  0.00000000000E+00  0.00000000000E+00  0.74505805969E-08  0.10566000000E+00  0.10566000000E+00 0. -1.
     999900   -1    0    0    0    0 -0.00000000000E+00 -0.00000000000E+00 -0.74505805969E-08  0.93827000000E+00  0.93827000000E+00 0.  1.
     999902    2    1    2    0    0 -0.29142185186E-02 -0.15957762168E-01  0.17330840236E-01  0.10201918268E+01  0.10199156154E+01 0.  0.
     999903    2    3    3    0    0  0.46375560426E-01  0.35536757217E-01 -0.11191065870E+00  0.12790009600E+00  0.20515489416E-01 0.  0.
         14    1    1    2    0    0  0.29142185186E-02  0.15957762168E-01 -0.17330840236E-01  0.23738173188E-01  0.00000000000E+00 0.  1.
     999901    1    3    3    0    0 -0.49289778944E-01 -0.51494519385E-01  0.12924149894E+00  0.89229173082E+00  0.88000000000E+00 0. -1.
        -11    1    4    4    0    0  0.99248673197E-02  0.10268045434E-01 -0.12277777459E-01  0.18839869657E-01  0.51100000000E-03 0. -1.
         11    1    4    4    0    0  0.36450693106E-01  0.25268711783E-01 -0.99632881244E-01  0.10906022634E+00  0.51100000000E-03 0.  1.
</event>
<event>
 8    1  0.1112958E+005  0.1043930E+01  0.7957747E-01            NaN
         13   -1    0    0    0    0  0.00000000000E+00  0.00000000000E+00  0.74505805969E-08  0.10566000000E+00  0.10566000000E+00 0.  1.
     999900   -1    0    0    0    0 -0.00000000000E+00 -0.00000000000E+00 -0.74505805969E-08  0.93827000000E+00  0.93827000000E+00 0.  1.
     999902    2    1    2    0    0 -0.13596145342E-02 -0.23252219918E-01  0.47205121448E-02  0.10201645310E+01  0.10198876765E+01 0.  0.
     999903    2    3    3    0    0  0.10915458820E+00 -0.26002264432E-01 -0.63585999941E-01  0.13062154082E+00  0.20687330837E-01 0.  0.
         14    1    1    2    0    0  0.13596145342E-02  0.23252219918E-01 -0.47205121448E-02  0.23765469019E-01  0.00000000000E+00 0. -1.
     999901    1    3    3    0    0 -0.11051420273E+00  0.27500445146E-02  0.68306512086E-01  0.88954299016E+00  0.88000000000E+00 0. -1.
        -11    1    4    4    0    0  0.96841131037E-01 -0.29569176989E-01 -0.57076042491E-01  0.11623457590E+00  0.51100000000E-03 0. -1.
         11    1    4    4    0    0  0.12313457163E-01  0.35669125564E-02 -0.65099574495E-02  0.14386964916E-01  0.51100000000E-03 0.  1.
</event>
<event>
 8    1  0.1112958E+005  0.1043930E+01  0.7957747E-01            NaN
         13   -1    0    0    0    0  0.00000000000E+00  0.00000000000E+00  0.74505805969E-08  0.10566000000E+00  0.10566000000E+00 0. -1.
     999900   -1    0    0    0    0 -0.00000000000E+00 -0.00000000000E+00 -0.74505805969E-08  0.93827000000E+00  0.93827000000E+00 0.  1.
     999902    2    1    2    0    0 -0.21696251811E-01 -0.75791272890E-02 -0.37468431913E-02  0.10206446109E+01  0.10203789553E+01 0.  0.
     999903    2    3    3    0    0 -0.50713890017E-01 -0.32339396754E-01 -0.11632293336E+00  0.13265335508E+00  0.21169614204E-01 0.  0.
         14    1    1    2    0    0  0.21696251811E-01  0.75791272890E-02  0.37468431913E-02  0.23285389132E-01  0.00000000000E+00 0. -1.
     999901    1    3    3    0    0  0.29017638206E-01  0.24760269465E-01  0.11257609017E+00  0.88799125578E+00  0.88000000000E+00 0. -1.
        -11    1    4    4    0    0 -0.37267132835E-01 -0.31421395589E-01 -0.77526731827E-01  0.91579465817E-01  0.51100000000E-03 0. -1.
         11    1    4    4    0    0 -0.13446757182E-01 -0.91800116566E-03 -0.38796201536E-01  0.41073889267E-01  0.51100000000E-03 0.  1.
</event>
<event>
 8    1  0.1112958E+005  0.1043930E+01  0.7957747E-01            NaN
         13   -1    0    0    0    0  0.00000000000E+00  0.00000000000E+00  0.74505805969E-08  0.10566000000E+00  0.10566000000E+00 0. -1.
     999900   -1    0    0    0    0 -0.00000000000E+00 -0.00000000000E+00 -0.74505805969E-08  0.93827000000E+00  0.93827000000E+00 0.  1.
     999902    2    1    2    0    0  0.17971851750E-01  0.13149996567E-01 -0.47851519426E-02  0.10211526528E+01  0.10208985909E+01 0.  0.
     999903    2    3    3    0    0  0.26291836323E-01  0.12272830882E+00  0.39532718896E-01  0.13321081783E+00  0.20707189122E-01 0.  0.
         14    1    1    2    0    0 -0.17971851750E-01 -0.13149996567E-01  0.47851519426E-02  0.22777347171E-01  0.00000000000E+00 0. -1.
     999901    1    3    3    0    0 -0.83199845730E-02 -0.10957831225E+00 -0.44317870838E-01  0.88794183500E+00  0.88000000000E+00 0.  1.
        -11    1    4    4    0    0  0.15806409585E-01  0.10782105555E+00  0.34141622574E-01  0.11419778508E+00  0.51100000000E-03 0.  1.
         11    1    4    4    0    0  0.10485426738E-01  0.14907253265E-01  0.53910963219E-02  0.19013032750E-01  0.51100000000E-03 0. -1.
</event>
<event>
 8    1  0.1112958E+005  0.1043930E+01  0.7957747E-01            NaN
         13   -1    0    0    0    0  0.00000000000E+00  0.00000000000E+00  0.74505805969E-08  0.10566000000E+00  0.10566000000E+00 0. -1.
     999900   -1    0    0    0    0 -0.00000000000E+00 -0.00000000000E+00 -0.74505805969E-08  0.93827000000E+00  0.93827000000E+00 0.  1.
     999902    2    1    2    0    0 -0.18988218214E-01  0.44679418052E-02 -0.11220141865E-01  0.10214265221E+01  0.10211786002E+01 0.  0.
     999903    2    3    3    0    0  0.47465113315E-01 -0.11955376148E+00 -0.71540617403E-02  0.13023969478E+00  0.19109124245E-01 0.  0.
         14    1    1    2    0    0  0.18988218214E-01 -0.44679418052E-02  0.11220141865E-01  0.22503477918E-01  0.00000000000E+00 0. -1.
     999901    1    3    3    0    0 -0.66453331529E-01  0.12402170329E+00 -0.40660801251E-02  0.89118682731E+00  0.88000000000E+00 0. -1.
        -11    1    4    4    0    0  0.11445808961E-01 -0.44911229006E-01  0.43993014415E-02  0.46557920999E-01  0.51100000000E-03 0. -1.
         11    1    4    4    0    0  0.36019304354E-01 -0.74642532475E-01 -0.11553363182E-01  0.83681773776E-01  0.51100000000E-03 0.  1.
</event>
<event>
 8    1  0.1112958E+005  0.1043930E+01  0.7957747E-01            NaN
         13   -1    0    0    0    0  0.00000000000E+00  0.00000000000E+00  0.74505805969E-08  0.10566000000E+00  0.10566000000E+00 0. -1.
     999900   -1    0    0    0    0 -0.00000000000E+00 -0.00000000000E+00 -0.74505805969E-08  0.93827000000E+00  0.93827000000E+00 0.  1.
     999902    2    1    2    0    0 -0.16390178198E-01  0.71865738603E-02 -0.15259766468E-01  0.10204109597E+01  0.10201398832E+01 0.  0.
     999903    2    3    3    0    0 -0.10754407769E+00 -0.54625554003E-01 -0.51884149704E-01  0.13278991554E+00  0.19786785530E-01 0.  0.
         14    1    1    2    0    0  0.16390178198E-01 -0.71865738603E-02  0.15259766468E-01  0.23519040327E-01  0.00000000000E+00 0.  1.
     999901    1    3    3    0    0  0.91153899493E-01  0.61812127863E-01  0.36624383236E-01  0.88762104413E+00  0.88000000000E+00 0. -1.
        -11    1    4    4    0    0 -0.52232757749E-01 -0.18588181652E-01 -0.31138259305E-01  0.63589572987E-01  0.51100000000E-03 0. -1.
         11    1    4    4    0    0 -0.55311319943E-01 -0.36037372351E-01 -0.20745890399E-01  0.69200342551E-01  0.51100000000E-03 0.  1.
</event>
<event>
 8    1  0.1112958E+005  0.1043930E+01  0.7957747E-01            NaN
         13   -1    0    0    0    0  0.00000000000E+00  0.00000000000E+00  0.74505805969E-08  0.10566000000E+00  0.10566000000E+00 0. -1.
     999900   -1    0    0    0    0 -0.00000000000E+00 -0.00000000000E+00 -0.74505805969E-08  0.93827000000E+00  0.93827000000E+00 0. -1.
     999902    2    1    2    0    0 -0.12121156140E-01  0.12329153239E-01  0.16619233041E-01  0.10199481453E+01  0.10196661659E+01 0.  0.
     999903    2    3    3    0    0  0.10560049079E+00  0.25441664266E-01 -0.65191538184E-01  0.12825126502E+00  0.19992708479E-01 0.  0.
         14    1    1    2    0    0  0.12121156140E-01 -0.12329153239E-01 -0.16619233041E-01  0.23981854653E-01  0.00000000000E+00 0.  1.
     999901    1    3    3    0    0 -0.11772164693E+00 -0.13112511027E-01  0.81810771224E-01  0.89169688033E+00  0.88000000000E+00 0.  1.
        -11    1    4    4    0    0  0.16542833649E-01 -0.31552397598E-02 -0.11496604517E-01  0.20397399822E-01  0.51100000000E-03 0.  1.
         11    1    4    4    0    0  0.89057657140E-01  0.28596904026E-01 -0.53694933666E-01  0.10785386520E+00  0.51100000000E-03 0. -1.
</event>
<event>
 8    1  0.1112958E+005  0.1043930E+01  0.7957747E-01            NaN
         13   -1    0    0    0    0  0.00000000000E+00  0.00000000000E+00  0.74505805969E-08  0.10566000000E+00  0.10566000000E+00 0.  1.
     999900   -1    0    0    0    0 -0.00000000000E+00 -0.00000000000E+00 -0.74505805969E-08  0.93827000000E+00  0.93827000000E+00 0. -1.
     999902    2    1    2    0    0  0.66272730723E-02  0.25500897955E-02 -0.22404579941E-01  0.10204270447E+01  0.10201563432E+01 0.  0.
     999903    2    3    3    0    0  0.51896380835E-01  0.43692185991E-01 -0.11320134920E+00  0.13364295737E+00  0.21063075132E-01 0.  0.
         14    1    1    2    0    0 -0.66272730723E-02 -0.25500897955E-02  0.22404579941E-01  0.23502955318E-01  0.00000000000E+00 0.  1.
     999901    1    3    3    0    0 -0.45269107763E-01 -0.41142096196E-01  0.90796769260E-01  0.88678408731E+00  0.88000000000E+00 0. -1.
        -11    1    4    4    0    0  0.31729868495E-01  0.25292033592E-01 -0.86042320495E-01  0.95131559196E-01  0.51100000000E-03 0.  1.
         11    1    4    4    0    0  0.20166512340E-01  0.18400152399E-01 -0.27159028706E-01  0.38511398177E-01  0.51100000000E-03 0. -1.
</event>
<event>
 7    1  0.1112958E+005  0.1043930E+01  0.7957747E-01            NaN
         13   -1    0    0    0    0  0.00000000000E+00  0.00000000000E+00  0.74505805969E-08  0.10566000000E+00  0.10566000000E+00 0.  1.
     999900   -1    0    0    0    0 -0.00000000000E+00 -0.00000000000E+00 -0.74505805969E-08  0.93827000000E+00  0.93827000000E+00 0. -1.
     999903    2    1    2    0    0  0.10124854272E+00 -0.36598575413E-01 -0.93357704375E-02  0.10997400373E+00  0.20405924667E-01 0.  0.
         14    1    1    2    0    0  0.22976391951E-01 -0.27124959876E-01  0.23891140088E-01  0.42830650358E-01  0.00000000000E+00 0. -1.
     999901    1    1    2    0    0 -0.12422493467E+00  0.63723535289E-01 -0.14555369650E-01  0.89112534591E+00  0.88000000000E+00 0. -1.
        -11    1    3    3    0    0  0.13228762357E-01  0.18639229069E-02  0.73698189481E-03  0.13389496832E-01  0.51100000000E-03 0. -1.
         11    1    3    3    0    0  0.88019780362E-01 -0.38462498320E-01 -0.10072752332E-01  0.96584506897E-01  0.51100000000E-03 0.  1.
</event>
<event>
 8    1  0.1112958E+005  0.1043930E+01  0.7957747E-01            NaN
         13   -1    0    0    0    0  0.00000000000E+00  0.00000000000E+00  0.74505805969E-08  0.10566000000E+00  0.10566000000E+00 0. -1.
     999900   -1    0    0    0    0 -0.00000000000E+00 -0.00000000000E+00 -0.74505805969E-08  0.93827000000E+00  0.93827000000E+00 0.  1.
     999902    2    1    2    0    0 -0.21939148651E-01 -0.61693344583E-02 -0.80329334676E-02  0.10197656678E+01  0.10194793290E+01 0.  0.
     999903    2    3    3    0    0  0.10810226605E+00  0.63020770610E-01  0.10363708743E-01  0.12733277024E+00  0.21178065641E-01 0.  0.
         14    1    1    2    0    0  0.21939148651E-01  0.61693344583E-02  0.80329334676E-02  0.24164332213E-01  0.00000000000E+00 0. -1.
     999901    1    3    3    0    0 -0.13004141470E+00 -0.69190105069E-01 -0.18396642210E-01  0.89243289755E+00  0.88000000000E+00 0.  1.
        -11    1    4    4    0    0  0.11985997964E-01  0.12171663307E-01  0.72070852489E-02  0.18547688094E-01  0.51100000000E-03 0.  1.
         11    1    4    4    0    0  0.96116268088E-01  0.50849107303E-01  0.31566234937E-02  0.10878508215E+00  0.51100000000E-03 0. -1.
</event>
<event>
 8    1  0.1112958E+005  0.1043930E+01  0.7957747E-01            NaN
         13   -1    0    0    0    0  0.00000000000E+00  0.00000000000E+00  0.74505805969E-08  0.10566000000E+00  0.10566000000E+00 0. -1.
     999900   -1    0    0    0    0 -0.00000000000E+00 -0.00000000000E+00 -0.74505805969E-08  0.93827000000E+00  0.93827000000E+00 0.  1.
     999902    2    1    2    0    0 -0.72237131539E-02 -0.14172618295E-01  0.16129666218E-01  0.10212758332E+01  0.10210245424E+01 0.  0.
     999903    2    3    3    0    0 -0.23005296654E-01 -0.12702815060E+00 -0.23028762600E-01  0.13306481543E+00  0.22594833028E-01 0.  0.
         14    1    1    2    0    0  0.72237131539E-02  0.14172618295E-01 -0.16129666218E-01  0.22654166799E-01  0.00000000000E+00 0.  1.
     999901    1    3    3    0    0  0.15781583500E-01  0.11285553230E+00  0.39158428818E-01  0.88821101777E+00  0.88000000000E+00 0. -1.
        -11    1    4    4    0    0 -0.26145329834E-02 -0.69105831527E-01 -0.64489548810E-02  0.69457194543E-01  0.51100000000E-03 0.  1.
         11    1    4    4    0    0 -0.20390763671E-01 -0.57922319069E-01 -0.16579807719E-01  0.63607620883E-01  0.51100000000E-03 0. -1.
</event>
<event>
 8    1  0.1112958E+005  0.1043930E+01  0.7957747E-01            NaN
         13   -1    0    0    0    0  0.00000000000E+00  0.00000000000E+00  0.74505805969E-08  0.10566000000E+00  0.10566000000E+00 0. -1.
     999900   -1    0    0    0    0 -0.00000000000E+00 -0.00000000000E+00 -0.74505805969E-08  0.93827000000E+00  0.93827000000E+00 0.  1.
     999902    2    1    2    0    0  0.26109263935E-02  0.31247497799E-02 -0.23945831274E-01  0.10196404172E+01  0.10193510664E+01 0.  0.
     999903    2    3    3    0    0  0.57463002476E-01  0.71417590394E-01 -0.92249520475E-01  0.13265786026E+00  0.26185205564E-01 0.  0.
         14    1    1    2    0    0 -0.26109263935E-02 -0.31247497799E-02  0.23945831274E-01  0.24289582813E-01  0.00000000000E+00 0. -1.
     999901    1    3    3    0    0 -0.54852076083E-01 -0.68292840614E-01  0.68303689201E-01  0.88698255692E+00  0.88000000000E+00 0. -1.
        -11    1    4    4    0    0  0.51929569738E-01  0.59887665258E-01 -0.64848227046E-01  0.10241467832E+00  0.51100000000E-03 0. -1.
         11    1    4    4    0    0  0.55334327381E-02  0.11529925136E-01 -0.27401293429E-01  0.30243181943E-01  0.51100000000E-03 0.  1.
</event>
<event>
 8    1  0.1112958E+005  0.1043930E+01  0.7957747E-01            NaN
         13   -1    0    0    0    0  0.00000000000E+00  0.00000000000E+00  0.74505805969E-08  0.10566000000E+00  0.10566000000E+00 0.  1.
     999900   -1    0    0    0    0 -0.00000000000E+00 -0.00000000000E+00 -0.74505805969E-08  0.93827000000E+00  0.93827000000E+00 0. -1.
     999902    2    1    2    0    0 -0.19312954872E-01 -0.17824886740E-01 -0.78079012379E-03  0.10176369126E+01  0.10172971834E+01 0.  0.
     999903    2    3    3    0    0  0.16814948038E-01  0.12190694133E+00 -0.17023089055E-01  0.12573219714E+00  0.19358590180E-01 0.  0.
         14    1    1    2    0    0  0.19312954872E-01  0.17824886740E-01  0.78079012379E-03  0.26293087426E-01  0.00000000000E+00 0.  1.
     999901    1    3    3    0    0 -0.36127902910E-01 -0.13973182807E+00  0.16242298931E-01  0.89190471544E+00  0.88000000000E+00 0.  1.
        -11    1    4    4    0    0  0.19463079057E-01  0.74225280929E-01 -0.12684735982E-01  0.77777679467E-01  0.51100000000E-03 0.  1.
         11    1    4    4    0    0 -0.26481310182E-02  0.47681660402E-01 -0.43383530731E-02  0.47954517670E-01  0.51100000000E-03 0. -1.
</event>
<event>
 8    1  0.1112958E+005  0.1043930E+01  0.7957747E-01            NaN
         13   -1    0    0    0    0  0.00000000000E+00  0.00000000000E+00  0.74505805969E-08  0.10566000000E+00  0.10566000000E+00 0. -1.
     999900   -1    0    0    0    0 -0.00000000000E+00 -0.00000000000E+00 -0.74505805969E-08  0.93827000000E+00  0.93827000000E+00 0.  1.
     999902    2    1    2    0    0  0.13873009610E-01 -0.20097250649E-01 -0.32924129969E-02  0.10192885743E+01  0.10189906760E+01 0.  0.
     999903    2    3    3    0    0  0.12840995801E+00 -0.14302412983E-02 -0.21238473740E-01  0.13148835412E+00  0.18626636703E-01 0.  0.
         14    1    1    2    0    0 -0.13873009610E-01  0.20097250649E-01  0.32924129969E-02  0.24641425743E-01  0.00000000000E+00 0.  1.
     999901    1    3    3    0    0 -0.11453694840E+00 -0.18667009351E-01  0.17946060743E-01  0.88780022014E+00  0.88000000000E+00 0. -1.
        -11    1    4    4    0    0  0.81862268686E-01  0.76633159707E-02 -0.10861253240E-01  0.82936031910E-01  0.51100000000E-03 0.  1.
         11    1    4    4    0    0  0.46547689324E-01 -0.90935572690E-02 -0.10377220500E-01  0.48552322206E-01  0.51100000000E-03 0. -1.
</event>
<event>
 8    1  0.1112958E+005  0.1043930E+01  0.7957747E-01            NaN
         13   -1    0    0    0    0  0.00000000000E+00  0.00000000000E+00  0.74505805969E-08  0.10566000000E+00  0.10566000000E+00 0. -1.
     999900   -1    0    0    0    0 -0.00000000000E+00 -0.00000000000E+00 -0.74505805969E-08  0.93827000000E+00  0.93827000000E+00 0. -1.
     999902    2    1    2    0    0  0.17718491360E-01 -0.80469304352E-02 -0.15401934143E-01  0.10191123127E+01  0.10188100846E+01 0.  0.
     999903    2    3    3    0    0 -0.52152109419E-01 -0.87932139675E-01  0.75522501436E-01  0.12808436678E+00  0.15813066885E-01 0.  0.
         14    1    1    2    0    0 -0.17718491360E-01  0.80469304352E-02  0.15401934143E-01  0.24817687258E-01  0.00000000000E+00 0. -1.
     999901    1    3    3    0    0  0.69870600779E-01  0.79885209240E-01 -0.90924435579E-01  0.89102794597E+00  0.88000000000E+00 0.  1.
        -11    1    4    4    0    0 -0.36781559048E-01 -0.71234496620E-01  0.53001851769E-01  0.96107720848E-01  0.51100000000E-03 0. -1.
         11    1    4    4    0    0 -0.15370550372E-01 -0.16697643055E-01  0.22520649667E-01  0.31976645927E-01  0.51100000000E-03 0.  1.
</event>
<event>
 8    1  0.1112958E+005  0.1043930E+01  0.7957747E-01            NaN
         13   -1    0    0    0    0  0.00000000000E+00  0.00000000000E+00  0.74505805969E-08  0.10566000000E+00  0.10566000000E+00 0.  1.
     999900   -1    0    0    0    0 -0.00000000000E+00 -0.00000000000E+00 -0.74505805969E-08  0.93827000000E+00  0.93827000000E+00 0.  1.
     999902    2    1    2    0    0 -0.19310601508E-01  0.14145248254E-01  0.38768054776E-02  0.10196809382E+01  0.10193925636E+01 0.  0.
     999903    2    3    3    0    0 -0.13080250344E+00  0.73226043427E-02  0.55756216420E-02  0.13261843832E+00  0.19840543988E-01 0.  0.
         14    1    1    2    0    0  0.19310601508E-01 -0.14145248254E-01 -0.38768054776E-02  0.24249061827E-01  0.00000000000E+00 0. -1.
     999901    1    3    3    0    0  0.11149190193E+00  0.68226439111E-02 -0.16988161645E-02  0.88706249985E+00  0.88000000000E+00 0.  1.
        -11    1    4    4    0    0 -0.43555183471E-01 -0.68301091522E-02  0.72939948328E-03  0.44096457260E-01  0.51100000000E-03 0.  1.
         11    1    4    4    0    0 -0.87247319968E-01  0.14152713495E-01  0.48462221588E-02  0.88521981062E-01  0.51100000000E-03 0. -1.
</event>
<event>
 8    1  0.1112958E+005  0.1043930E+01  0.7957747E-01            NaN
         13   -1    0    0    0    0  0.00000000000E+00  0.00000000000E+00  0.74505805969E-08  0.10566000000E+00  0.10566000000E+00 0. -1.
     999900   -1    0    0    0    0 -0.00000000000E+00 -0.00000000000E+00 -0.74505805969E-08  0.93827000000E+00  0.93827000000E+00 0.  1.
     999902    2    1    2    0    0  0.17647894121E-01  0.95408074899E-02  0.12164307926E-01  0.10204684237E+01  0.10201986857E+01 0.  0.
     999903    2    3    3    0    0 -0.84771985284E-01  0.88232829752E-01 -0.38048834348E-01  0.12962409067E+00  0.19579819996E-01 0.  0.
         14    1    1    2    0    0 -0.17647894121E-01 -0.95408074899E-02 -0.12164307926E-01  0.23461576285E-01  0.00000000000E+00 0.  1.
     999901    1    3    3    0    0  0.10241987941E+00 -0.78692022262E-01  0.50213142274E-01  0.89084433305E+00  0.88000000000E+00 0. -1.
        -11    1    4    4    0    0 -0.30423429438E-01  0.39374033691E-01 -0.71298056069E-02  0.50269223555E-01  0.51100000000E-03 0. -1.
         11    1    4    4    0    0 -0.54348555846E-01  0.48858796061E-01 -0.30919028741E-01  0.79354867112E-01  0.51100000000E-03 0.  1.
</event>
<event>
 8    1  0.1112958E+005  0.1043930E+01  0.7957747E-01            NaN
         13   -1    0    0    0    0  0.00000000000E+00  0.00000000000E+00  0.74505805969E-08  0.10566000000E+00  0.10566000000E+00 0. -1.
     999900   -1    0    0    0    0 -0.00000000000E+00 -0.00000000000E+00 -0.74505805969E-08  0.93827000000E+00  0.93827000000E+00 0. -1.
     999902    2    1    2    0    0 -0.23102864094E-04  0.93548277045E-02 -0.22419092009E-01  0.10196374287E+01  0.10193480058E+01 0.  0.
     999903    2    3    3    0    0 -0.87994728108E-01  0.53857541481E-01 -0.80245921867E-01  0.13224606032E+00  0.20147097659E-01 0.  0.
         14    1    1    2    0    0  0.23102864094E-04 -0.93548277045E-02  0.22419092009E-01  0.24292571326E-01  0.00000000000E+00 0. -1.
     999901    1    3    3    0    0  0.87971625244E-01 -0.44502713777E-01  0.57826829858E-01  0.88739136836E+00  0.88000000000E+00 0.  1.
        -11    1    4    4    0    0 -0.14897315937E-01  0.17329517048E-01 -0.12220670961E-01  0.25920032851E-01  0.51100000000E-03 0.  1.
         11    1    4    4    0    0 -0.73097412171E-01  0.36528024433E-01 -0.68025250906E-01  0.10632602747E+00  0.51100000000E-03 0. -1.
</event>
<event>
 8    1  0.1112958E+005  0.1043930E+01  0.7957747E-01            NaN
         13   -1    0    0    0    0  0.00000000000E+00  0.00000000000E+00  0.74505805969E-08  0.10566000000E+00  0.10566000000E+00 0.  1.
     999900   -1    0    0    0    0 -0.00000000000E+00 -0.00000000000E+00 -0.74505805969E-08  0.93827000000E+00  0.93827000000E+00 0. -1.
     999902    2    1    2    0    0  0.22728304193E-01 -0.46662590840E-02 -0.55445154870E-03  0.10207210103E+01  0.10204571151E+01 0.  0.
     999903    2    3    3    0    0 -0.10410902977E+00 -0.30351104522E-01 -0.66733931368E-01  0.12879772656E+00  0.19379296838E-01 0.  0.
         14    1    1    2    0    0 -0.22728304193E-01  0.46662590840E-02  0.55445154870E-03  0.23208989677E-01  0.00000000000E+00 0.  1.
     999901    1    3    3    0    0  0.12683733396E+00  0.25684845438E-01  0.66179479819E-01  0.89192328376E+00  0.88000000000E+00 0.  1.
        -11    1    4    4    0    0 -0.72246625239E-01 -0.29276357019E-01 -0.42813961387E-01  0.88938047816E-01  0.51100000000E-03 0.  1.
         11    1    4    4    0    0 -0.31862404529E-01 -0.10747475033E-02 -0.23919969980E-01  0.39859678742E-01  0.51100000000E-03 0. -1.
</event>
<event>
 8    1  0.1112958E+005  0.1043930E+01  0.7957747E-01            NaN
         13   -1    0    0    0    0  0.00000000000E+00  0.00000000000E+00  0.74505805969E-08  0.10566000000E+00  0.10566000000E+00 0. -1.
     999900   -1    0    0    0    0 -0.00000000000E+00 -0.00000000000E+00 -0.74505805969E-08  0.93827000000E+00  0.93827000000E+00 0.  1.
     999902    2    1    2    0    0 -0.16950352832E-01 -0.12449699680E-01 -0.10891194935E-01  0.10202460896E+01  0.10199711544E+01 0.  0.
     999903    2    3    3    0    0  0.10946576976E+00 -0.18149420145E-01 -0.64118512767E-01  0.12960212585E+00  0.19322814087E-01 0.  0.
         14    1    1    2    0    0  0.16950352832E-01  0.12449699680E-01  0.10891194935E-01  0.23683910369E-01  0.00000000000E+00 0. -1.
     999901    1    3    3    0    0 -0.12641612259E+00  0.56997204648E-02  0.53227317832E-01  0.89064396379E+00  0.88000000000E+00 0.  1.
        -11    1    4    4    0    0  0.55356372382E-01 -0.18355277572E-01 -0.29442630374E-01  0.65332792550E-01  0.51100000000E-03 0.  1.
         11    1    4    4    0    0  0.54109397375E-01  0.20585742741E-03 -0.34675882393E-01  0.64269333296E-01  0.51100000000E-03 0. -1.
</event>
<event>
 8    1  0.1112958E+005  0.1043930E+01  0.7957747E-01            NaN
         13   -1    0    0    0    0  0.00000000000E+00  0.00000000000E+00  0.74505805969E-08  0.10566000000E+00  0.10566000000E+00 0. -1.
     999900   -1    0    0    0    0 -0.00000000000E+00 -0.00000000000E+00 -0.74505805969E-08  0.93827000000E+00  0.93827000000E+00 0.  1.
     999902    2    1    2    0    0 -0.11741977765E-01  0.18960272099E-01  0.59374420555E-02  0.10208514563E+01  0.10205905529E+01 0.  0.
     999903    2    3    3    0    0  0.92818796656E-01  0.68161320238E-01  0.60353692955E-01  0.13162998389E+00  0.20556989462E-01 0.  0.
         14    1    1    2    0    0  0.11741977765E-01 -0.18960272099E-01 -0.59374420555E-02  0.23078543673E-01  0.00000000000E+00 0.  1.
     999901    1    3    3    0    0 -0.10456077442E+00 -0.49201048139E-01 -0.54416250900E-01  0.88922147244E+00  0.88000000000E+00 0. -1.
        -11    1    4    4    0    0  0.59902699890E-01  0.47916415895E-01  0.50182101335E-01  0.91666901234E-01  0.51100000000E-03 0.  1.
         11    1    4    4    0    0  0.32916096766E-01  0.20244904343E-01  0.10171591620E-01  0.39963082654E-01  0.51100000000E-03 0. -1.
</event>
<event>
 8    1  0.1112958E+005  0.1043930E+01  0.7957747E-01            NaN
         13   -1    0    0    0    0  0.00000000000E+00  0.00000000000E+00  0.74505805969E-08  0.10566000000E+00  0.10566000000E+00 0. -1.
     999900   -1    0    0    0    0 -0.00000000000E+00 -0.00000000000E+00 -0.74505805969E-08  0.93827000000E+00  0.93827000000E+00 0. -1.
     999902    2    1    2    0    0 -0.66749427196E-02  0.97493759625E-02  0.20038258147E-01  0.10206676488E+01  0.10204025247E+01 0.  0.
     999903    2    3    3    0    0 -0.47786304099E-01 -0.18196629632E-02  0.12308375601E+00  0.13362629618E+00  0.20482529282E-01 0.  0.
         14    1    1    2    0    0  0.66749427196E-02 -0.97493759625E-02 -0.20038258147E-01  0.23262351161E-01  0.00000000000E+00 0.  1.
     999901    1    3    3    0    0  0.41111361379E-01  0.11569038926E-01 -0.10304549786E+00  0.88704135266E+00  0.88000000000E+00 0. -1.
        -11    1    4    4    0    0 -0.20922498202E-01 -0.50638476927E-03  0.28963904819E-01  0.35737602885E-01  0.51100000000E-03 0. -1.
         11    1    4    4    0    0 -0.26863805896E-01 -0.13132781939E-02  0.94119851187E-01  0.97888693296E-01  0.51100000000E-03 0.  1.
</event>
<event>
 8    1  0.1112958E+005  0.1043930E+01  0.7957747E-01            NaN
         13   -1    0    0    0    0  0.00000000000E+00  0.00000000000E+00  0.74505805969E-08  0.10566000000E+00  0.10566000000E+00 0.  1.
     999900   -1    0    0    0    0 -0.00000000000E+00 -0.00000000000E+00 -0.74505805969E-08  0.93827000000E+00  0.93827000000E+00 0. -1.
     999902    2    1    2    0    0 -0.97291703044E-02  0.45423120273E-02 -0.19916894699E-01  0.10213032007E+01  0.10210525235E+01 0.  0.
     999903    2    3    3    0    0  0.52988436712E-01 -0.11377881281E+00  0.27425571435E-01  0.12991400626E+00  0.19289748149E-01 0.  0.
         14    1    1    2    0    0  0.97291703044E-02 -0.45423120273E-02  0.19916894699E-01  0.22626799327E-01  0.00000000000E+00 0.  1.
     999901    1    3    3    0    0 -0.62717607017E-01  0.11832112484E+00 -0.47342466134E-01  0.89138919441E+00  0.88000000000E+00 0. -1.
        -11    1    4    4    0    0  0.24339034983E-01 -0.34517085458E-01  0.39446604367E-02  0.42422155525E-01  0.51100000000E-03 0.  1.
         11    1    4    4    0    0  0.28649401729E-01 -0.79261727356E-01  0.23480910999E-01  0.87491850736E-01  0.51100000000E-03 0. -1.
</event>
<event>
 8    1  0.1112958E+005  0.1043930E+01  0.7957747E-01            NaN
         13   -1    0    0    0    0  0.00000000000E+00  0.00000000000E+00  0.74505805969E-08  0.10566000000E+00  0.10566000000E+00 0.  1.
     999900   -1    0    0    0    0 -0.00000000000E+00 -0.00000000000E+00 -0.74505805969E-08  0.93827000000E+00  0.93827000000E+00 0.  1.
     999902    2    1    2    0    0  0.18339945448E-01  0.16148842564E-01  0.47302811008E-03  0.10194890002E+01  0.10191959866E+01 0.  0.
     999903    2    3    3    0    0  0.81725677224E-01 -0.10458479117E-01 -0.99979430249E-01  0.13111047900E+00  0.20139640682E-01 0.  0.
         14    1    1    2    0    0 -0.18339945448E-01 -0.16148842564E-01 -0.47302811008E-03  0.24440999791E-01  0.00000000000E+00 0. -1.
     999901    1    3    3    0    0 -0.63385731776E-01  0.26607321681E-01  0.10045245836E+00  0.88837852121E+00  0.88000000000E+00 0. -1.
        -11    1    4    4    0    0  0.46906937619E-01 -0.79670329050E-02 -0.72324885556E-01  0.86573001575E-01  0.51100000000E-03 0.  1.
         11    1    4    4    0    0  0.34818739605E-01 -0.24914462117E-02 -0.27654544693E-01  0.44537477422E-01  0.51100000000E-03 0. -1.
</event>
<event>
 7    1  0.1112958E+005  0.1043930E+01  0.7957747E-01            NaN
         13   -1    0    0    0    0  0.00000000000E+00  0.00000000000E+00  0.74505805969E-08  0.10566000000E+00  0.10566000000E+00 0.  1.
     999900   -1    0    0    0    0 -0.00000000000E+00 -0.00000000000E+00 -0.74505805969E-08  0.93827000000E+00  0.93827000000E+00 0. -1.
     999902    2    1    2    0    0  0.86958237302E-03 -0.12714183993E-01  0.20886107557E-01  0.10194629581E+01  0.10191693122E+01 0.  0.
         14    1    1    2    0    0 -0.86958237302E-03  0.12714183993E-01 -0.20886107557E-01  0.24467041852E-01  0.00000000000E+00 0. -1.
     999901    1    3    3    0    0  0.11126898130E+00 -0.28161196458E-01 -0.36047669226E-01  0.88818538247E+00  0.88000000000E+00 0. -1.
        -11    1    3    3    0    0 -0.12351023301E-01  0.20698062912E-02  0.23837433558E-01  0.26931695719E-01  0.51100000000E-03 0.  1.
         11    1    3    3    0    0 -0.98048375624E-01  0.13377206174E-01  0.33096343225E-01  0.10434587995E+00  0.51100000000E-03 0. -1.
</event>
<event>
 8    1  0.1112958E+005  0.1043930E+01  0.7957747E-01            NaN
         13   -1    0    0    0    0  0.00000000000E+00  0.00000000000E+00  0.74505805969E-08  0.10566000000E+00  0.10566000000E+00 0. -1.
     999900   -1    0    0    0    0 -0.00000000000E+00 -0.00000000000E+00 -0.74505805969E-08  0.93827000000E+00  0.93827000000E+00 0.  1.
     999902    2    1    2    0    0 -0.42126466548E-02 -0.81248564995E-02  0.21782155165E-01  0.10203032785E+01  0.10200296849E+01 0.  0.
     999903    2    3    3    0    0  0.47883003449E-01 -0.10786554839E+00  0.56727540051E-01  0.13245005736E+00  0.19931014655E-01 0.  0.
         14    1    1    2    0    0  0.42126466548E-02  0.81248564995E-02 -0.21782155165E-01  0.23626721495E-01  0.00000000000E+00 0.  1.
     999901    1    3    3    0    0 -0.52095650104E-01  0.99740691889E-01 -0.34945384886E-01  0.88785322115E+00  0.88000000000E+00 0.  1.
        -11    1    4    4    0    0  0.33931497737E-01 -0.64916812774E-01  0.25579707362E-01  0.77589443027E-01  0.51100000000E-03 0.  1.
         11    1    4    4    0    0  0.13951505712E-01 -0.42948735614E-01  0.31147832689E-01  0.54860614330E-01  0.51100000000E-03 0. -1.
</event>
<event>
 8    1  0.1112958E+005  0.1043930E+01  0.7957747E-01            NaN
         13   -1    0    0    0    0  0.00000000000E+00  0.00000000000E+00  0.74505805969E-08  0.10566000000E+00  0.10566000000E+00 0.  1.
     999900   -1    0    0    0    0 -0.00000000000E+00 -0.00000000000E+00 -0.74505805969E-08  0.93827000000E+00  0.93827000000E+00 0.  1.
     999902    2    1    2    0    0 -0.20842522696E-01  0.39886468708E-02  0.25014453332E-02  0.10225623308E+01  0.10223390549E+01 0.  0.
     999903    2    3    3    0    0 -0.12512133515E-01  0.13116382219E+00 -0.30183242087E-02  0.13336415920E+00  0.20405561525E-01 0.  0.
         14    1    1    2    0    0  0.20842522696E-01 -0.39886468708E-02 -0.25014453332E-02  0.21367669151E-01  0.00000000000E+00 0. -1.
     999901    1    3    3    0    0 -0.83303891813E-02 -0.12717517532E+00  0.55197695419E-02  0.88919817165E+00  0.88000000000E+00 0.  1.
        -11    1    4    4    0    0  0.36734377478E-03  0.56941291894E-01  0.69767152302E-02  0.57370561618E-01  0.51100000000E-03 0.  1.
         11    1    4    4    0    0 -0.12879477290E-01  0.74222530300E-01 -0.99950394389E-02  0.75993597584E-01  0.51100000000E-03 0. -1.
</event>
<event>
 8    1  0.1112958E+005  0.1043930E+01  0.7957747E-01            NaN
         13   -1    0    0    0    0  0.00000000000E+00  0.00000000000E+00  0.74505805969E-08  0.10566000000E+00  0.10566000000E+00 0. -1.
     999900   -1    0    0    0    0 -0.00000000000E+00 -0.00000000000E+00 -0.74505805969E-08  0.93827000000E+00  0.93827000000E+00 0. -1.
     999902    2    1    2    0    0 -0.21827460487E-01 -0.31847260665E-02 -0.62732879362E-02  0.10209967348E+01  0.10207391429E+01 0.  0.
     999903    2    3    3    0    0  0.10890051104E+00  0.29496388861E-01 -0.55624422378E-01  0.12937271522E+00  0.30230197140E-01 0.  0.
         14    1    1    2    0    0  0.21827460487E-01  0.31847260665E-02  0.62732879362E-02  0.22933265205E-01  0.00000000000E+00 0.  1.
     999901    1    3    3    0    0 -0.13072797152E+00 -0.32681114927E-01  0.49351134442E-01  0.89162401957E+00  0.88000000000E+00 0.  1.
        -11    1    4    4    0    0  0.46893234153E-01  0.15209921615E-01 -0.81253437771E-02  0.49965983002E-01  0.51100000000E-03 0.  1.
         11    1    4    4    0    0  0.62007276883E-01  0.14286467246E-01 -0.47499078601E-01  0.79406732219E-01  0.51100000000E-03 0. -1.
</event>
<event>
 8    1  0.1112958E+005  0.1043930E+01  0.7957747E-01            NaN
         13   -1    0    0    0    0  0.00000000000E+00  0.00000000000E+00  0.74505805969E-08  0.10566000000E+00  0.10566000000E+00 0.  1.
     999900   -1    0    0    0    0 -0.00000000000E+00 -0.00000000000E+00 -0.74505805969E-08  0.93827000000E+00  0.93827000000E+00 0. -1.
     999902    2    1    2    0    0 -0.22808041127E-01  0.11198336440E-02 -0.65041294277E-02  0.10201862752E+01  0.10199099331E+01 0.  0.
     999903    2    3    3    0    0  0.81972142035E-01 -0.28270741041E-01 -0.93759148633E-01  0.12920023096E+00  0.19576896060E-01 0.  0.
         14    1    1    2    0    0  0.22808041127E-01 -0.11198336440E-02  0.65041294277E-02  0.23743724793E-01  0.00000000000E+00 0. -1.
     999901    1    3    3    0    0 -0.10478018316E+00  0.29390574685E-01  0.87255019205E-01  0.89098604425E+00  0.88000000000E+00 0.  1.
        -11    1    4    4    0    0  0.32337325183E-01 -0.20267281157E-01 -0.46935311319E-01  0.60495039922E-01  0.51100000000E-03 0.  1.
         11    1    4    4    0    0  0.49634816852E-01 -0.80034598838E-02 -0.46823837313E-01  0.68705191040E-01  0.51100000000E-03 0. -1.
</event>
<event>
 8    1  0.1112958E+005  0.1043930E+01  0.7957747E-01            NaN
         13   -1    0    0    0    0  0.00000000000E+00  0.00000000000E+00  0.74505805969E-08  0.10566000000E+00  0.10566000000E+00 0.  1.
     999900   -1    0    0    0    0 -0.00000000000E+00 -0.00000000000E+00 -0.74505805969E-08  0.93827000000E+00  0.93827000000E+00 0.  1.
     999902    2    1    2    0    0  0.29694010695E-03  0.60955679996E-02  0.24276274462E-01  0.10188983875E+01  0.10185908612E+01 0.  0.
     999903    2    3    3    0    0 -0.17840771630E-01 -0.31767101094E-01 -0.11906188326E+00  0.12631316145E+00  0.21256548763E-01 0.  0.
         14    1    1    2    0    0 -0.29694010695E-03 -0.60955679996E-02 -0.24276274462E-01  0.25031612502E-01  0.00000000000E+00 0. -1.
     999901    1    3    3    0    0  0.18137711737E-01  0.37862669094E-01  0.14333815773E+00  0.89258522605E+00  0.88000000000E+00 0. -1.
        -11    1    4    4    0    0 -0.43551085948E-02 -0.11995735108E-01 -0.75813938656E-01  0.76882241430E-01  0.51100000000E-03 0. -1.
         11    1    4    4    0    0 -0.13485663035E-01 -0.19771365986E-01 -0.43247944607E-01  0.49430920021E-01  0.51100000000E-03 0.  1.
</event>
<event>
 8    1  0.1112958E+005  0.1043930E+01  0.7957747E-01            NaN
         13   -1    0    0    0    0  0.00000000000E+00  0.00000000000E+00  0.74505805969E-08  0.10566000000E+00  0.10566000000E+00 0.  1.
     999900   -1    0    0    0    0 -0.00000000000E+00 -0.00000000000E+00 -0.74505805969E-08  0.93827000000E+00  0.93827000000E+00 0. -1.
     999902    2    1    2    0    0  0.19126188788E-01 -0.11779374595E-01  0.85275155312E-02  0.10199032798E+01  0.10196202317E+01 0.  0.
     999903    2    3    3    0    0 -0.18267091797E-01 -0.91384553708E-01  0.90817383286E-01  0.13169898779E+00  0.20297856513E-01 0.  0.
         14    1    1    2    0    0 -0.19126188788E-01  0.11779374595E-01 -0.85275155312E-02  0.24026720220E-01  0.00000000000E+00 0.  1.
     999901    1    3    3    0    0  0.37393280584E-01  0.79605179113E-01 -0.82289867754E-01  0.88820429199E+00  0.88000000000E+00 0. -1.
        -11    1    4    4    0    0 -0.77357739686E-03 -0.48914270774E-01  0.39964202502E-01  0.63171219000E-01  0.51100000000E-03 0. -1.
         11    1    4    4    0    0 -0.17493514400E-01 -0.42470282934E-01  0.50853180784E-01  0.68527768790E-01  0.51100000000E-03 0.  1.
</event>
<event>
 8    1  0.1112958E+005  0.1043930E+01  0.7957747E-01            NaN
         13   -1    0    0    0    0  0.00000000000E+00  0.00000000000E+00  0.74505805969E-08  0.10566000000E+00  0.10566000000E+00 0.  1.
     999900   -1    0    0    0    0 -0.00000000000E+00 -0.00000000000E+00 -0.74505805969E-08  0.93827000000E+00  0.93827000000E+00 0. -1.
     999902    2    1    2    0    0 -0.31394471289E-02 -0.11321415099E-01  0.14703975082E-01  0.10251088031E+01  0.10249360082E+01 0.  0.
     999903    2    3    3    0    0 -0.83672057094E-01  0.44088605255E-01  0.95760532279E-01  0.13599354790E+00  0.19476839521E-01 0.  0.
         14    1    1    2    0    0  0.31394471289E-02  0.11321415099E-01 -0.14703975082E-01  0.18821196862E-01  0.00000000000E+00 0. -1.
     999901    1    3    3    0    0  0.80532609965E-01 -0.55410020353E-01 -0.81056557197E-01  0.88911525523E+00  0.88000000000E+00 0. -1.
        -11    1    4    4    0    0 -0.31019911165E-01  0.15757774670E-01  0.22531429508E-01  0.41454418195E-01  0.51100000000E-03 0.  1.
         11    1    4    4    0    0 -0.52652145929E-01  0.28330830585E-01  0.73229102771E-01  0.94539129710E-01  0.51100000000E-03 0. -1.
</event>
<event>
 8    1  0.1112958E+005  0.1043930E+01  0.7957747E-01            NaN
         13   -1    0    0    0    0  0.00000000000E+00  0.00000000000E+00  0.74505805969E-08  0.10566000000E+00  0.10566000000E+00 0. -1.
     999900   -1    0    0    0    0 -0.00000000000E+00 -0.00000000000E+00 -0.74505805969E-08  0.93827000000E+00  0.93827000000E+00 0. -1.
     999902    2    1    2    0    0 -0.23506153014E-01 -0.16159852302E-02  0.45521802798E-02  0.10199326463E+01  0.10196502979E+01 0.  0.
     999903    2    3    3    0    0  0.52785961753E-01  0.64976062420E-01 -0.95818102454E-01  0.12845680188E+00  0.17657710648E-01 0.  0.
         14    1    1    2    0    0  0.23506153014E-01  0.16159852302E-02 -0.45521802798E-02  0.23997353669E-01  0.00000000000E+00 0. -1.
     999901    1    3    3    0    0 -0.76292114767E-01 -0.66592047650E-01  0.10037028273E+00  0.89147584445E+00  0.88000000000E+00 0.  1.
        -11    1    4    4    0    0  0.19470549160E-01  0.29681029951E-01 -0.28832525004E-01  0.45734466682E-01  0.51100000000E-03 0.  1.
         11    1    4    4    0    0  0.33315412592E-01  0.35295032469E-01 -0.66985577450E-01  0.82722335197E-01  0.51100000000E-03 0. -1.
</event>
<event>
 8    1  0.1112958E+005  0.1043930E+01  0.7957747E-01            NaN
         13   -1    0    0    0    0  0.00000000000E+00  0.00000000000E+00  0.74505805969E-08  0.10566000000E+00  0.10566000000E+00 0.  1.
     999900   -1    0    0    0    0 -0.00000000000E+00 -0.00000000000E+00 -0.74505805969E-08  0.93827000000E+00  0.93827000000E+00 0.  1.
     999902    2    1    2    0    0  0.12076643047E-01  0.23552510286E-02 -0.19321113431E-01  0.10210237140E+01  0.10207667347E+01 0.  0.
     999903    2    3    3    0    0 -0.45234516636E-02  0.12376658435E+00  0.40382959378E-01  0.13052899120E+00  0.82707387138E-02 0.  0.
         14    1    1    2    0    0 -0.12076643047E-01 -0.23552510286E-02  0.19321113431E-01  0.22906286013E-01  0.00000000000E+00 0.  1.
     999901    1    3    3    0    0  0.16600094711E-01 -0.12141133332E+00 -0.59704072809E-01  0.89049472279E+00  0.88000000000E+00 0.  1.
        -11    1    4    4    0    0 -0.68319169773E-02  0.87460912242E-01  0.29424839634E-01  0.92531986730E-01  0.51100000000E-03 0.  1.
         11    1    4    4    0    0  0.23084653138E-02  0.36305672107E-01  0.10958119744E-01  0.37997004469E-01  0.51100000000E-03 0. -1.
</event>
<event>
 8    1  0.1112958E+005  0.1043930E+01  0.7957747E-01            NaN
         13   -1    0    0    0    0  0.00000000000E+00  0.00000000000E+00  0.74505805969E-08  0.10566000000E+00  0.10566000000E+00 0.  1.
     999900   -1    0    0    0    0 -0.00000000000E+00 -0.00000000000E+00 -0.74505805969E-08  0.93827000000E+00  0.93827000000E+00 0. -1.
     999902    2    1    2    0    0 -0.10502435908E-01 -0.13885884437E-01  0.16115240911E-01  0.10202061737E+01  0.10199303000E+01 0.  0.
     999903    2    3    3    0    0 -0.70357617310E-01 -0.91477813979E-01 -0.58451102638E-01  0.13163243454E+00  0.24334782890E-01 0.  0.
         14    1    1    2    0    0  0.10502435908E-01  0.13885884437E-01 -0.16115240911E-01  0.23723826340E-01  0.00000000000E+00 0. -1.
     999901    1    3    3    0    0  0.59855181402E-01  0.77591929542E-01  0.74566343550E-01  0.88857373912E+00  0.88000000000E+00 0.  1.
        -11    1    4    4    0    0 -0.16129416745E-01 -0.40129467701E-01 -0.20747206367E-01  0.47971240921E-01  0.51100000000E-03 0.  1.
         11    1    4    4    0    0 -0.54228200565E-01 -0.51348346278E-01 -0.37703896271E-01  0.83661193615E-01  0.51100000000E-03 0. -1.
</event>
<event>
 8    1  0.1112958E+005  0.1043930E+01  0.7957747E-01            NaN
         13   -1    0    0    0    0  0.00000000000E+00  0.00000000000E+00  0.74505805969E-08  0.10566000000E+00  0.10566000000E+00 0. -1.
     999900   -1    0    0    0    0 -0.00000000000E+00 -0.00000000000E+00 -0.74505805969E-08  0.93827000000E+00  0.93827000000E+00 0. -1.
     999902    2    1    2    0    0 -0.91128169108E-02  0.20691541681E-01  0.82281272089E-02  0.10198699625E+01  0.10195861194E+01 0.  0.
     999903    2    3    3    0    0 -0.11948099131E+00  0.15177467500E-01  0.49831091277E-01  0.13198351389E+00  0.20747228160E-01 0.  0.
         14    1    1    2    0    0  0.91128169108E-02 -0.20691541681E-01 -0.82281272089E-02  0.24060037542E-01  0.00000000000E+00 0. -1.
     999901    1    3    3    0    0  0.11036817440E+00  0.55140741805E-02 -0.41602964068E-01  0.88788644857E+00  0.88000000000E+00 0. -1.
        -11    1    4    4    0    0 -0.14290399056E-01  0.63672293785E-02  0.12448502308E-01  0.19999586142E-01  0.51100000000E-03 0.  1.
         11    1    4    4    0    0 -0.10519059225E+00  0.88102381217E-02  0.37382588969E-01  0.11198392775E+00  0.51100000000E-03 0. -1.
</event>
<event>
 8    1  0.1112958E+005  0.1043930E+01  0.7957747E-01            NaN
         13   -1    0    0    0    0  0.00000000000E+00  0.00000000000E+00  0.74505805969E-08  0.10566000000E+00  0.10566000000E+00 0. -1.
     999900   -1    0    0    0    0 -0.00000000000E+00 -0.00000000000E+00 -0.74505805969E-08  0.93827000000E+00  0.93827000000E+00 0. -1.
     999902    2    1    2    0    0  0.16619009047E-01  0.71518873829E-02  0.16832515720E-01  0.10192181700E+01  0.10189185461E+01 0.  0.
     999903    2    3    3    0    0  0.27238322160E-01  0.12656526092E+00  0.45682540208E-02  0.13100494355E+00  0.19512427438E-01 0.  0.
         14    1    1    2    0    0 -0.16619009047E-01 -0.71518873829E-02 -0.16832515720E-01  0.24711829966E-01  0.00000000000E+00 0.  1.
     999901    1    3    3    0    0 -0.10619313113E-01 -0.11941337353E+00  0.12264261699E-01  0.88821322649E+00  0.88000000000E+00 0. -1.
        -11    1    4    4    0    0  0.46399966749E-02  0.37119611318E-01 -0.68812930592E-02  0.38039563992E-01  0.51100000000E-03 0.  1.
         11    1    4    4    0    0  0.22598325485E-01  0.89445649597E-01  0.11449547080E-01  0.92965379555E-01  0.51100000000E-03 0. -1.
</event>
<event>
 8    1  0.1112958E+005  0.1043930E+01  0.7957747E-01            NaN
         13   -1    0    0    0    0  0.00000000000E+00  0.00000000000E+00  0.74505805969E-08  0.10566000000E+00  0.10566000000E+00 0.  1.
     999900   -1    0    0    0    0 -0.00000000000E+00 -0.00000000000E+00 -0.74505805969E-08  0.93827000000E+00  0.93827000000E+00 0.  1.
     999902    2    1    2    0    0 -0.73370031250E-02 -0.15938440249E-01  0.16075687056E-01  0.10201330841E+01  0.10198554878E+01 0.  0.
     999903    2    3    3    0    0  0.63659344206E-02 -0.12386167739E+00 -0.39444272375E-01  0.13169757067E+00  0.20153393011E-01 0.  0.
         14    1    1    2    0    0  0.73370031250E-02  0.15938440249E-01 -0.16075687056E-01  0.23796915908E-01  0.00000000000E+00 0. -1.
     999901    1    3    3    0    0 -0.13702937546E-01  0.10792323714E+00  0.55519959431E-01  0.88843551342E+00  0.88000000000E+00 0. -1.
        -11    1    4    4    0    0 -0.46136493126E-02 -0.37814503401E-01 -0.52646405544E-02  0.38460369065E-01  0.51100000000E-03 0.  1.
         11    1    4    4    0    0  0.10979583733E-01 -0.86047173991E-01 -0.34179631821E-01  0.93237201605E-01  0.51100000000E-03 0. -1.
</event>
<event>
 8    1  0.1112958E+005  0.1043930E+01  0.7957747E-01            NaN
         13   -1    0    0    0    0  0.00000000000E+00  0.00000000000E+00  0.74505805969E-08  0.10566000000E+00  0.10566000000E+00 0.  1.
     999900   -1    0    0    0    0 -0.00000000000E+00 -0.00000000000E+00 -0.74505805969E-08  0.93827000000E+00  0.93827000000E+00 0.  1.
     999902    2    1    2    0    0 -0.13867541908E-01  0.19449637379E-01 -0.69653456767E-02  0.10190480155E+01  0.10187441998E+01 0.  0.
     999903    2    3    3    0    0  0.86815459465E-02  0.61809908008E-01  0.11184362945E+00  0.12976829208E+00  0.20856131305E-01 0.  0.
         14    1    1    2    0    0  0.13867541908E-01 -0.19449637379E-01  0.69653456767E-02  0.24881984510E-01  0.00000000000E+00 0.  1.
     999901    1    3    3    0    0 -0.22549087855E-01 -0.42360270629E-01 -0.11880897513E+00  0.88927972341E+00  0.88000000000E+00 0. -1.
        -11    1    4    4    0    0  0.29505971168E-02  0.42397497579E-01  0.55555999140E-01  0.69949867660E-01  0.51100000000E-03 0. -1.
         11    1    4    4    0    0  0.57309488297E-02  0.19412410429E-01  0.56287630313E-01  0.59818424423E-01  0.51100000000E-03 0.  1.
</event>
<event>
 8    1  0.1112958E+005  0.1043930E+01  0.7957747E-01            NaN
         13   -1    0    0    0    0  0.00000000000E+00  0.00000000000E+00  0.74505805969E-08  0.10566000000E+00  0.10566000000E+00 0.  1.
     999900   -1    0    0    0    0 -0.00000000000E+00 -0.00000000000E+00 -0.74505805969E-08  0.93827000000E+00  0.93827000000E+00 0. -1.
     999902    2    1    2    0    0 -0.36125365200E-02 -0.10284208171E-01  0.21325841539E-01  0.10199799087E+01  0.10196986845E+01 0.  0.
     999903    2    3    3    0    0  0.54260199362E-02 -0.83315664572E-01 -0.96435288280E-01  0.12909104195E+00  0.19844158627E-01 0.  0.
         14    1    1    2    0    0  0.36125365200E-02  0.10284208171E-01 -0.21325841539E-01  0.23950091339E-01  0.00000000000E+00 0. -1.
     999901    1    3    3    0    0 -0.90385564563E-02  0.73031456401E-01  0.11776112982E+00  0.89088886671E+00  0.88000000000E+00 0.  1.
        -11    1    4    4    0    0  0.78292055372E-02 -0.82965140620E-01 -0.93746024807E-01  0.12543161207E+00  0.51100000000E-03 0.  1.
         11    1    4    4    0    0 -0.24031856009E-02 -0.35052395214E-03 -0.26892634733E-02  0.36594298876E-02  0.51100000000E-03 0. -1.
</event>
<event>
 8    1  0.1112958E+005  0.1043930E+01  0.7957747E-01            NaN
         13   -1    0    0    0    0  0.00000000000E+00  0.00000000000E+00  0.74505805969E-08  0.10566000000E+00  0.10566000000E+00 0. -1.
     999900   -1    0    0    0    0 -0.00000000000E+00 -0.00000000000E+00 -0.74505805969E-08  0.93827000000E+00  0.93827000000E+00 0.  1.
     999902    2    1    2    0    0 -0.34414954456E-02  0.30467402939E-02 -0.23308246564E-01  0.10201728774E+01  0.10198962197E+01 0.  0.
     999903    2    3    3    0    0 -0.88598769440E-01  0.79536056324E-01 -0.54011047667E-01  0.13222860054E+00  0.19785937638E-01 0.  0.
         14    1    1    2    0    0  0.34414954456E-02 -0.30467402939E-02  0.23308246564E-01  0.23757122620E-01  0.00000000000E+00 0. -1.
     999901    1    3    3    0    0  0.85157273994E-01 -0.76489316030E-01  0.30702801104E-01  0.88794427684E+00  0.88000000000E+00 0.  1.
        -11    1    4    4    0    0 -0.44349413696E-01  0.29565227019E-01 -0.17239894945E-01  0.56021855044E-01  0.51100000000E-03 0.  1.
         11    1    4    4    0    0 -0.44249355744E-01  0.49970829306E-01 -0.36771152723E-01  0.76206745494E-01  0.51100000000E-03 0. -1.
</event>
<event>
 8    1  0.1112958E+005  0.1043930E+01  0.7957747E-01            NaN
         13   -1    0    0    0    0  0.00000000000E+00  0.00000000000E+00  0.74505805969E-08  0.10566000000E+00  0.10566000000E+00 0. -1.
     999900   -1    0    0    0    0 -0.00000000000E+00 -0.00000000000E+00 -0.74505805969E-08  0.93827000000E+00  0.93827000000E+00 0.  1.
     999902    2    1    2    0    0  0.15985397015E-01  0.71930641134E-02  0.15981829368E-01  0.10202088710E+01  0.10199330608E+01 0.  0.
     999903    2    3    3    0    0  0.12559004096E+00  0.31174855971E-01  0.22497560573E-01  0.13306133029E+00  0.21317770840E-01 0.  0.
         14    1    1    2    0    0 -0.15985397015E-01 -0.71930641134E-02 -0.15981829368E-01  0.23721128958E-01  0.00000000000E+00 0. -1.
     999901    1    3    3    0    0 -0.10960464394E+00 -0.23981791858E-01 -0.65157312045E-02  0.88714754075E+00  0.88000000000E+00 0. -1.
        -11    1    4    4    0    0  0.99688864054E-01  0.21325860491E-01  0.93140158423E-02  0.10237027867E+00  0.51100000000E-03 0. -1.
         11    1    4    4    0    0  0.25901176903E-01  0.98489954795E-02  0.13183544731E-01  0.30691051621E-01  0.51100000000E-03 0.  1.
</event>
<event>
 8    1  0.1112958E+005  0.1043930E+01  0.7957747E-01            NaN
         13   -1    0    0    0    0  0.00000000000E+00  0.00000000000E+00  0.74505805969E-08  0.10566000000E+00  0.10566000000E+00 0.  1.
     999900   -1    0    0    0    0 -0.00000000000E+00 -0.00000000000E+00 -0.74505805969E-08  0.93827000000E+00  0.93827000000E+00 0. -1.
     999902    2    1    2    0    0  0.26173357669E-01  0.12277190037E-01 -0.77682059122E-02  0.10139947520E+01  0.10135527801E+01 0.  0.
     999903    2    3    3    0    0 -0.10504711554E+00 -0.52810354657E-01 -0.23091858730E-01  0.12175598613E+00  0.21620734898E-01 0.  0.
         14    1    1    2    0    0 -0.26173357669E-01 -0.12277190037E-01  0.77682059122E-02  0.29935247952E-01  0.00000000000E+00 0. -1.
     999901    1    3    3    0    0  0.13122047321E+00  0.65087544694E-01  0.15323652818E-01  0.89223876591E+00  0.88000000000E+00 0. -1.
        -11    1    4    4    0    0 -0.36946038896E-01 -0.74847221069E-02 -0.87300503759E-02  0.38697619509E-01  0.51100000000E-03 0.  1.
         11    1    4    4    0    0 -0.68101076644E-01 -0.45325632550E-01 -0.14361808355E-01  0.83058366624E-01  0.51100000000E-03 0. -1.
</event>
<event>
 8    1  0.1112958E+005  0.1043930E+01  0.7957747E-01            NaN
         13   -1    0    0    0    0  0.00000000000E+00  0.00000000000E+00  0.74505805969E-08  0.10566000000E+00  0.10566000000E+00 0.  1.
     999900   -1    0    0    0    0 -0.00000000000E+00 -0.00000000000E+00 -0.74505805969E-08  0.93827000000E+00  0.93827000000E+00 0. -1.
     999902    2    1    2    0    0 -0.95895436454E-02 -0.21966117153E-01  0.62549410685E-02  0.10191591716E+01  0.10188580977E+01 0.  0.
     999903    2    3    3    0    0  0.12017127483E+00 -0.35195340854E-01 -0.23671288536E-01  0.12904206609E+00  0.20289839968E-01 0.  0.
         14    1    1    2    0    0  0.95895436454E-02  0.21966117153E-01 -0.62549410685E-02  0.24770828365E-01  0.00000000000E+00 0.  1.
     999901    1    3    3    0    0 -0.12976081848E+00  0.13229223701E-01  0.29926229605E-01  0.89011710555E+00  0.88000000000E+00 0.  1.
        -11    1    4    4    0    0  0.95080347637E-01 -0.19873785866E-01 -0.14313662040E-01  0.98185446545E-01  0.51100000000E-03 0. -1.
         11    1    4    4    0    0  0.25090927197E-01 -0.15321554988E-01 -0.93576264968E-02  0.30856619541E-01  0.51100000000E-03 0.  1.
</event>
<event>
 8    1  0.1112958E+005  0.1043930E+01  0.7957747E-01            NaN
         13   -1    0    0    0    0  0.00000000000E+00  0.00000000000E+00  0.74505805969E-08  0.10566000000E+00  0.10566000000E+00 0.  1.
     999900   -1    0    0    0    0 -0.00000000000E+00 -0.00000000000E+00 -0.74505805969E-08  0.93827000000E+00  0.93827000000E+00 0.  1.
     999902    2    1    2    0    0 -0.17522160502E-01 -0.16006232372E-01  0.23646718304E-03  0.10201964478E+01  0.10199203452E+01 0.  0.
     999903    2    3    3    0    0  0.98481578013E-01  0.53511074941E-02  0.80380017350E-01  0.12871678345E+00  0.19488652926E-01 0.  0.
         14    1    1    2    0    0  0.17522160502E-01  0.16006232372E-01 -0.23646718304E-03  0.23733552202E-01  0.00000000000E+00 0. -1.
     999901    1    3    3    0    0 -0.11600373851E+00 -0.21357339866E-01 -0.80143550167E-01  0.89147966435E+00  0.88000000000E+00 0.  1.
        -11    1    4    4    0    0  0.84311968639E-01  0.20519796165E-02  0.59302829025E-01  0.10310094727E+00  0.51100000000E-03 0.  1.
         11    1    4    4    0    0  0.14169609373E-01  0.32991278776E-02  0.21077188325E-01  0.25615836181E-01  0.51100000000E-03 0. -1.
</event>
<event>
 8    1  0.1112958E+005  0.1043930E+01  0.7957747E-01            NaN
         13   -1    0    0    0    0  0.00000000000E+00  0.00000000000E+00  0.74505805969E-08  0.10566000000E+00  0.10566000000E+00 0.  1.
     999900   -1    0    0    0    0 -0.00000000000E+00 -0.00000000000E+00 -0.74505805969E-08  0.93827000000E+00  0.93827000000E+00 0. -1.
     999902    2    1    2    0    0  0.14030167546E-01  0.18295025760E-01  0.75968994813E-02  0.10196551890E+01  0.10193661942E+01 0.  0.
     999903    2    3    3    0    0  0.86767141756E-01 -0.80252278875E-01 -0.48570041167E-01  0.12939850470E+00  0.20395072090E-01 0.  0.
         14    1    1    2    0    0 -0.14030167546E-01 -0.18295025760E-01 -0.75968994813E-02  0.24274811032E-01  0.00000000000E+00 0. -1.
     999901    1    3    3    0    0 -0.72736974211E-01  0.98547304635E-01  0.56166940648E-01  0.89025668427E+00  0.88000000000E+00 0. -1.
        -11    1    4    4    0    0  0.50160784777E-01 -0.59107130800E-01 -0.34348882788E-01  0.84793066407E-01  0.51100000000E-03 0. -1.
         11    1    4    4    0    0  0.36606356979E-01 -0.21145148076E-01 -0.14221158379E-01  0.44605438290E-01  0.51100000000E-03 0.  1.
</event>
<event>
 8    1  0.1112958E+005  0.1043930E+01  0.7957747E-01            NaN
         13   -1    0    0    0    0  0.00000000000E+00  0.00000000000E+00  0.74505805969E-08  0.10566000000E+00  0.10566000000E+00 0. -1.
     999900   -1    0    0    0    0 -0.00000000000E+00 -0.00000000000E+00 -0.74505805969E-08  0.93827000000E+00  0.93827000000E+00 0.  1.
     999902    2    1    2    0    0 -0.23673333862E-01 -0.14909479043E-02  0.14563502262E-02  0.10201650969E+01  0.10198882558E+01 0.  0.
     999903    2    3    3    0    0  0.11844062273E+00 -0.45510841308E-02 -0.43032367555E-01  0.12764899786E+00  0.19839065467E-01 0.  0.
         14    1    1    2    0    0  0.23673333862E-01  0.14909479043E-02 -0.14563502262E-02  0.23764903067E-01  0.00000000000E+00 0.  1.
     999901    1    3    3    0    0 -0.14211395659E+00  0.30601362265E-02  0.44488717781E-01  0.89251609907E+00  0.88000000000E+00 0.  1.
        -11    1    4    4    0    0  0.42929304637E-01 -0.11232559684E-02 -0.25861545989E-01  0.50132500262E-01  0.51100000000E-03 0. -1.
         11    1    4    4    0    0  0.75511318092E-01 -0.34278281624E-02 -0.17170821566E-01  0.77516497600E-01  0.51100000000E-03 0.  1.
</event>
<event>
 8    1  0.1112958E+005  0.1043930E+01  0.7957747E-01            NaN
         13   -1    0    0    0    0  0.00000000000E+00  0.00000000000E+00  0.74505805969E-08  0.10566000000E+00  0.10566000000E+00 0. -1.
     999900   -1    0    0    0    0 -0.00000000000E+00 -0.00000000000E+00 -0.74505805969E-08  0.93827000000E+00  0.93827000000E+00 0. -1.
     999902    2    1    2    0    0  0.10114241788E-01  0.13209314663E-01 -0.16617642072E-01  0.10204155383E+01  0.10201445686E+01 0.  0.
     999903    2    3    3    0    0 -0.56409843594E-01  0.42120335579E-01  0.10617824576E+00  0.12893355243E+00  0.19845602699E-01 0.  0.
         14    1    1    2    0    0 -0.10114241788E-01 -0.13209314663E-01  0.16617642072E-01  0.23514461696E-01  0.00000000000E+00 0.  1.
     999901    1    3    3    0    0  0.66524085382E-01 -0.28911020916E-01 -0.12279588783E+00  0.89148198587E+00  0.88000000000E+00 0.  1.
        -11    1    4    4    0    0 -0.47387215620E-01  0.28968446545E-01  0.69746458059E-01  0.89160241320E-01  0.51100000000E-03 0. -1.
         11    1    4    4    0    0 -0.90226279737E-02  0.13151889034E-01  0.36431787701E-01  0.39773311112E-01  0.51100000000E-03 0.  1.
</event>
<event>
 7    1  0.1112958E+005  0.1043930E+01  0.7957747E-01            NaN
         13   -1    0    0    0    0  0.00000000000E+00  0.00000000000E+00  0.74505805969E-08  0.10566000000E+00  0.10566000000E+00 0. -1.
     999900   -1    0    0    0    0 -0.00000000000E+00 -0.00000000000E+00 -0.74505805969E-08  0.93827000000E+00  0.93827000000E+00 0.  1.
     999903    2    1    2    0    0 -0.70332240289E-02 -0.68585732335E-01  0.83332122766E-01  0.11125758798E+00  0.26087147760E-01 0.  0.
         14    1    1    2    0    0 -0.34913279406E-01  0.14574387946E-01 -0.30222842866E-01  0.48422826165E-01  0.00000000000E+00 0.  1.
     999901    1    1    2    0    0  0.41946503435E-01  0.54011344388E-01 -0.53109279900E-01  0.88424958585E+00  0.88000000000E+00 0.  1.
        -11    1    3    3    0    0  0.23940636390E-02 -0.62233993100E-01  0.71966317002E-01  0.95174646528E-01  0.51100000000E-03 0.  1.
         11    1    3    3    0    0 -0.94272876678E-02 -0.63517392347E-02  0.11365805764E-01  0.16082941452E-01  0.51100000000E-03 0. -1.
</event>
<event>
 8    1  0.1112958E+005  0.1043930E+01  0.7957747E-01            NaN
         13   -1    0    0    0    0  0.00000000000E+00  0.00000000000E+00  0.74505805969E-08  0.10566000000E+00  0.10566000000E+00 0.  1.
     999900   -1    0    0    0    0 -0.00000000000E+00 -0.00000000000E+00 -0.74505805969E-08  0.93827000000E+00  0.93827000000E+00 0.  1.
     999902    2    1    2    0    0  0.22453291059E-01  0.57373346210E-02 -0.43973358447E-02  0.10203417858E+01  0.10200690937E+01 0.  0.
     999903    2    3    3    0    0  0.49408458381E-01  0.54690888281E-01 -0.10827728419E+00  0.13247125741E+00  0.19808451451E-01 0.  0.
         14    1    1    2    0    0 -0.22453291059E-01 -0.57373346210E-02  0.43973358447E-02  0.23588214228E-01  0.00000000000E+00 0.  1.
     999901    1    3    3    0    0 -0.26955167322E-01 -0.48953553660E-01  0.10387994834E+00  0.88787052836E+00  0.88000000000E+00 0. -1.
        -11    1    4    4    0    0  0.10199269891E-01  0.29438571519E-02 -0.22584279844E-01  0.24960012386E-01  0.51100000000E-03 0.  1.
         11    1    4    4    0    0  0.39209188490E-01  0.51747031129E-01 -0.85693004344E-01  0.10751124503E+00  0.51100000000E-03 0. -1.
</event>
<event>
 8    1  0.1112958E+005  0.1043930E+01  0.7957747E-01            NaN
         13   -1    0    0    0    0  0.00000000000E+00  0.00000000000E+00  0.74505805969E-08  0.10566000000E+00  0.10566000000E+00 0. -1.
     999900   -1    0    0    0    0 -0.00000000000E+00 -0.00000000000E+00 -0.74505805969E-08  0.93827000000E+00  0.93827000000E+00 0. -1.
     999902    2    1    2    0    0  0.83491305355E-02  0.31024002627E-02 -0.22238515656E-01  0.10199741146E+01  0.10196927527E+01 0.  0.
     999903    2    3    3    0    0 -0.55199861195E-01  0.11333389265E+00  0.22947592883E-01  0.12967571478E+00  0.19939987074E-01 0.  0.
         14    1    1    2    0    0 -0.83491305355E-02 -0.31024002627E-02  0.22238515656E-01  0.23955885429E-01  0.00000000000E+00 0. -1.
     999901    1    3    3    0    0  0.63548991731E-01 -0.11023149239E+00 -0.45186108539E-01  0.89029839979E+00  0.88000000000E+00 0.  1.
        -11    1    4    4    0    0 -0.17134283789E-01  0.17444721391E-01  0.46901516371E-02  0.24903024490E-01  0.51100000000E-03 0. -1.
         11    1    4    4    0    0 -0.38065577406E-01  0.95889171263E-01  0.18257441246E-01  0.10477269029E+00  0.51100000000E-03 0.  1.
</event>
<event>
 8    1  0.1112958E+005  0.1043930E+01  0.7957747E-01            NaN
         13   -1    0    0    0    0  0.00000000000E+00  0.00000000000E+00  0.74505805969E-08  0.10566000000E+00  0.10566000000E+00 0. -1.
     999900   -1    0    0    0    0 -0.00000000000E+00 -0.00000000000E+00 -0.74505805969E-08  0.93827000000E+00  0.93827000000E+00 0. -1.
     999902    2    1    2    0    0 -0.23143244263E-01 -0.38886661652E-02 -0.52056402266E-02  0.10198919017E+01  0.10196085822E+01 0.  0.
     999903    2    3    3    0    0 -0.80276020174E-01  0.96495675155E-01  0.33549033787E-01  0.13149835444E+00  0.20263879525E-01 0.  0.
         14    1    1    2    0    0  0.23143244263E-01  0.38886661652E-02  0.52056402266E-02  0.24038098296E-01  0.00000000000E+00 0.  1.
     999901    1    3    3    0    0  0.57132775911E-01 -0.10038434132E+00 -0.38754674013E-01  0.88839354727E+00  0.88000000000E+00 0. -1.
        -11    1    4    4    0    0 -0.78772646046E-01  0.89049196017E-01  0.34572405630E-01  0.12381599827E+00  0.51100000000E-03 0. -1.
         11    1    4    4    0    0 -0.15033741280E-02  0.74464791372E-02 -0.10233718432E-02  0.76823561646E-02  0.51100000000E-03 0.  1.
</event>
<event>
 8    1  0.1112958E+005  0.1043930E+01  0.7957747E-01            NaN
         13   -1    0    0    0    0  0.00000000000E+00  0.00000000000E+00  0.74505805969E-08  0.10566000000E+00  0.10566000000E+00 0.  1.
     999900   -1    0    0    0    0 -0.00000000000E+00 -0.00000000000E+00 -0.74505805969E-08  0.93827000000E+00  0.93827000000E+00 0.  1.
     999902    2    1    2    0    0 -0.83333742137E-02  0.53379278919E-02 -0.20950146246E-01  0.10207600361E+01  0.10204970377E+01 0.  0.
     999903    2    3    3    0    0  0.92164065162E-01 -0.23359928608E-01 -0.89228676918E-01  0.13194888627E+00  0.20220055188E-01 0.  0.
         14    1    1    2    0    0  0.83333742137E-02 -0.53379278919E-02  0.20950146246E-01  0.23169963912E-01  0.00000000000E+00 0.  1.
     999901    1    3    3    0    0 -0.10049743938E+00  0.28697856500E-01  0.68278530672E-01  0.88881114982E+00  0.88000000000E+00 0.  1.
        -11    1    4    4    0    0  0.54418742335E-01 -0.23492609203E-01 -0.50558642460E-01  0.77908533890E-01  0.51100000000E-03 0.  1.
         11    1    4    4    0    0  0.37745322827E-01  0.13268059534E-03 -0.38670034458E-01  0.54040352381E-01  0.51100000000E-03 0. -1.
</event>
<event>
 8    1  0.1112958E+005  0.1043930E+01  0.7957747E-01            NaN
         13   -1    0    0    0    0  0.00000000000E+00  0.00000000000E+00  0.74505805969E-08  0.10566000000E+00  0.10566000000E+00 0.  1.
     999900   -1    0    0    0    0 -0.00000000000E+00 -0.00000000000E+00 -0.74505805969E-08  0.93827000000E+00  0.93827000000E+00 0. -1.
     999902    2    1    2    0    0  0.52877944814E-02 -0.35488201668E-02 -0.22711414457E-01  0.10203426466E+01  0.10200699746E+01 0.  0.
     999903    2    3    3    0    0 -0.42698361834E-01 -0.10213238371E+00 -0.69538463138E-01  0.13230314143E+00  0.20355575931E-01 0.  0.
         14    1    1    2    0    0 -0.52877944814E-02  0.35488201668E-02  0.22711414457E-01  0.23587353427E-01  0.00000000000E+00 0.  1.
     999901    1    3    3    0    0  0.47986156315E-01  0.98583563546E-01  0.46827048680E-01  0.88803950514E+00  0.88000000000E+00 0.  1.
        -11    1    4    4    0    0 -0.44060339147E-01 -0.88702006042E-01 -0.61452552474E-01  0.11655915532E+00  0.51100000000E-03 0.  1.
         11    1    4    4    0    0  0.13619773131E-02 -0.13430377671E-01 -0.80859106641E-02  0.15743986117E-01  0.51100000000E-03 0. -1.
</event>
<event>
 8    1  0.1112958E+005  0.1043930E+01  0.7957747E-01            NaN
         13   -1    0    0    0    0  0.00000000000E+00  0.00000000000E+00  0.74505805969E-08  0.10566000000E+00  0.10566000000E+00 0.  1.
     999900   -1    0    0    0    0 -0.00000000000E+00 -0.00000000000E+00 -0.74505805969E-08  0.93827000000E+00  0.93827000000E+00 0.  1.
     999902    2    1    2    0    0 -0.13568759138E-01  0.17297414266E-01 -0.81872372242E-02  0.10204706177E+01  0.10202009307E+01 0.  0.
     999903    2    3    3    0    0 -0.45854805635E-01 -0.81013306553E-01  0.87265132549E-01  0.12928122058E+00  0.20799317252E-01 0.  0.
         14    1    1    2    0    0  0.13568759138E-01 -0.17297414266E-01  0.81872372242E-02  0.23459382307E-01  0.00000000000E+00 0.  1.
     999901    1    3    3    0    0  0.32286046497E-01  0.98310720819E-01 -0.95452369773E-01  0.89118939711E+00  0.88000000000E+00 0.  1.
        -11    1    4    4    0    0 -0.24778773937E-01 -0.57783358514E-01  0.48461126063E-01  0.79382907601E-01  0.51100000000E-03 0.  1.
         11    1    4    4    0    0 -0.21076031698E-01 -0.23229948039E-01  0.38804006486E-01  0.49898312982E-01  0.51100000000E-03 0. -1.
</event>
<event>
 8    1  0.1112958E+005  0.1043930E+01  0.7957747E-01            NaN
         13   -1    0    0    0    0  0.00000000000E+00  0.00000000000E+00  0.74505805969E-08  0.10566000000E+00  0.10566000000E+00 0. -1.
     999900   -1    0    0    0    0 -0.00000000000E+00 -0.00000000000E+00 -0.74505805969E-08  0.93827000000E+00  0.93827000000E+00 0.  1.
     999902    2    1    2    0    0 -0.23882708126E-02  0.15885358887E-01 -0.17904708401E-01  0.10198753321E+01  0.10195916173E+01 0.  0.
     999903    2    3    3    0    0  0.91057017699E-01  0.28578691302E-01  0.84342884416E-01  0.12895013162E+00  0.20156691784E-01 0.  0.
         14    1    1    2    0    0  0.23882708126E-02 -0.15885358887E-01  0.17904708401E-01  0.24054667892E-01  0.00000000000E+00 0. -1.
     999901    1    3    3    0    0 -0.93445288511E-01 -0.12693332415E-01 -0.10224759282E+00  0.89092520049E+00  0.88000000000E+00 0.  1.
        -11    1    4    4    0    0  0.77599758975E-01  0.16709742667E-01  0.71964691383E-01  0.10714530330E+00  0.51100000000E-03 0. -1.
         11    1    4    4    0    0  0.13457258724E-01  0.11868948635E-01  0.12378193034E-01  0.21804828315E-01  0.51100000000E-03 0.  1.
</event>
<event>
 8    1  0.1112958E+005  0.1043930E+01  0.7957747E-01            NaN
         13   -1    0    0    0    0  0.00000000000E+00  0.00000000000E+00  0.74505805969E-08  0.10566000000E+00  0.10566000000E+00 0. -1.
     999900   -1    0    0    0    0 -0.00000000000E+00 -0.00000000000E+00 -0.74505805969E-08  0.93827000000E+00  0.93827000000E+00 0.  1.
     999902    2    1    2    0    0  0.17652470709E-01  0.11272363806E-01 -0.10441241025E-01  0.10205271065E+01  0.10202587318E+01 0.  0.
     999903    2    3    3    0    0  0.78114240980E-01  0.90106725053E-01 -0.56977024934E-01  0.13371480320E+00  0.20302972226E-01 0.  0.
         14    1    1    2    0    0 -0.17652470709E-01 -0.11272363806E-01  0.10441241025E-01  0.23402893455E-01  0.00000000000E+00 0. -1.
     999901    1    3    3    0    0 -0.60461770271E-01 -0.78834361246E-01  0.46535783909E-01  0.88681230334E+00  0.88000000000E+00 0. -1.
        -11    1    4    4    0    0  0.49671788398E-01  0.66841008097E-01 -0.31681425957E-01  0.89100958456E-01  0.51100000000E-03 0.  1.
         11    1    4    4    0    0  0.28442452582E-01  0.23265716955E-01 -0.25295598977E-01  0.44613844745E-01  0.51100000000E-03 0. -1.
</event>
<event>
 8    1  0.1112958E+005  0.1043930E+01  0.7957747E-01            NaN
         13   -1    0    0    0    0  0.00000000000E+00  0.00000000000E+00  0.74505805969E-08  0.10566000000E+00  0.10566000000E+00 0. -1.
     999900   -1    0    0    0    0 -0.00000000000E+00 -0.00000000000E+00 -0.74505805969E-08  0.93827000000E+00  0.93827000000E+00 0.  1.
     999902    2    1    2    0    0 -0.49979411737E-02  0.15046389288E-01  0.15526362163E-01  0.10217389845E+01  0.10214979742E+01 0.  0.
     999903    2    3    3    0    0 -0.19364442371E-01  0.68705011425E-01  0.11222187932E+00  0.13470140519E+00  0.21339122257E-01 0.  0.
         14    1    1    2    0    0  0.49979411737E-02 -0.15046389288E-01 -0.15526362163E-01  0.22191015493E-01  0.00000000000E+00 0.  1.
     999901    1    3    3    0    0  0.14366501198E-01 -0.53658622137E-01 -0.96695517156E-01  0.88703757932E+00  0.88000000000E+00 0.  1.
        -11    1    4    4    0    0 -0.42639060795E-02  0.11844390555E-01  0.37730213985E-01  0.39778142881E-01  0.51100000000E-03 0. -1.
         11    1    4    4    0    0 -0.15100536292E-01  0.56860620870E-01  0.74491665333E-01  0.94923262308E-01  0.51100000000E-03 0.  1.
</event>
<event>
 8    1  0.1112958E+005  0.1043930E+01  0.7957747E-01            NaN
         13   -1    0    0    0    0  0.00000000000E+00  0.00000000000E+00  0.74505805969E-08  0.10566000000E+00  0.10566000000E+00 0.  1.
     999900   -1    0    0    0    0 -0.00000000000E+00 -0.00000000000E+00 -0.74505805969E-08  0.93827000000E+00  0.93827000000E+00 0. -1.
     999902    2    1    2    0    0 -0.18452119983E-02  0.48291342465E-02 -0.23179716273E-01  0.10201807981E+01  0.10199043270E+01 0.  0.
     999903    2    3    3    0    0  0.89555297860E-01 -0.91000033217E-01 -0.15193415328E-01  0.13023638211E+00  0.20724814460E-01 0.  0.
         14    1    1    2    0    0  0.18452119983E-02 -0.48291342465E-02  0.23179716273E-01  0.23749201910E-01  0.00000000000E+00 0.  1.
     999901    1    3    3    0    0 -0.91400509858E-01  0.95829167463E-01 -0.79863009448E-02  0.88994441598E+00  0.88000000000E+00 0. -1.
        -11    1    4    4    0    0  0.65555031986E-01 -0.66321267891E-01 -0.20282672480E-01  0.95433855194E-01  0.51100000000E-03 0.  1.
         11    1    4    4    0    0  0.24000265874E-01 -0.24678765326E-01  0.50892571525E-02  0.34802526911E-01  0.51100000000E-03 0. -1.
</event>
<event>
 8    1  0.1112958E+005  0.1043930E+01  0.7957747E-01            NaN
         13   -1    0    0    0    0  0.00000000000E+00  0.00000000000E+00  0.74505805969E-08  0.10566000000E+00  0.10566000000E+00 0. -1.
     999900   -1    0    0    0    0 -0.00000000000E+00 -0.00000000000E+00 -0.74505805969E-08  0.93827000000E+00  0.93827000000E+00 0.  1.
     999902    2    1    2    0    0 -0.15756910553E-01 -0.17489142174E-01 -0.14695548029E-02  0.10203437770E+01  0.10200711315E+01 0.  0.
     999903    2    3    3    0    0  0.54482531375E-01 -0.10776664767E+00  0.47879939231E-01  0.13156991388E+00  0.20884374154E-01 0.  0.
         14    1    1    2    0    0  0.15756910553E-01  0.17489142174E-01  0.14695548029E-02  0.23586223001E-01  0.00000000000E+00 0.  1.
     999901    1    3    3    0    0 -0.70239441927E-01  0.90277505492E-01 -0.49349494034E-01  0.88877386312E+00  0.88000000000E+00 0. -1.
        -11    1    4    4    0    0  0.58184415125E-02 -0.31153325869E-01  0.14602068391E-01  0.34897929690E-01  0.51100000000E-03 0. -1.
         11    1    4    4    0    0  0.48664089862E-01 -0.76613321797E-01  0.33277870840E-01  0.96671984192E-01  0.51100000000E-03 0.  1.
</event>
<event>
 8    1  0.1112958E+005  0.1043930E+01  0.7957747E-01            NaN
         13   -1    0    0    0    0  0.00000000000E+00  0.00000000000E+00  0.74505805969E-08  0.10566000000E+00  0.10566000000E+00 0. -1.
     999900   -1    0    0    0    0 -0.00000000000E+00 -0.00000000000E+00 -0.74505805969E-08  0.93827000000E+00  0.93827000000E+00 0.  1.
     999902    2    1    2    0    0 -0.23868261308E-01  0.13557854631E-03  0.32962444725E-04  0.10200613309E+01  0.10197820382E+01 0.  0.
     999903    2    3    3    0    0  0.80771955963E-01 -0.80500974565E-01  0.57308246948E-01  0.12835942610E+00  0.13689095053E-01 0.  0.
         14    1    1    2    0    0  0.23868261308E-01 -0.13557854631E-03 -0.32962444725E-04  0.23868669127E-01  0.00000000000E+00 0.  1.
     999901    1    3    3    0    0 -0.10464021727E+00  0.80636553111E-01 -0.57275284504E-01  0.89170190478E+00  0.88000000000E+00 0. -1.
        -11    1    4    4    0    0  0.36725974857E-01 -0.40619172968E-01  0.20571991108E-01  0.58499422056E-01  0.51100000000E-03 0.  1.
         11    1    4    4    0    0  0.44045981106E-01 -0.39881801597E-01  0.36736255840E-01  0.69860004039E-01  0.51100000000E-03 0. -1.
</event>
<event>
 8    1  0.1112958E+005  0.1043930E+01  0.7957747E-01            NaN
         13   -1    0    0    0    0  0.00000000000E+00  0.00000000000E+00  0.74505805969E-08  0.10566000000E+00  0.10566000000E+00 0.  1.
     999900   -1    0    0    0    0 -0.00000000000E+00 -0.00000000000E+00 -0.74505805969E-08  0.93827000000E+00  0.93827000000E+00 0.  1.
     999902    2    1    2    0    0  0.13553136571E-01 -0.60222852350E-02 -0.12687354235E-01  0.10244127157E+01  0.10242267755E+01 0.  0.
     999903    2    3    3    0    0  0.55134756260E-01 -0.79277083888E-03  0.12009931058E+00  0.13346452566E+00  0.18667227321E-01 0.  0.
         14    1    1    2    0    0 -0.13553136571E-01  0.60222852350E-02  0.12687354235E-01  0.19517284336E-01  0.00000000000E+00 0.  1.
     999901    1    3    3    0    0 -0.41581619689E-01 -0.52295143961E-02 -0.13278666481E+00  0.89094819000E+00  0.88000000000E+00 0.  1.
        -11    1    4    4    0    0  0.32928623156E-01  0.18478035735E-03  0.49561957284E-01  0.59506109750E-01  0.51100000000E-03 0.  1.
         11    1    4    4    0    0  0.22206133104E-01 -0.97755119623E-03  0.70537353292E-01  0.73958415912E-01  0.51100000000E-03 0. -1.
</event>
<event>
 8    1  0.1112958E+005  0.1043930E+01  0.7957747E-01            NaN
         13   -1    0    0    0    0  0.00000000000E+00  0.00000000000E+00  0.74505805969E-08  0.10566000000E+00  0.10566000000E+00 0. -1.
     999900   -1    0    0    0    0 -0.00000000000E+00 -0.00000000000E+00 -0.74505805969E-08  0.93827000000E+00  0.93827000000E+00 0. -1.
     999902    2    1    2    0    0 -0.27502753278E-02  0.22943016796E-01  0.10096323212E-01  0.10187133036E+01  0.10184011553E+01 0.  0.
     999903    2    3    3    0    0 -0.79351255485E-01  0.68459000089E-01  0.77351013870E-01  0.13166053838E+00  0.19184931063E-01 0.  0.
         14    1    1    2    0    0  0.27502753278E-02 -0.22943016796E-01 -0.10096323212E-01  0.25216696383E-01  0.00000000000E+00 0.  1.
     999901    1    3    3    0    0  0.76600980158E-01 -0.45515983293E-01 -0.67254690658E-01  0.88705276524E+00  0.88000000000E+00 0.  1.
        -11    1    4    4    0    0 -0.55246667720E-01  0.43108517398E-01  0.40910697221E-01  0.81144838619E-01  0.51100000000E-03 0. -1.
         11    1    4    4    0    0 -0.24104587766E-01  0.25350482691E-01  0.36440316649E-01  0.50515699762E-01  0.51100000000E-03 0.  1.
</event>
<event>
 8    1  0.1112958E+005  0.1043930E+01  0.7957747E-01            NaN
         13   -1    0    0    0    0  0.00000000000E+00  0.00000000000E+00  0.74505805969E-08  0.10566000000E+00  0.10566000000E+00 0.  1.
     999900   -1    0    0    0    0 -0.00000000000E+00 -0.00000000000E+00 -0.74505805969E-08  0.93827000000E+00  0.93827000000E+00 0.  1.
     999902    2    1    2    0    0  0.50068211696E-02  0.10606104616E-01 -0.20691199553E-01  0.10201458992E+01  0.10198686053E+01 0.  0.
     999903    2    3    3    0    0 -0.50223545766E-01 -0.10127368082E+00 -0.61635410673E-01  0.13040216739E+00  0.20664908277E-01 0.  0.
         14    1    1    2    0    0 -0.50068211696E-02 -0.10606104616E-01  0.20691199553E-01  0.23784100830E-01  0.00000000000E+00 0.  1.
     999901    1    3    3    0    0  0.55230366935E-01  0.11187978544E+00  0.40944211120E-01  0.88974373178E+00  0.88000000000E+00 0. -1.
        -11    1    4    4    0    0  0.17890567821E-02 -0.62085521453E-02 -0.45661837254E-02  0.79283036473E-02  0.51100000000E-03 0.  1.
         11    1    4    4    0    0 -0.52012602548E-01 -0.95065128677E-01 -0.57069226947E-01  0.12247386374E+00  0.51100000000E-03 0. -1.
</event>
<event>
 8    1  0.1112958E+005  0.1043930E+01  0.7957747E-01            NaN
         13   -1    0    0    0    0  0.00000000000E+00  0.00000000000E+00  0.74505805969E-08  0.10566000000E+00  0.10566000000E+00 0.  1.
     999900   -1    0    0    0    0 -0.00000000000E+00 -0.00000000000E+00 -0.74505805969E-08  0.93827000000E+00  0.93827000000E+00 0. -1.
     999902    2    1    2    0    0  0.20655892410E-01 -0.89689172175E-02 -0.75362723644E-02  0.10201833630E+01  0.10199069523E+01 0.  0.
     999903    2    3    3    0    0 -0.86914313587E-01  0.91435108794E-01 -0.83225169176E-02  0.12796537628E+00  0.19783736060E-01 0.  0.
         14    1    1    2    0    0 -0.20655892410E-01  0.89689172175E-02  0.75362723644E-02  0.23746636993E-01  0.00000000000E+00 0. -1.
     999901    1    3    3    0    0  0.10757020600E+00 -0.10040402601E+00  0.78624455319E-03  0.89221798673E+00  0.88000000000E+00 0. -1.
        -11    1    4    4    0    0 -0.44911895521E-01  0.38879526291E-01  0.41085051552E-02  0.59546929892E-01  0.51100000000E-03 0. -1.
         11    1    4    4    0    0 -0.42002418066E-01  0.52555582502E-01 -0.12431022073E-01  0.68418446389E-01  0.51100000000E-03 0.  1.
</event>
<event>
 8    1  0.1112958E+005  0.1043930E+01  0.7957747E-01            NaN
         13   -1    0    0    0    0  0.00000000000E+00  0.00000000000E+00  0.74505805969E-08  0.10566000000E+00  0.10566000000E+00 0. -1.
     999900   -1    0    0    0    0 -0.00000000000E+00 -0.00000000000E+00 -0.74505805969E-08  0.93827000000E+00  0.93827000000E+00 0.  1.
     999902    2    1    2    0    0 -0.22387728545E-01 -0.54643971870E-02  0.14771313840E-02  0.10208377514E+01  0.10205765345E+01 0.  0.
     999903    2    3    3    0    0  0.97589721697E-01 -0.34439049819E-01 -0.74213771373E-01  0.12900635941E+00  0.20619286458E-01 0.  0.
         14    1    1    2    0    0  0.22387728545E-01  0.54643971870E-02 -0.14771313840E-02  0.23092248551E-01  0.00000000000E+00 0.  1.
     999901    1    3    3    0    0 -0.11997745024E+00  0.28974652632E-01  0.75690902757E-01  0.89183139204E+00  0.88000000000E+00 0. -1.
        -11    1    4    4    0    0  0.68069263137E-01 -0.15920600728E-01 -0.42045693700E-01  0.81578131820E-01  0.51100000000E-03 0. -1.
         11    1    4    4    0    0  0.29520458560E-01 -0.18518449091E-01 -0.32168077674E-01  0.47428227592E-01  0.51100000000E-03 0.  1.
</event>
<event>
 8    1  0.1112958E+005  0.1043930E+01  0.7957747E-01            NaN
         13   -1    0    0    0    0  0.00000000000E+00  0.00000000000E+00  0.74505805969E-08  0.10566000000E+00  0.10566000000E+00 0. -1.
     999900   -1    0    0    0    0 -0.00000000000E+00 -0.00000000000E+00 -0.74505805969E-08  0.93827000000E+00  0.93827000000E+00 0.  1.
     999902    2    1    2    0    0  0.58116900003E-02 -0.17850852047E-01  0.13009034240E-01  0.10210900431E+01  0.10208345667E+01 0.  0.
     999903    2    3    3    0    0  0.33111112455E-01  0.43942647371E-01  0.11867646490E+00  0.13219786688E+00  0.19101587910E-01 0.  0.
         14    1    1    2    0    0 -0.58116900003E-02  0.17850852047E-01 -0.13009034240E-01  0.22839956903E-01  0.00000000000E+00 0.  1.
     999901    1    3    3    0    0 -0.27299422455E-01 -0.61793499419E-01 -0.10566743066E+00  0.88889217622E+00  0.88000000000E+00 0.  1.
        -11    1    4    4    0    0  0.11142671596E-01  0.62110157554E-02  0.42703724785E-01  0.44571348179E-01  0.51100000000E-03 0. -1.
         11    1    4    4    0    0  0.21968440859E-01  0.37731631616E-01  0.75972740114E-01  0.87626518701E-01  0.51100000000E-03 0.  1.
</event>
<event>
 8    1  0.1112958E+005  0.1043930E+01  0.7957747E-01            NaN
         13   -1    0    0    0    0  0.00000000000E+00  0.00000000000E+00  0.74505805969E-08  0.10566000000E+00  0.10566000000E+00 0.  1.
     999900   -1    0    0    0    0 -0.00000000000E+00 -0.00000000000E+00 -0.74505805969E-08  0.93827000000E+00  0.93827000000E+00 0. -1.
     999902    2    1    2    0    0  0.74052310538E-02 -0.33524163885E-02 -0.22028933648E-01  0.10204491555E+01  0.10201789690E+01 0.  0.
     999903    2    3    3    0    0 -0.14907702386E-01 -0.53436174736E-01  0.11393741050E+00  0.12832074733E+00  0.20169688261E-01 0.  0.
         14    1    1    2    0    0 -0.74052310538E-02  0.33524163885E-02  0.22028933648E-01  0.23480844539E-01  0.00000000000E+00 0.  1.
     999901    1    3    3    0    0  0.22312933440E-01  0.50083758348E-01 -0.13596634414E+00  0.89212840813E+00  0.88000000000E+00 0. -1.
        -11    1    4    4    0    0 -0.97444696296E-02 -0.18321296415E-01  0.62240704172E-01  0.65610905858E-01  0.51100000000E-03 0. -1.
         11    1    4    4    0    0 -0.51632327565E-02 -0.35114878321E-01  0.51696706325E-01  0.62709841475E-01  0.51100000000E-03 0.  1.
</event>
<event>
 8    1  0.1112958E+005  0.1043930E+01  0.7957747E-01            NaN
         13   -1    0    0    0    0  0.00000000000E+00  0.00000000000E+00  0.74505805969E-08  0.10566000000E+00  0.10566000000E+00 0.  1.
     999900   -1    0    0    0    0 -0.00000000000E+00 -0.00000000000E+00 -0.74505805969E-08  0.93827000000E+00  0.93827000000E+00 0.  1.
     999902    2    1    2    0    0 -0.18850029066E-01 -0.22637645040E-02  0.13936010708E-01  0.10203787661E+01  0.10201069383E+01 0.  0.
     999903    2    3    3    0    0 -0.95827279465E-02 -0.11658602675E+00  0.57071039633E-01  0.13188785827E+00  0.21287867065E-01 0.  0.
         14    1    1    2    0    0  0.18850029066E-01  0.22637645040E-02 -0.13936010708E-01  0.23551233938E-01  0.00000000000E+00 0.  1.
     999901    1    3    3    0    0 -0.92673011196E-02  0.11432226225E+00 -0.43135028925E-01  0.88849090780E+00  0.88000000000E+00 0. -1.
        -11    1    4    4    0    0 -0.15554043844E-01 -0.61306161548E-01  0.28538975140E-01  0.69390978857E-01  0.51100000000E-03 0.  1.
         11    1    4    4    0    0  0.59713158974E-02 -0.55279865205E-01  0.28532064493E-01  0.62496879409E-01  0.51100000000E-03 0. -1.
</event>
<event>
 8    1  0.1112958E+005  0.1043930E+01  0.7957747E-01            NaN
         13   -1    0    0    0    0  0.00000000000E+00  0.00000000000E+00  0.74505805969E-08  0.10566000000E+00  0.10566000000E+00 0. -1.
     999900   -1    0    0    0    0 -0.00000000000E+00 -0.00000000000E+00 -0.74505805969E-08  0.93827000000E+00  0.93827000000E+00 0.  1.
     999902    2    1    2    0    0 -0.15908871590E-01 -0.74123736584E-02 -0.16101326347E-01  0.10201121876E+01  0.10198340978E+01 0.  0.
     999903    2    3    3    0    0  0.12429025137E-01  0.12269349272E+00 -0.35270017689E-01  0.12988861364E+00  0.20467144054E-01 0.  0.
         14    1    1    2    0    0  0.15908871590E-01  0.74123736584E-02  0.16101326347E-01  0.23817812423E-01  0.00000000000E+00 0.  1.
     999901    1    3    3    0    0 -0.28337896727E-01 -0.13010586638E+00  0.19168691343E-01  0.89022357393E+00  0.88000000000E+00 0.  1.
        -11    1    4    4    0    0  0.13065283020E-01  0.36521290092E-01 -0.12490048648E-01  0.40752529818E-01  0.51100000000E-03 0. -1.
         11    1    4    4    0    0 -0.63625788236E-03  0.86172202626E-01 -0.22779969042E-01  0.89136083827E-01  0.51100000000E-03 0.  1.
</event>
<event>
 8    1  0.1112958E+005  0.1043930E+01  0.7957747E-01            NaN
         13   -1    0    0    0    0  0.00000000000E+00  0.00000000000E+00  0.74505805969E-08  0.10566000000E+00  0.10566000000E+00 0. -1.
     999900   -1    0    0    0    0 -0.00000000000E+00 -0.00000000000E+00 -0.74505805969E-08  0.93827000000E+00  0.93827000000E+00 0. -1.
     999902    2    1    2    0    0  0.95745229811E-02 -0.14893447206E-01 -0.13943598756E-01  0.10213931367E+01  0.10211444705E+01 0.  0.
     999903    2    3    3    0    0 -0.34961617662E-01  0.37168606417E-01 -0.12037452373E+00  0.13233663287E+00  0.20472870463E-01 0.  0.
         14    1    1    2    0    0 -0.95745229811E-02  0.14893447206E-01  0.13943598756E-01  0.22536863275E-01  0.00000000000E+00 0.  1.
     999901    1    3    3    0    0  0.44536140643E-01 -0.52062053623E-01  0.10643092497E+00  0.88905650385E+00  0.88000000000E+00 0.  1.
        -11    1    4    4    0    0 -0.28143794234E-01  0.36943916760E-01 -0.90896142409E-01  0.10207495268E+00  0.51100000000E-03 0. -1.
         11    1    4    4    0    0 -0.68178234282E-02  0.22468965680E-03 -0.29478381319E-01  0.30261680190E-01  0.51100000000E-03 0.  1.
</event>
<event>
 8    1  0.1112958E+005  0.1043930E+01  0.7957747E-01            NaN
         13   -1    0    0    0    0  0.00000000000E+00  0.00000000000E+00  0.74505805969E-08  0.10566000000E+00  0.10566000000E+00 0. -1.
     999900   -1    0    0    0    0 -0.00000000000E+00 -0.00000000000E+00 -0.74505805969E-08  0.93827000000E+00  0.93827000000E+00 0. -1.
     999902    2    1    2    0    0  0.14532168202E-01  0.21465656596E-02  0.17565085480E-01  0.10210318803E+01  0.10207750863E+01 0.  0.
     999903    2    3    3    0    0 -0.44643411651E-01  0.11842641166E+00  0.29126854691E-01  0.13133731119E+00  0.19577192434E-01 0.  0.
         14    1    1    2    0    0 -0.14532168202E-01 -0.21465656596E-02 -0.17565085480E-01  0.22898119676E-01  0.00000000000E+00 0.  1.
     999901    1    3    3    0    0  0.59175579852E-01 -0.11627984600E+00 -0.11561769211E-01  0.88969456913E+00  0.88000000000E+00 0. -1.
        -11    1    4    4    0    0 -0.22232658704E-01  0.43667694143E-01  0.32492189842E-02  0.49111884202E-01  0.51100000000E-03 0. -1.
         11    1    4    4    0    0 -0.22410752946E-01  0.74758717519E-01  0.25877635707E-01  0.82225426989E-01  0.51100000000E-03 0.  1.
</event>
<event>
 8    1  0.1112958E+005  0.1043930E+01  0.7957747E-01            NaN
         13   -1    0    0    0    0  0.00000000000E+00  0.00000000000E+00  0.74505805969E-08  0.10566000000E+00  0.10566000000E+00 0. -1.
     999900   -1    0    0    0    0 -0.00000000000E+00 -0.00000000000E+00 -0.74505805969E-08  0.93827000000E+00  0.93827000000E+00 0. -1.
     999902    2    1    2    0    0 -0.95456808723E-02  0.17267899708E-01  0.84068975431E-02  0.10224829417E+01  0.10222579859E+01 0.  0.
     999903    2    3    3    0    0 -0.77077978794E-01 -0.89225588531E-01  0.56181134927E-01  0.13221115620E+00  0.20524362040E-01 0.  0.
         14    1    1    2    0    0  0.95456808723E-02 -0.17267899708E-01 -0.84068975431E-02  0.21447058305E-01  0.00000000000E+00 0.  1.
     999901    1    3    3    0    0  0.67532297922E-01  0.10649348824E+00 -0.47774237384E-01  0.89027178550E+00  0.88000000000E+00 0. -1.
        -11    1    4    4    0    0 -0.24052709247E-01 -0.20113492402E-01  0.68374911603E-02  0.32095136782E-01  0.51100000000E-03 0.  1.
         11    1    4    4    0    0 -0.53025269547E-01 -0.69112096129E-01  0.49343643767E-01  0.10011601941E+00  0.51100000000E-03 0. -1.
</event>
<event>
 8    1  0.1112958E+005  0.1043930E+01  0.7957747E-01            NaN
         13   -1    0    0    0    0  0.00000000000E+00  0.00000000000E+00  0.74505805969E-08  0.10566000000E+00  0.10566000000E+00 0.  1.
     999900   -1    0    0    0    0 -0.00000000000E+00 -0.00000000000E+00 -0.74505805969E-08  0.93827000000E+00  0.93827000000E+00 0.  1.
     999902    2    1    2    0    0 -0.12120029709E-01 -0.16267281474E-01 -0.11227326176E-01  0.10207443920E+01  0.10204810343E+01 0.  0.
     999903    2    3    3    0    0  0.12295110629E+00  0.11001442941E-01  0.31519794367E-01  0.12899604662E+00  0.20210797159E-01 0.  0.
         14    1    1    2    0    0  0.12120029709E-01  0.16267281474E-01  0.11227326176E-01  0.23185608031E-01  0.00000000000E+00 0.  1.
     999901    1    3    3    0    0 -0.13507113600E+00 -0.27268724414E-01 -0.42747120543E-01  0.89174834535E+00  0.88000000000E+00 0. -1.
        -11    1    4    4    0    0  0.82726985019E-01  0.82334364889E-02  0.30824206726E-01  0.88667560969E-01  0.51100000000E-03 0.  1.
         11    1    4    4    0    0  0.40224121275E-01  0.27680064516E-02  0.69558764082E-03  0.40328485655E-01  0.51100000000E-03 0. -1.
</event>
<event>
 8    1  0.1112958E+005  0.1043930E+01  0.7957747E-01            NaN
         13   -1    0    0    0    0  0.00000000000E+00  0.00000000000E+00  0.74505805969E-08  0.10566000000E+00  0.10566000000E+00 0. -1.
     999900   -1    0    0    0    0 -0.00000000000E+00 -0.00000000000E+00 -0.74505805969E-08  0.93827000000E+00  0.93827000000E+00 0. -1.
     999902    2    1    2    0    0 -0.19870766526E-01 -0.11946609741E-01 -0.13166348922E-02  0.10207071153E+01  0.10204429003E+01 0.  0.
     999903    2    3    3    0    0 -0.10464461257E+00  0.44982605597E-01 -0.64604917103E-01  0.13254443470E+00  0.20501270944E-01 0.  0.
         14    1    1    2    0    0  0.19870766526E-01  0.11946609741E-01  0.13166348922E-02  0.23222884706E-01  0.00000000000E+00 0. -1.
     999901    1    3    3    0    0  0.84773846044E-01 -0.56929215338E-01  0.63288282211E-01  0.88816268059E+00  0.88000000000E+00 0.  1.
        -11    1    4    4    0    0 -0.44410217035E-01  0.30201428816E-01 -0.29725293819E-01  0.61386056180E-01  0.51100000000E-03 0.  1.
         11    1    4    4    0    0 -0.60234395535E-01  0.14781176780E-01 -0.34879623284E-01  0.71158378522E-01  0.51100000000E-03 0. -1.
</event>
<event>
 8    1  0.1112958E+005  0.1043930E+01  0.7957747E-01            NaN
         13   -1    0    0    0    0  0.00000000000E+00  0.00000000000E+00  0.74505805969E-08  0.10566000000E+00  0.10566000000E+00 0.  1.
     999900   -1    0    0    0    0 -0.00000000000E+00 -0.00000000000E+00 -0.74505805969E-08  0.93827000000E+00  0.93827000000E+00 0.  1.
     999902    2    1    2    0    0 -0.20449742712E-01 -0.10335090500E-01 -0.92643368446E-02  0.10192149437E+01  0.10189152405E+01 0.  0.
     999903    2    3    3    0    0  0.96059196518E-01 -0.72976730822E-01  0.38074320904E-01  0.12807003034E+00  0.19982649522E-01 0.  0.
         14    1    1    2    0    0  0.20449742712E-01  0.10335090500E-01  0.92643368446E-02  0.24715056338E-01  0.00000000000E+00 0.  1.
     999901    1    3    3    0    0 -0.11650893923E+00  0.62641640322E-01 -0.47338657749E-01  0.89114491332E+00  0.88000000000E+00 0.  1.
        -11    1    4    4    0    0  0.59140253951E-01 -0.40644498803E-01  0.32153631334E-01  0.78636264213E-01  0.51100000000E-03 0.  1.
         11    1    4    4    0    0  0.36918942566E-01 -0.32332232018E-01  0.59206895699E-02  0.49433766127E-01  0.51100000000E-03 0. -1.
</event>
<event>
 8    1  0.1112958E+005  0.1043930E+01  0.7957747E-01            NaN
         13   -1    0    0    0    0  0.00000000000E+00  0.00000000000E+00  0.74505805969E-08  0.10566000000E+00  0.10566000000E+00 0.  1.
     999900   -1    0    0    0    0 -0.00000000000E+00 -0.00000000000E+00 -0.74505805969E-08  0.93827000000E+00  0.93827000000E+00 0.  1.
     999902    2    1    2    0    0 -0.21565610245E-01  0.10089705317E-02 -0.63239544397E-02  0.10214336455E+01  0.10211858823E+01 0.  0.
     999903    2    3    3    0    0  0.50410082119E-02 -0.45635981397E-01  0.12070352551E+00  0.13069258078E+00  0.20078721013E-01 0.  0.
         14    1    1    2    0    0  0.21565610245E-01 -0.10089705317E-02  0.63239544397E-02  0.22496354516E-01  0.00000000000E+00 0.  1.
     999901    1    3    3    0    0 -0.26606618456E-01  0.46644951928E-01 -0.12702747995E+00  0.89074106470E+00  0.88000000000E+00 0.  1.
        -11    1    4    4    0    0 -0.50864116778E-02 -0.19290714657E-01  0.68467638519E-01  0.71316771528E-01  0.51100000000E-03 0.  1.
         11    1    4    4    0    0  0.10127419890E-01 -0.26345266739E-01  0.52235886995E-01  0.59375809253E-01  0.51100000000E-03 0. -1.
</event>
<event>
 8    1  0.1112958E+005  0.1043930E+01  0.7957747E-01            NaN
         13   -1    0    0    0    0  0.00000000000E+00  0.00000000000E+00  0.74505805969E-08  0.10566000000E+00  0.10566000000E+00 0.  1.
     999900   -1    0    0    0    0 -0.00000000000E+00 -0.00000000000E+00 -0.74505805969E-08  0.93827000000E+00  0.93827000000E+00 0.  1.
     999902    2    1    2    0    0 -0.10214400502E-01 -0.20200492276E-01  0.50628963681E-02  0.10207345956E+01  0.10204710127E+01 0.  0.
     999903    2    3    3    0    0 -0.62863175731E-01 -0.86145082355E-01  0.78788751148E-01  0.13362914293E+00  0.16623069961E-01 0.  0.
         14    1    1    2    0    0  0.10214400502E-01  0.20200492276E-01 -0.50628963681E-02  0.23195404404E-01  0.00000000000E+00 0.  1.
     999901    1    3    3    0    0  0.52648775229E-01  0.65944590079E-01 -0.73725854780E-01  0.88710545267E+00  0.88000000000E+00 0.  1.
        -11    1    4    4    0    0 -0.31128746571E-01 -0.32916193936E-01  0.40586478310E-01  0.60827609100E-01  0.51100000000E-03 0.  1.
         11    1    4    4    0    0 -0.31734429160E-01 -0.53228888419E-01  0.38202272838E-01  0.72801533826E-01  0.51100000000E-03 0. -1.
</event>
<event>
 8    1  0.1112958E+005  0.1043930E+01  0.7957747E-01            NaN
         13   -1    0    0    0    0  0.00000000000E+00  0.00000000000E+00  0.74505805969E-08  0.10566000000E+00  0.10566000000E+00 0.  1.
     999900   -1    0    0    0    0 -0.00000000000E+00 -0.00000000000E+00 -0.74505805969E-08  0.93827000000E+00  0.93827000000E+00 0.  1.
     999902    2    1    2    0    0 -0.16970959203E-01 -0.55572402860E-02  0.16789556294E-01  0.10194190723E+01  0.10191243591E+01 0.  0.
     999903    2    3    3    0    0  0.32503791993E-01 -0.69267058624E-01 -0.10058323913E+00  0.12796909330E+00  0.20116633486E-01 0.  0.
         14    1    1    2    0    0  0.16970959203E-01  0.55572402860E-02 -0.16789556294E-01  0.24510927694E-01  0.00000000000E+00 0. -1.
     999901    1    3    3    0    0 -0.49474751196E-01  0.63709818338E-01  0.11737279542E+00  0.89144997900E+00  0.88000000000E+00 0. -1.
        -11    1    4    4    0    0  0.10461626212E-01 -0.40010289230E-01 -0.42535626002E-01  0.59327982164E-01  0.51100000000E-03 0. -1.
         11    1    4    4    0    0  0.22042165781E-01 -0.29256769394E-01 -0.58047613127E-01  0.68641111139E-01  0.51100000000E-03 0.  1.
</event>
<event>
 8    1  0.1112958E+005  0.1043930E+01  0.7957747E-01            NaN
         13   -1    0    0    0    0  0.00000000000E+00  0.00000000000E+00  0.74505805969E-08  0.10566000000E+00  0.10566000000E+00 0.  1.
     999900   -1    0    0    0    0 -0.00000000000E+00 -0.00000000000E+00 -0.74505805969E-08  0.93827000000E+00  0.93827000000E+00 0.  1.
     999902    2    1    2    0    0 -0.89245246569E-02  0.12726404895E-01 -0.17136559070E-01  0.10207940933E+01  0.10205318764E+01 0.  0.
     999903    2    3    3    0    0  0.50018245390E-01  0.31341896915E-01  0.11289483128E+00  0.12909406013E+00  0.20878076027E-01 0.  0.
         14    1    1    2    0    0  0.89245246569E-02 -0.12726404895E-01  0.17136559070E-01  0.23135906696E-01  0.00000000000E+00 0.  1.
     999901    1    3    3    0    0 -0.58942770046E-01 -0.18615492020E-01 -0.13003139035E+00  0.89170003317E+00  0.88000000000E+00 0.  1.
        -11    1    4    4    0    0  0.32591709337E-01  0.11037393826E-01  0.49554364247E-01  0.60331912923E-01  0.51100000000E-03 0.  1.
         11    1    4    4    0    0  0.17426536053E-01  0.20304503089E-01  0.63340467028E-01  0.68762147209E-01  0.51100000000E-03 0. -1.
</event>
<event>
 8    1  0.1112958E+005  0.1043930E+01  0.7957747E-01            NaN
         13   -1    0    0    0    0  0.00000000000E+00  0.00000000000E+00  0.74505805969E-08  0.10566000000E+00  0.10566000000E+00 0. -1.
     999900   -1    0    0    0    0 -0.00000000000E+00 -0.00000000000E+00 -0.74505805969E-08  0.93827000000E+00  0.93827000000E+00 0.  1.
     999902    2    1    2    0    0 -0.44502667462E-02  0.16110927024E-02  0.23964541642E-01  0.10195025615E+01  0.10192098769E+01 0.  0.
     999903    2    3    3    0    0  0.49623901446E-02  0.31191336107E-01  0.12791920515E+00  0.13284019007E+00  0.16901724365E-01 0.  0.
         14    1    1    2    0    0  0.44502667462E-02 -0.16110927024E-02 -0.23964541642E-01  0.24427438464E-01  0.00000000000E+00 0. -1.
     999901    1    3    3    0    0 -0.94126568908E-02 -0.29580243405E-01 -0.10395466351E+00  0.88666237147E+00  0.88000000000E+00 0.  1.
        -11    1    4    4    0    0  0.13853082532E-02  0.96888813703E-02  0.74509164046E-01  0.75150982355E-01  0.51100000000E-03 0. -1.
         11    1    4    4    0    0  0.35770818914E-02  0.21502454737E-01  0.53410041108E-01  0.57689207714E-01  0.51100000000E-03 0.  1.
</event>
<event>
 8    1  0.1112958E+005  0.1043930E+01  0.7957747E-01            NaN
         13   -1    0    0    0    0  0.00000000000E+00  0.00000000000E+00  0.74505805969E-08  0.10566000000E+00  0.10566000000E+00 0.  1.
     999900   -1    0    0    0    0 -0.00000000000E+00 -0.00000000000E+00 -0.74505805969E-08  0.93827000000E+00  0.93827000000E+00 0. -1.
     999902    2    1    2    0    0  0.22741856135E-01 -0.22086799398E-02 -0.28868136018E-02  0.10208994989E+01  0.10206396930E+01 0.  0.
     999903    2    3    3    0    0 -0.22898011404E-01  0.84340684526E-01  0.94358815012E-01  0.13015233934E+00  0.19959345510E-01 0.  0.
         14    1    1    2    0    0 -0.22741856135E-01  0.22086799398E-02  0.28868136018E-02  0.23030501087E-01  0.00000000000E+00 0.  1.
     999901    1    3    3    0    0  0.45639867539E-01 -0.86549364466E-01 -0.97245628614E-01  0.89074715957E+00  0.88000000000E+00 0.  1.
        -11    1    4    4    0    0 -0.16035450161E-01  0.38919202242E-01  0.57451518674E-01  0.71223437743E-01  0.51100000000E-03 0. -1.
         11    1    4    4    0    0 -0.68625612430E-02  0.45421482284E-01  0.36907296339E-01  0.58928901599E-01  0.51100000000E-03 0.  1.
</event>
<event>
 8    1  0.1112958E+005  0.1043930E+01  0.7957747E-01            NaN
         13   -1    0    0    0    0  0.00000000000E+00  0.00000000000E+00  0.74505805969E-08  0.10566000000E+00  0.10566000000E+00 0. -1.
     999900   -1    0    0    0    0 -0.00000000000E+00 -0.00000000000E+00 -0.74505805969E-08  0.93827000000E+00  0.93827000000E+00 0. -1.
     999902    2    1    2    0    0 -0.18724820808E-01  0.10816650355E-01 -0.18607058247E-01  0.10154020934E+01  0.10150012659E+01 0.  0.
     999903    2    3    3    0    0  0.29331843615E-01 -0.11408315463E+00 -0.39798107317E-01  0.12503224616E+00  0.13185219525E-01 0.  0.
         14    1    1    2    0    0  0.18724820808E-01 -0.10816650355E-01  0.18607058247E-01  0.28527906615E-01  0.00000000000E+00 0. -1.
     999901    1    3    3    0    0 -0.48056664423E-01  0.12489980499E+00  0.21191049070E-01  0.89036984722E+00  0.88000000000E+00 0. -1.
        -11    1    4    4    0    0  0.23038482292E-01 -0.76318956635E-01 -0.32298180709E-01  0.86016210137E-01  0.51100000000E-03 0. -1.
         11    1    4    4    0    0  0.62933613236E-02 -0.37764197997E-01 -0.74999266087E-02  0.39016036026E-01  0.51100000000E-03 0.  1.
</event>
<event>
 7    1  0.1152358E+005  0.1043930E+01  0.7957747E-01            NaN
         13   -1    0    0    0    0  0.00000000000E+00  0.00000000000E+00  0.74505805969E-08  0.10566000000E+00  0.10566000000E+00 0. -1.
     999900   -1    0    0    0    0 -0.00000000000E+00 -0.00000000000E+00 -0.74505805969E-08  0.93827000000E+00  0.93827000000E+00 0. -1.
     999903    2    1    2    0    0 -0.57087824874E-02  0.58416538943E-01 -0.71019894736E-01  0.93186338230E-01  0.13956574250E-01 0.  0.
         14    1    1    2    0    0 -0.27348373576E-01  0.43103832793E-01  0.38066277060E-01  0.63678217531E-01  0.00000000000E+00 0. -1.
     999901    1    1    2    0    0  0.33057156063E-01 -0.10152037174E+00  0.32953617676E-01  0.88706544424E+00  0.88000000000E+00 0.  1.
        -11    1    3    3    0    0 -0.45069658306E-02  0.41551859647E-01 -0.40000794720E-01  0.57854943439E-01  0.51100000000E-03 0.  1.
         11    1    3    3    0    0 -0.12018166568E-02  0.16864679296E-01 -0.31019100017E-01  0.35331394791E-01  0.51100000000E-03 0. -1.
</event>
<event>
 8    1  0.1112958E+005  0.1043930E+01  0.7957747E-01            NaN
         13   -1    0    0    0    0  0.00000000000E+00  0.00000000000E+00  0.74505805969E-08  0.10566000000E+00  0.10566000000E+00 0.  1.
     999900   -1    0    0    0    0 -0.00000000000E+00 -0.00000000000E+00 -0.74505805969E-08  0.93827000000E+00  0.93827000000E+00 0. -1.
     999902    2    1    2    0    0 -0.14212465203E-01  0.20911743867E-01  0.43901484784E-02  0.10182674085E+01  0.10179439801E+01 0.  0.
     999903    2    3    3    0    0  0.90502453869E-01  0.89231607574E-01  0.15560633403E-01  0.12935931551E+00  0.18404489963E-01 0.  0.
         14    1    1    2    0    0  0.14212465203E-01 -0.20911743867E-01 -0.43901484784E-02  0.25662591498E-01  0.00000000000E+00 0. -1.
     999901    1    3    3    0    0 -0.10471491907E+00 -0.68319863707E-01 -0.11170484924E-01  0.88890809299E+00  0.88000000000E+00 0.  1.
        -11    1    4    4    0    0  0.30368580650E-01  0.29951421434E-01  0.14024756016E-01  0.44903153998E-01  0.51100000000E-03 0.  1.
         11    1    4    4    0    0  0.60133873219E-01  0.59280186140E-01  0.15358773869E-02  0.84456161513E-01  0.51100000000E-03 0. -1.
</event>
<event>
 8    1  0.1112958E+005  0.1043930E+01  0.7957747E-01            NaN
         13   -1    0    0    0    0  0.00000000000E+00  0.00000000000E+00  0.74505805969E-08  0.10566000000E+00  0.10566000000E+00 0.  1.
     999900   -1    0    0    0    0 -0.00000000000E+00 -0.00000000000E+00 -0.74505805969E-08  0.93827000000E+00  0.93827000000E+00 0.  1.
     999902    2    1    2    0    0 -0.16530340728E-01  0.31809635493E-02 -0.14257967966E-01  0.10218696205E+01  0.10216314702E+01 0.  0.
     999903    2    3    3    0    0  0.31238622336E-01 -0.90170400878E-01  0.86250201052E-01  0.12996253838E+00  0.18563714102E-01 0.  0.
         14    1    1    2    0    0  0.16530340728E-01 -0.31809635493E-02  0.14257967966E-01  0.22060379511E-01  0.00000000000E+00 0.  1.
     999901    1    3    3    0    0 -0.47768963064E-01  0.93351364427E-01 -0.10050816902E+00  0.89190708211E+00  0.88000000000E+00 0. -1.
        -11    1    4    4    0    0  0.21362279691E-01 -0.79775362451E-01  0.69787868392E-01  0.10812521974E+00  0.51100000000E-03 0. -1.
         11    1    4    4    0    0  0.98763426446E-02 -0.10395038427E-01  0.16462332660E-01  0.21837318644E-01  0.51100000000E-03 0.  1.
</event>
<event>
 8    1  0.1112958E+005  0.1043930E+01  0.7957747E-01            NaN
         13   -1    0    0    0    0  0.00000000000E+00  0.00000000000E+00  0.74505805969E-08  0.10566000000E+00  0.10566000000E+00 0. -1.
     999900   -1    0    0    0    0 -0.00000000000E+00 -0.00000000000E+00 -0.74505805969E-08  0.93827000000E+00  0.93827000000E+00 0.  1.
     999902    2    1    2    0    0  0.86327812648E-02 -0.22343763562E-01  0.64770914388E-02  0.10191162660E+01  0.10188141353E+01 0.  0.
     999903    2    3    3    0    0 -0.89648848642E-01  0.10489340579E-01  0.89711463503E-01  0.12913578743E+00  0.21930859156E-01 0.  0.
         14    1    1    2    0    0 -0.86327812648E-02  0.22343763562E-01 -0.64770914388E-02  0.24813734019E-01  0.00000000000E+00 0. -1.
     999901    1    3    3    0    0  0.98281629907E-01 -0.32833104141E-01 -0.83234372064E-01  0.88998047855E+00  0.88000000000E+00 0. -1.
        -11    1    4    4    0    0 -0.80863738492E-01  0.15843436674E-01  0.82159578370E-01  0.11636329373E+00  0.51100000000E-03 0.  1.
         11    1    4    4    0    0 -0.87851101496E-02 -0.53540960947E-02  0.75518851330E-02  0.12772493703E-01  0.51100000000E-03 0. -1.
</event>
<event>
 8    1  0.1112958E+005  0.1043930E+01  0.7957747E-01            NaN
         13   -1    0    0    0    0  0.00000000000E+00  0.00000000000E+00  0.74505805969E-08  0.10566000000E+00  0.10566000000E+00 0. -1.
     999900   -1    0    0    0    0 -0.00000000000E+00 -0.00000000000E+00 -0.74505805969E-08  0.93827000000E+00  0.93827000000E+00 0.  1.
     999902    2    1    2    0    0 -0.16088046764E-01 -0.85773492722E-03 -0.75842309503E-02  0.10261232171E+01  0.10259687009E+01 0.  0.
     999903    2    3    3    0    0  0.31336595321E-01  0.10247668720E-01  0.12873297917E+00  0.13429654760E+00  0.19400666268E-01 0.  0.
         14    1    1    2    0    0  0.16088046764E-01  0.85773492722E-03  0.75842309503E-02  0.17806782892E-01  0.00000000000E+00 0.  1.
     999901    1    3    3    0    0 -0.47424642085E-01 -0.11105403647E-01 -0.13631721012E+00  0.89182666951E+00  0.88000000000E+00 0.  1.
        -11    1    4    4    0    0  0.11711486263E-01 -0.55451460548E-02  0.39465004694E-01  0.41541007110E-01  0.51100000000E-03 0.  1.
         11    1    4    4    0    0  0.19625109058E-01  0.15792814774E-01  0.89267974475E-01  0.92755540492E-01  0.51100000000E-03 0. -1.
</event>
<event>
 8    1  0.1112958E+005  0.1043930E+01  0.7957747E-01            NaN
         13   -1    0    0    0    0  0.00000000000E+00  0.00000000000E+00  0.74505805969E-08  0.10566000000E+00  0.10566000000E+00 0.  1.
     999900   -1    0    0    0    0 -0.00000000000E+00 -0.00000000000E+00 -0.74505805969E-08  0.93827000000E+00  0.93827000000E+00 0.  1.
     999902    2    1    2    0    0  0.12554194603E-01 -0.63585946801E-02  0.20081990823E-01  0.10194080530E+01  0.10191130716E+01 0.  0.
     999903    2    3    3    0    0  0.11212341992E+00  0.63083181982E-01  0.14977686601E-01  0.13106001036E+00  0.20031127675E-01 0.  0.
         14    1    1    2    0    0 -0.12554194603E-01  0.63585946801E-02 -0.20081990823E-01  0.24521946984E-01  0.00000000000E+00 0. -1.
     999901    1    3    3    0    0 -0.99569225314E-01 -0.69441776662E-01  0.51043042228E-02  0.88834804266E+00  0.88000000000E+00 0.  1.
        -11    1    4    4    0    0  0.53761532115E-01  0.28120036815E-01 -0.28072658150E-02  0.60738625834E-01  0.51100000000E-03 0.  1.
         11    1    4    4    0    0  0.58361887802E-01  0.34963145167E-01  0.17784952416E-01  0.70321384523E-01  0.51100000000E-03 0. -1.
</event>
<event>
 8    1  0.1112958E+005  0.1043930E+01  0.7957747E-01            NaN
         13   -1    0    0    0    0  0.00000000000E+00  0.00000000000E+00  0.74505805969E-08  0.10566000000E+00  0.10566000000E+00 0.  1.
     999900   -1    0    0    0    0 -0.00000000000E+00 -0.00000000000E+00 -0.74505805969E-08  0.93827000000E+00  0.93827000000E+00 0.  1.
     999902    2    1    2    0    0  0.15208929736E-02  0.39141578779E-02  0.25451487816E-01  0.10181344194E+01  0.10178075869E+01 0.  0.
     999903    2    3    3    0    0 -0.52637133367E-01  0.99617011934E-01  0.62740659515E-01  0.13050690155E+00  0.20036070467E-01 0.  0.
         14    1    1    2    0    0 -0.15208929736E-02 -0.39141578779E-02 -0.25451487816E-01  0.25795580617E-01  0.00000000000E+00 0. -1.
     999901    1    3    3    0    0  0.54158026340E-01 -0.95702854056E-01 -0.37289171699E-01  0.88762751783E+00  0.88000000000E+00 0.  1.
        -11    1    4    4    0    0 -0.30699531960E-01  0.45260000129E-01  0.21180935037E-01  0.58649995774E-01  0.51100000000E-03 0. -1.
         11    1    4    4    0    0 -0.21937601407E-01  0.54357011805E-01  0.41559724477E-01  0.71856905774E-01  0.51100000000E-03 0.  1.
</event>
<event>
 8    1  0.1112958E+005  0.1043930E+01  0.7957747E-01            NaN
         13   -1    0    0    0    0  0.00000000000E+00  0.00000000000E+00  0.74505805969E-08  0.10566000000E+00  0.10566000000E+00 0.  1.
     999900   -1    0    0    0    0 -0.00000000000E+00 -0.00000000000E+00 -0.74505805969E-08  0.93827000000E+00  0.93827000000E+00 0. -1.
     999902    2    1    2    0    0  0.34188634762E-02  0.10671364793E-01  0.21289733359E-01  0.10198713342E+01  0.10195875239E+01 0.  0.
     999903    2    3    3    0    0  0.82444726094E-01  0.49666694092E-01  0.89815169727E-01  0.13281921729E+00  0.17614380651E-01 0.  0.
         14    1    1    2    0    0 -0.34188634762E-02 -0.10671364793E-01 -0.21289733359E-01  0.24058665809E-01  0.00000000000E+00 0. -1.
     999901    1    3    3    0    0 -0.79025862617E-01 -0.38995329300E-01 -0.68525436367E-01  0.88705211690E+00  0.88000000000E+00 0. -1.
        -11    1    4    4    0    0  0.63880710658E-01  0.29607272109E-01  0.61942161825E-01  0.93778613172E-01  0.51100000000E-03 0.  1.
         11    1    4    4    0    0  0.18564015436E-01  0.20059421983E-01  0.27873007901E-01  0.39040604117E-01  0.51100000000E-03 0. -1.
</event>
<event>
 8    1  0.1112958E+005  0.1043930E+01  0.7957747E-01            NaN
         13   -1    0    0    0    0  0.00000000000E+00  0.00000000000E+00  0.74505805969E-08  0.10566000000E+00  0.10566000000E+00 0. -1.
     999900   -1    0    0    0    0 -0.00000000000E+00 -0.00000000000E+00 -0.74505805969E-08  0.93827000000E+00  0.93827000000E+00 0.  1.
     999902    2    1    2    0    0 -0.19627796493E-01  0.61809156958E-03 -0.12420986473E-01  0.10206939647E+01  0.10204294469E+01 0.  0.
     999903    2    3    3    0    0  0.61921302225E-01  0.10712755924E+00  0.32160814638E-01  0.12941283103E+00  0.20069908336E-01 0.  0.
         14    1    1    2    0    0  0.19627796493E-01 -0.61809156958E-03  0.12420986473E-01  0.23236035319E-01  0.00000000000E+00 0. -1.
     999901    1    3    3    0    0 -0.81549098719E-01 -0.10650946767E+00 -0.44581801111E-01  0.89128113365E+00  0.88000000000E+00 0. -1.
        -11    1    4    4    0    0  0.56649343560E-01  0.89563600665E-01  0.21307200672E-01  0.10809738485E+00  0.51100000000E-03 0.  1.
         11    1    4    4    0    0  0.52719586647E-02  0.17563958573E-01  0.10853613967E-01  0.21315446185E-01  0.51100000000E-03 0. -1.
</event>
<event>
 8    1  0.1112958E+005  0.1043930E+01  0.7957747E-01            NaN
         13   -1    0    0    0    0  0.00000000000E+00  0.00000000000E+00  0.74505805969E-08  0.10566000000E+00  0.10566000000E+00 0. -1.
     999900   -1    0    0    0    0 -0.00000000000E+00 -0.00000000000E+00 -0.74505805969E-08  0.93827000000E+00  0.93827000000E+00 0.  1.
     999902    2    1    2    0    0  0.10148207260E-01 -0.21233850487E-01  0.33679704079E-03  0.10203933063E+01  0.10201218180E+01 0.  0.
     999903    2    3    3    0    0 -0.93384075640E-01 -0.40546364746E-01 -0.79479583332E-01  0.13052670880E+00  0.18858002705E-01 0.  0.
         14    1    1    2    0    0 -0.10148207260E-01  0.21233850487E-01 -0.33679704079E-03  0.23536693679E-01  0.00000000000E+00 0. -1.
     999901    1    3    3    0    0  0.10353228290E+00  0.19312514259E-01  0.79816380373E-01  0.88986659752E+00  0.88000000000E+00 0. -1.
        -11    1    4    4    0    0 -0.61131117947E-01 -0.16801248920E-01 -0.46128716703E-01  0.78405453716E-01  0.51100000000E-03 0. -1.
         11    1    4    4    0    0 -0.32252957693E-01 -0.23745115827E-01 -0.33350866629E-01  0.52121255083E-01  0.51100000000E-03 0.  1.
</event>
<event>
 8    1  0.1112958E+005  0.1043930E+01  0.7957747E-01            NaN
         13   -1    0    0    0    0  0.00000000000E+00  0.00000000000E+00  0.74505805969E-08  0.10566000000E+00  0.10566000000E+00 0. -1.
     999900   -1    0    0    0    0 -0.00000000000E+00 -0.00000000000E+00 -0.74505805969E-08  0.93827000000E+00  0.93827000000E+00 0. -1.
     999902    2    1    2    0    0  0.23947852688E-01 -0.32327039544E-02 -0.21414958880E-02  0.10196702385E+01  0.10193816063E+01 0.  0.
     999903    2    3    3    0    0  0.95771136629E-01  0.63649587268E-01  0.61540207409E-01  0.13192749180E+00  0.19856620896E-01 0.  0.
         14    1    1    2    0    0 -0.23947852688E-01  0.32327039544E-02  0.21414958880E-02  0.24259761496E-01  0.00000000000E+00 0. -1.
     999901    1    3    3    0    0 -0.71823283941E-01 -0.66882291222E-01 -0.63681703297E-01  0.88774274671E+00  0.88000000000E+00 0. -1.
        -11    1    4    4    0    0  0.41072895500E-01  0.17832504786E-01  0.30087549351E-01  0.53949075234E-01  0.51100000000E-03 0. -1.
         11    1    4    4    0    0  0.54698241130E-01  0.45817082482E-01  0.31452658058E-01  0.77978416563E-01  0.51100000000E-03 0.  1.
</event>
<event>
 8    1  0.1112958E+005  0.1043930E+01  0.7957747E-01            NaN
         13   -1    0    0    0    0  0.00000000000E+00  0.00000000000E+00  0.74505805969E-08  0.10566000000E+00  0.10566000000E+00 0. -1.
     999900   -1    0    0    0    0 -0.00000000000E+00 -0.00000000000E+00 -0.74505805969E-08  0.93827000000E+00  0.93827000000E+00 0.  1.
     999902    2    1    2    0    0 -0.15731206481E-01 -0.17041253099E-01 -0.38441197046E-02  0.10204214394E+01  0.10201506073E+01 0.  0.
     999903    2    3    3    0    0 -0.48720395228E-01  0.47622240615E-01  0.10918488853E+00  0.13022752195E+00  0.19907608534E-01 0.  0.
         14    1    1    2    0    0  0.15731206481E-01  0.17041253099E-01  0.38441197046E-02  0.23508560586E-01  0.00000000000E+00 0. -1.
     999901    1    3    3    0    0  0.32989188747E-01 -0.64663493714E-01 -0.11302900823E+00  0.89019391747E+00  0.88000000000E+00 0.  1.
        -11    1    4    4    0    0 -0.16305933479E-01  0.20930929930E-01  0.59660358173E-01  0.65296299686E-01  0.51100000000E-03 0. -1.
         11    1    4    4    0    0 -0.32414461749E-01  0.26691310685E-01  0.49524530354E-01  0.64931222261E-01  0.51100000000E-03 0.  1.
</event>
<event>
 8    1  0.1112958E+005  0.1043930E+01  0.7957747E-01            NaN
         13   -1    0    0    0    0  0.00000000000E+00  0.00000000000E+00  0.74505805969E-08  0.10566000000E+00  0.10566000000E+00 0. -1.
     999900   -1    0    0    0    0 -0.00000000000E+00 -0.00000000000E+00 -0.74505805969E-08  0.93827000000E+00  0.93827000000E+00 0.  1.
     999902    2    1    2    0    0 -0.26099818372E-02 -0.72049712587E-02 -0.22660600733E-01  0.10200087450E+01  0.10197282057E+01 0.  0.
     999903    2    3    3    0    0 -0.10956186554E+00  0.14705137647E-01  0.63625856321E-01  0.12907434169E+00  0.19796278344E-01 0.  0.
         14    1    1    2    0    0  0.26099818372E-02  0.72049712587E-02  0.22660600733E-01  0.23921255017E-01  0.00000000000E+00 0. -1.
     999901    1    3    3    0    0  0.10695188370E+00 -0.21910108905E-01 -0.86286457054E-01  0.89093440329E+00  0.88000000000E+00 0.  1.
        -11    1    4    4    0    0 -0.34144681447E-01  0.13894546233E-01  0.19985386587E-01  0.41935599247E-01  0.51100000000E-03 0.  1.
         11    1    4    4    0    0 -0.75417184093E-01  0.81059141322E-03  0.43640469734E-01  0.87138742443E-01  0.51100000000E-03 0. -1.
</event>
<event>
 8    1  0.1112958E+005  0.1043930E+01  0.7957747E-01            NaN
         13   -1    0    0    0    0  0.00000000000E+00  0.00000000000E+00  0.74505805969E-08  0.10566000000E+00  0.10566000000E+00 0.  1.
     999900   -1    0    0    0    0 -0.00000000000E+00 -0.00000000000E+00 -0.74505805969E-08  0.93827000000E+00  0.93827000000E+00 0.  1.
     999902    2    1    2    0    0 -0.28424812724E-02 -0.23508580980E-02 -0.23230160136E-01  0.10204088059E+01  0.10201376792E+01 0.  0.
     999903    2    3    3    0    0 -0.10854362538E-01 -0.90126562942E-01  0.89077413226E-01  0.12890347462E+00  0.20992991412E-01 0.  0.
         14    1    1    2    0    0  0.28424812724E-02  0.23508580980E-02  0.23230160136E-01  0.23521194135E-01  0.00000000000E+00 0.  1.
     999901    1    3    3    0    0  0.80118812659E-02  0.87775704844E-01 -0.11230757336E+00  0.89150533124E+00  0.88000000000E+00 0.  1.
        -11    1    4    4    0    0 -0.14787189278E-01 -0.68879599149E-01  0.76048698670E-01  0.10366641614E+00  0.51100000000E-03 0.  1.
         11    1    4    4    0    0  0.39328267397E-02 -0.21246963794E-01  0.13028714556E-01  0.25237058477E-01  0.51100000000E-03 0. -1.
</event>
<event>
 8    1  0.1112958E+005  0.1043930E+01  0.7957747E-01            NaN
         13   -1    0    0    0    0  0.00000000000E+00  0.00000000000E+00  0.74505805969E-08  0.10566000000E+00  0.10566000000E+00 0.  1.
     999900   -1    0    0    0    0 -0.00000000000E+00 -0.00000000000E+00 -0.74505805969E-08  0.93827000000E+00  0.93827000000E+00 0. -1.
     999902    2    1    2    0    0  0.17418559462E-01  0.16705060124E-02 -0.18880319008E-01  0.10181877536E+01  0.10178622885E+01 0.  0.
     999903    2    3    3    0    0 -0.38717008690E-01  0.78624142801E-01 -0.93653437214E-01  0.12989496209E+00  0.20517609083E-01 0.  0.
         14    1    1    2    0    0 -0.17418559462E-01 -0.16705060124E-02  0.18880319008E-01  0.25742246404E-01  0.00000000000E+00 0.  1.
     999901    1    3    3    0    0  0.56135568152E-01 -0.76953636789E-01  0.74773118206E-01  0.88829279150E+00  0.88000000000E+00 0.  1.
        -11    1    4    4    0    0 -0.90550199573E-02  0.37742256199E-01 -0.32879896247E-01  0.50870620083E-01  0.51100000000E-03 0. -1.
         11    1    4    4    0    0 -0.29661988732E-01  0.40881886602E-01 -0.60773540967E-01  0.79024342011E-01  0.51100000000E-03 0.  1.
</event>
<event>
 8    1  0.1112958E+005  0.1043930E+01  0.7957747E-01            NaN
         13   -1    0    0    0    0  0.00000000000E+00  0.00000000000E+00  0.74505805969E-08  0.10566000000E+00  0.10566000000E+00 0.  1.
     999900   -1    0    0    0    0 -0.00000000000E+00 -0.00000000000E+00 -0.74505805969E-08  0.93827000000E+00  0.93827000000E+00 0.  1.
     999902    2    1    2    0    0  0.20918471582E-02 -0.23652873103E-02  0.23460304965E-01  0.10202581535E+01  0.10199835015E+01 0.  0.
     999903    2    3    3    0    0 -0.62572636740E-01 -0.71184187111E-01  0.90774172237E-01  0.13264974141E+00  0.19325635514E-01 0.  0.
         14    1    1    2    0    0 -0.20918471582E-02  0.23652873103E-02 -0.23460304965E-01  0.23671846520E-01  0.00000000000E+00 0. -1.
     999901    1    3    3    0    0  0.64664483898E-01  0.68818899801E-01 -0.67313867272E-01  0.88760841207E+00  0.88000000000E+00 0.  1.
        -11    1    4    4    0    0 -0.15422803037E-01 -0.91113509341E-02  0.24366032913E-01  0.30246392351E-01  0.51100000000E-03 0.  1.
         11    1    4    4    0    0 -0.47149833703E-01 -0.62072836177E-01  0.66408139324E-01  0.10240334906E+00  0.51100000000E-03 0. -1.
</event>
<event>
 8    1  0.1112958E+005  0.1043930E+01  0.7957747E-01            NaN
         13   -1    0    0    0    0  0.00000000000E+00  0.00000000000E+00  0.74505805969E-08  0.10566000000E+00  0.10566000000E+00 0.  1.
     999900   -1    0    0    0    0 -0.00000000000E+00 -0.00000000000E+00 -0.74505805969E-08  0.93827000000E+00  0.93827000000E+00 0. -1.
     999902    2    1    2    0    0  0.13709288968E-01 -0.19300113260E-01 -0.76247736385E-02  0.10190588089E+01  0.10187552600E+01 0.  0.
     999903    2    3    3    0    0 -0.73987207530E-01 -0.21240039870E-01 -0.10220712989E+00  0.12965436715E+00  0.20945437401E-01 0.  0.
         14    1    1    2    0    0 -0.13709288968E-01  0.19300113260E-01  0.76247736385E-02  0.24871191143E-01  0.00000000000E+00 0.  1.
     999901    1    3    3    0    0  0.87696496499E-01  0.19399266106E-02  0.94582356256E-01  0.88940444171E+00  0.88000000000E+00 0.  1.
        -11    1    4    4    0    0 -0.89466292260E-02 -0.10075259418E-01 -0.21795902607E-01  0.25629582874E-01  0.51100000000E-03 0. -1.
         11    1    4    4    0    0 -0.65040578304E-01 -0.11164780452E-01 -0.80411227288E-01  0.10402478428E+00  0.51100000000E-03 0.  1.
</event>
<event>
 8    1  0.1112958E+005  0.1043930E+01  0.7957747E-01            NaN
         13   -1    0    0    0    0  0.00000000000E+00  0.00000000000E+00  0.74505805969E-08  0.10566000000E+00  0.10566000000E+00 0.  1.
     999900   -1    0    0    0    0 -0.00000000000E+00 -0.00000000000E+00 -0.74505805969E-08  0.93827000000E+00  0.93827000000E+00 0. -1.
     999902    2    1    2    0    0  0.53859820489E-02  0.22082269955E-01  0.19472119245E-02  0.10211171290E+01  0.10208622650E+01 0.  0.
     999903    2    3    3    0    0  0.19996657187E-01 -0.12279997423E+00  0.26945737682E-01  0.12880033391E+00  0.19589621401E-01 0.  0.
         14    1    1    2    0    0 -0.53859820489E-02 -0.22082269955E-01 -0.19472119245E-02  0.22812871001E-01  0.00000000000E+00 0. -1.
     999901    1    3    3    0    0 -0.14610675138E-01  0.14488224419E+00 -0.24998525757E-01  0.89231679509E+00  0.88000000000E+00 0. -1.
        -11    1    4    4    0    0  0.15502972429E-01 -0.69318671209E-01  0.24258119803E-01  0.75060894144E-01  0.51100000000E-03 0. -1.
         11    1    4    4    0    0  0.44936847576E-02 -0.53481303021E-01  0.26876178787E-02  0.53739439766E-01  0.51100000000E-03 0.  1.
</event>
<event>
 8    1  0.1112958E+005  0.1043930E+01  0.7957747E-01            NaN
         13   -1    0    0    0    0  0.00000000000E+00  0.00000000000E+00  0.74505805969E-08  0.10566000000E+00  0.10566000000E+00 0. -1.
     999900   -1    0    0    0    0 -0.00000000000E+00 -0.00000000000E+00 -0.74505805969E-08  0.93827000000E+00  0.93827000000E+00 0. -1.
     999902    2    1    2    0    0 -0.13067788745E-01 -0.17071746394E-01 -0.85950688424E-02  0.10207764509E+01  0.10205138293E+01 0.  0.
     999903    2    3    3    0    0  0.25423709152E-01  0.77377073841E-01  0.97635299220E-01  0.12853933771E+00  0.18871490178E-01 0.  0.
         14    1    1    2    0    0  0.13067788745E-01  0.17071746394E-01  0.85950688424E-02  0.23153549102E-01  0.00000000000E+00 0. -1.
     999901    1    3    3    0    0 -0.38491497897E-01 -0.94448820234E-01 -0.10623036806E+00  0.89223711319E+00  0.88000000000E+00 0. -1.
        -11    1    4    4    0    0  0.17193137170E-01  0.31547950613E-01  0.53030406075E-01  0.64057491702E-01  0.51100000000E-03 0.  1.
         11    1    4    4    0    0  0.82305719821E-02  0.45829123227E-01  0.44604893145E-01  0.64481846007E-01  0.51100000000E-03 0. -1.
</event>
<event>
 8    1  0.1112958E+005  0.1043930E+01  0.7957747E-01            NaN
         13   -1    0    0    0    0  0.00000000000E+00  0.00000000000E+00  0.74505805969E-08  0.10566000000E+00  0.10566000000E+00 0.  1.
     999900   -1    0    0    0    0 -0.00000000000E+00 -0.00000000000E+00 -0.74505805969E-08  0.93827000000E+00  0.93827000000E+00 0. -1.
     999902    2    1    2    0    0  0.16395610693E-01  0.13357362543E-01  0.14800193775E-01  0.10181175821E+01  0.10177903173E+01 0.  0.
     999903    2    3    3    0    0  0.24058611171E-01  0.12177076412E+00 -0.33617422999E-01  0.13011057036E+00  0.19791251230E-01 0.  0.
         14    1    1    2    0    0 -0.16395610693E-01 -0.13357362543E-01 -0.14800193775E-01  0.25812417940E-01  0.00000000000E+00 0.  1.
     999901    1    3    3    0    0 -0.76630004775E-02 -0.10841340157E+00  0.48417616774E-01  0.88800701170E+00  0.88000000000E+00 0. -1.
        -11    1    4    4    0    0  0.15609963341E-01  0.63093332209E-01 -0.27271566726E-01  0.70487154839E-01  0.51100000000E-03 0. -1.
         11    1    4    4    0    0  0.84486478297E-02  0.58677431907E-01 -0.63458562737E-02  0.59623415519E-01  0.51100000000E-03 0.  1.
</event>
<event>
 8    1  0.1112958E+005  0.1043930E+01  0.7957747E-01            NaN
         13   -1    0    0    0    0  0.00000000000E+00  0.00000000000E+00  0.74505805969E-08  0.10566000000E+00  0.10566000000E+00 0.  1.
     999900   -1    0    0    0    0 -0.00000000000E+00 -0.00000000000E+00 -0.74505805969E-08  0.93827000000E+00  0.93827000000E+00 0. -1.
     999902    2    1    2    0    0  0.81448799089E-02  0.15268013337E-01 -0.19742643110E-01  0.10176769381E+01  0.10173382560E+01 0.  0.
     999903    2    3    3    0    0 -0.12404925378E+00 -0.19619398212E-01 -0.12111675817E-02  0.12692678459E+00  0.18324943955E-01 0.  0.
         14    1    1    2    0    0 -0.81448799089E-02 -0.15268013337E-01  0.19742643110E-01  0.26253061859E-01  0.00000000000E+00 0.  1.
     999901    1    3    3    0    0  0.13219413368E+00  0.34887411549E-01 -0.18531475528E-01  0.89075015355E+00  0.88000000000E+00 0.  1.
        -11    1    4    4    0    0 -0.44850010610E-01 -0.15904861540E-01  0.11576035530E-02  0.47603458271E-01  0.51100000000E-03 0.  1.
         11    1    4    4    0    0 -0.79199243166E-01 -0.37145366718E-02 -0.23687711347E-02  0.79323326320E-01  0.51100000000E-03 0. -1.
</event>
<event>
 8    1  0.1112958E+005  0.1043930E+01  0.7957747E-01            NaN
         13   -1    0    0    0    0  0.00000000000E+00  0.00000000000E+00  0.74505805969E-08  0.10566000000E+00  0.10566000000E+00 0.  1.
     999900   -1    0    0    0    0 -0.00000000000E+00 -0.00000000000E+00 -0.74505805969E-08  0.93827000000E+00  0.93827000000E+00 0.  1.
     999902    2    1    2    0    0 -0.77849871753E-02  0.21702608770E-01  0.20640153657E-02  0.10207811466E+01  0.10205186328E+01 0.  0.
     999903    2    3    3    0    0  0.80397805661E-01  0.30508045101E-01 -0.96596636427E-01  0.13084425849E+00  0.19868614460E-01 0.  0.
         14    1    1    2    0    0  0.77849871753E-02 -0.21702608770E-01 -0.20640153657E-02  0.23148853366E-01  0.00000000000E+00 0.  1.
     999901    1    3    3    0    0 -0.88182792837E-01 -0.88054363314E-02  0.98660651793E-01  0.88993688814E+00  0.88000000000E+00 0. -1.
        -11    1    4    4    0    0  0.20418009350E-01  0.15531443937E-02 -0.32439932960E-01  0.38365580079E-01  0.51100000000E-03 0.  1.
         11    1    4    4    0    0  0.59979796311E-01  0.28954900708E-01 -0.64156703467E-01  0.92478678414E-01  0.51100000000E-03 0. -1.
</event>
<event>
 8    1  0.1112958E+005  0.1043930E+01  0.7957747E-01            NaN
         13   -1    0    0    0    0  0.00000000000E+00  0.00000000000E+00  0.74505805969E-08  0.10566000000E+00  0.10566000000E+00 0.  1.
     999900   -1    0    0    0    0 -0.00000000000E+00 -0.00000000000E+00 -0.74505805969E-08  0.93827000000E+00  0.93827000000E+00 0. -1.
     999902    2    1    2    0    0 -0.95465738469E-02 -0.20537781221E-01  0.73192202632E-02  0.10201285607E+01  0.10198508576E+01 0.  0.
     999903    2    3    3    0    0  0.61587168453E-01 -0.44779187128E-01  0.10663158455E+00  0.13135941135E+00  0.93190776502E-02 0.  0.
         14    1    1    2    0    0  0.95465738469E-02  0.20537781221E-01 -0.73192202632E-02  0.23801439346E-01  0.00000000000E+00 0.  1.
     999901    1    3    3    0    0 -0.71133742300E-01  0.24241405907E-01 -0.99312364289E-01  0.88876914930E+00  0.88000000000E+00 0. -1.
        -11    1    4    4    0    0  0.15731393714E-01 -0.13298882372E-01  0.22577617273E-01  0.30567089218E-01  0.51100000000E-03 0.  1.
         11    1    4    4    0    0  0.45855774739E-01 -0.31480304756E-01  0.84053967279E-01  0.10079232213E+00  0.51100000000E-03 0. -1.
</event>
<event>
 8    1  0.1112958E+005  0.1043930E+01  0.7957747E-01            NaN
         13   -1    0    0    0    0  0.00000000000E+00  0.00000000000E+00  0.74505805969E-08  0.10566000000E+00  0.10566000000E+00 0. -1.
     999900   -1    0    0    0    0 -0.00000000000E+00 -0.00000000000E+00 -0.74505805969E-08  0.93827000000E+00  0.93827000000E+00 0.  1.
     999902    2    1    2    0    0 -0.61728900689E-03  0.24654801715E-01  0.60326365618E-02  0.10185403762E+01  0.10182238776E+01 0.  0.
     999903    2    3    3    0    0 -0.86508053582E-01 -0.25204348011E-01 -0.88607251645E-01  0.12791145981E+00  0.19778625178E-01 0.  0.
         14    1    1    2    0    0  0.61728900689E-03 -0.24654801715E-01 -0.60326365618E-02  0.25389623810E-01  0.00000000000E+00 0.  1.
     999901    1    3    3    0    0  0.85890764575E-01  0.49859149726E-01  0.94639888206E-01  0.89062891638E+00  0.88000000000E+00 0. -1.
        -11    1    4    4    0    0 -0.25551086131E-01 -0.17312301710E-02 -0.15799765504E-01  0.30095662002E-01  0.51100000000E-03 0. -1.
         11    1    4    4    0    0 -0.60956967451E-01 -0.23473117840E-01 -0.72807486140E-01  0.97815797809E-01  0.51100000000E-03 0.  1.
</event>
<event>
 8    1  0.1112958E+005  0.1043930E+01  0.7957747E-01            NaN
         13   -1    0    0    0    0  0.00000000000E+00  0.00000000000E+00  0.74505805969E-08  0.10566000000E+00  0.10566000000E+00 0. -1.
     999900   -1    0    0    0    0 -0.00000000000E+00 -0.00000000000E+00 -0.74505805969E-08  0.93827000000E+00  0.93827000000E+00 0.  1.
     999902    2    1    2    0    0  0.13463667330E-01 -0.16274551272E-01  0.22842216475E-01  0.10128189375E+01  0.10123410008E+01 0.  0.
     999903    2    3    3    0    0 -0.10339480315E+00  0.32260762801E-01  0.53322120644E-01  0.12324566710E+00  0.24799269621E-01 0.  0.
         14    1    1    2    0    0 -0.13463667330E-01  0.16274551272E-01 -0.22842216475E-01  0.31111062511E-01  0.00000000000E+00 0.  1.
     999901    1    3    3    0    0  0.11685847048E+00 -0.48535314073E-01 -0.30479904169E-01  0.88957327039E+00  0.88000000000E+00 0.  1.
        -11    1    4    4    0    0 -0.41217242261E-01  0.13991790567E-02  0.14555569912E-01  0.43737220969E-01  0.51100000000E-03 0.  1.
         11    1    4    4    0    0 -0.62177560888E-01  0.30861583744E-01  0.38766550732E-01  0.79508446129E-01  0.51100000000E-03 0. -1.
</event>
<event>
 8    1  0.1112958E+005  0.1043930E+01  0.7957747E-01            NaN
         13   -1    0    0    0    0  0.00000000000E+00  0.00000000000E+00  0.74505805969E-08  0.10566000000E+00  0.10566000000E+00 0.  1.
     999900   -1    0    0    0    0 -0.00000000000E+00 -0.00000000000E+00 -0.74505805969E-08  0.93827000000E+00  0.93827000000E+00 0.  1.
     999902    2    1    2    0    0  0.17117033286E-01 -0.17152844758E-01  0.79563484188E-02  0.10184247772E+01  0.10181053533E+01 0.  0.
     999903    2    3    3    0    0 -0.42802081138E-01  0.11000996164E+00 -0.39372312357E-01  0.12601193451E+00  0.19865015716E-01 0.  0.
         14    1    1    2    0    0 -0.17117033286E-01  0.17152844758E-01 -0.79563484188E-02  0.25505222837E-01  0.00000000000E+00 0.  1.
     999901    1    3    3    0    0  0.59919114424E-01 -0.12716280639E+00  0.47328660775E-01  0.89241284265E+00  0.88000000000E+00 0. -1.
        -11    1    4    4    0    0 -0.36026890994E-01  0.66276402774E-01 -0.25506084723E-01  0.79632404950E-01  0.51100000000E-03 0.  1.
         11    1    4    4    0    0 -0.67751901444E-02  0.43733558863E-01 -0.13866227633E-01  0.46379529558E-01  0.51100000000E-03 0. -1.
</event>
<event>
 8    1  0.1112958E+005  0.1043930E+01  0.7957747E-01            NaN
         13   -1    0    0    0    0  0.00000000000E+00  0.00000000000E+00  0.74505805969E-08  0.10566000000E+00  0.10566000000E+00 0.  1.
     999900   -1    0    0    0    0 -0.00000000000E+00 -0.00000000000E+00 -0.74505805969E-08  0.93827000000E+00  0.93827000000E+00 0.  1.
     999902    2    1    2    0    0  0.21231768124E-01  0.83787985015E-02  0.11619662468E-01  0.10183173313E+01  0.10179951760E+01 0.  0.
     999903    2    3    3    0    0  0.33325734114E-02 -0.41831746932E-01  0.12125612336E+00  0.12991335022E+00  0.20332978566E-01 0.  0.
         14    1    1    2    0    0 -0.21231768124E-01 -0.83787985015E-02 -0.11619662468E-01  0.25612668699E-01  0.00000000000E+00 0. -1.
     999901    1    3    3    0    0  0.17899194713E-01  0.50210545433E-01 -0.10963646089E+00  0.88840398108E+00  0.88000000000E+00 0.  1.
        -11    1    4    4    0    0  0.89007481138E-02 -0.18494110692E-01  0.37094819609E-01  0.42397431645E-01  0.51100000000E-03 0.  1.
         11    1    4    4    0    0 -0.55681747025E-02 -0.23337636240E-01  0.84161303746E-01  0.87515918575E-01  0.51100000000E-03 0. -1.
</event>
<event>
 8    1  0.1112958E+005  0.1043930E+01  0.7957747E-01            NaN
         13   -1    0    0    0    0  0.00000000000E+00  0.00000000000E+00  0.74505805969E-08  0.10566000000E+00  0.10566000000E+00 0.  1.
     999900   -1    0    0    0    0 -0.00000000000E+00 -0.00000000000E+00 -0.74505805969E-08  0.93827000000E+00  0.93827000000E+00 0.  1.
     999902    2    1    2    0    0 -0.16853503733E-01  0.15359406497E-01 -0.31143553557E-03  0.10211254183E+01  0.10208707415E+01 0.  0.
     999903    2    3    3    0    0 -0.90506461811E-01 -0.47051934910E-01 -0.81758074653E-01  0.13210714579E+00  0.19042347269E-01 0.  0.
         14    1    1    2    0    0  0.16853503733E-01 -0.15359406497E-01  0.31143553557E-03  0.22804581736E-01  0.00000000000E+00 0. -1.
     999901    1    3    3    0    0  0.73652958077E-01  0.62411341407E-01  0.81446639117E-01  0.88901827247E+00  0.88000000000E+00 0. -1.
        -11    1    4    4    0    0 -0.77931884851E-01 -0.34816219097E-01 -0.60948516173E-01  0.10488341400E+00  0.51100000000E-03 0.  1.
         11    1    4    4    0    0 -0.12574576960E-01 -0.12235715813E-01 -0.20809558480E-01  0.27223731785E-01  0.51100000000E-03 0. -1.
</event>
<event>
 8    1  0.1112958E+005  0.1043930E+01  0.7957747E-01            NaN
         13   -1    0    0    0    0  0.00000000000E+00  0.00000000000E+00  0.74505805969E-08  0.10566000000E+00  0.10566000000E+00 0.  1.
     999900   -1    0    0    0    0 -0.00000000000E+00 -0.00000000000E+00 -0.74505805969E-08  0.93827000000E+00  0.93827000000E+00 0. -1.
     999902    2    1    2    0    0  0.19096106071E-01 -0.13029359449E-01 -0.38266566850E-02  0.10204977834E+01  0.10202287278E+01 0.  0.
     999903    2    3    3    0    0 -0.43168065271E-01  0.11740613692E+00 -0.21580090465E-01  0.12853061461E+00  0.20167690499E-01 0.  0.
         14    1    1    2    0    0 -0.19096106071E-01  0.13029359449E-01  0.38266566850E-02  0.23432216628E-01  0.00000000000E+00 0.  1.
     999901    1    3    3    0    0  0.62264171341E-01 -0.13043549637E+00  0.17753433780E-01  0.89196716877E+00  0.88000000000E+00 0.  1.
        -11    1    4    4    0    0 -0.20845641815E-01  0.31020533843E-01 -0.87536953056E-02  0.38388834380E-01  0.51100000000E-03 0.  1.
         11    1    4    4    0    0 -0.22322423456E-01  0.86385603079E-01 -0.12826395160E-01  0.90141780225E-01  0.51100000000E-03 0. -1.
</event>
<event>
 8    1  0.1112958E+005  0.1043930E+01  0.7957747E-01            NaN
         13   -1    0    0    0    0  0.00000000000E+00  0.00000000000E+00  0.74505805969E-08  0.10566000000E+00  0.10566000000E+00 0.  1.
     999900   -1    0    0    0    0 -0.00000000000E+00 -0.00000000000E+00 -0.74505805969E-08  0.93827000000E+00  0.93827000000E+00 0.  1.
     999902    2    1    2    0    0 -0.87579292884E-02  0.11220882661E-01 -0.18016381286E-01  0.10209691741E+01  0.10207109556E+01 0.  0.
     999903    2    3    3    0    0 -0.22202403839E-01 -0.70662438055E-01  0.10343825006E+00  0.12876019653E+00  0.19839096455E-01 0.  0.
         14    1    1    2    0    0  0.87579292884E-02 -0.11220882661E-01  0.18016381286E-01  0.22960825938E-01  0.00000000000E+00 0.  1.
     999901    1    3    3    0    0  0.13444474551E-01  0.81883320716E-01 -0.12145463134E+00  0.89220897753E+00  0.88000000000E+00 0.  1.
        -11    1    4    4    0    0 -0.15185141300E-01 -0.48633402871E-01  0.54353800381E-01  0.74500960584E-01  0.51100000000E-03 0.  1.
         11    1    4    4    0    0 -0.70172625398E-02 -0.22029035184E-01  0.49084449678E-01  0.54259235949E-01  0.51100000000E-03 0. -1.
</event>
<event>
 8    1  0.1112958E+005  0.1043930E+01  0.7957747E-01            NaN
         13   -1    0    0    0    0  0.00000000000E+00  0.00000000000E+00  0.74505805969E-08  0.10566000000E+00  0.10566000000E+00 0.  1.
     999900   -1    0    0    0    0 -0.00000000000E+00 -0.00000000000E+00 -0.74505805969E-08  0.93827000000E+00  0.93827000000E+00 0. -1.
     999902    2    1    2    0    0 -0.21681576518E-01  0.63603131495E-02 -0.44932816369E-02  0.10208923368E+01  0.10206323675E+01 0.  0.
     999903    2    3    3    0    0  0.44319260970E-01 -0.49310572967E-01 -0.11041885632E+00  0.13034442377E+00  0.20040346286E-01 0.  0.
         14    1    1    2    0    0  0.21681576518E-01 -0.63603131495E-02  0.44932816369E-02  0.23037663152E-01  0.00000000000E+00 0.  1.
     999901    1    3    3    0    0 -0.66000837488E-01  0.55670886117E-01  0.10592557468E+00  0.89054791307E+00  0.88000000000E+00 0.  1.
        -11    1    4    4    0    0  0.20710079762E-01 -0.91137089082E-02 -0.37141664567E-01  0.43494039381E-01  0.51100000000E-03 0.  1.
         11    1    4    4    0    0  0.23609181207E-01 -0.40196864059E-01 -0.73277191749E-01  0.86850384392E-01  0.51100000000E-03 0. -1.
</event>
<event>
 8    1  0.1112958E+005  0.1043930E+01  0.7957747E-01            NaN
         13   -1    0    0    0    0  0.00000000000E+00  0.00000000000E+00  0.74505805969E-08  0.10566000000E+00  0.10566000000E+00 0.  1.
     999900   -1    0    0    0    0 -0.00000000000E+00 -0.00000000000E+00 -0.74505805969E-08  0.93827000000E+00  0.93827000000E+00 0. -1.
     999902    2    1    2    0    0  0.14259153092E-01 -0.29235154014E-01  0.10419231234E-01  0.10097747946E+01  0.10091969866E+01 0.  0.
     999903    2    3    3    0    0 -0.25489503357E-01  0.11071294738E+00  0.66578192673E-02  0.11782211928E+00  0.30506617894E-01 0.  0.
         14    1    1    2    0    0 -0.14259153092E-01  0.29235154014E-01 -0.10419231234E-01  0.34155205411E-01  0.00000000000E+00 0. -1.
     999901    1    3    3    0    0  0.39748656449E-01 -0.13994810139E+00  0.37614119664E-02  0.89195267531E+00  0.88000000000E+00 0.  1.
        -11    1    4    4    0    0 -0.23585310819E-01  0.79901131120E-01 -0.79050130797E-02  0.83685171885E-01  0.51100000000E-03 0. -1.
         11    1    4    4    0    0 -0.19041925374E-02  0.30811816259E-01  0.14562832347E-01  0.34136947394E-01  0.51100000000E-03 0.  1.
</event>
<event>
 8    1  0.1112958E+005  0.1043930E+01  0.7957747E-01            NaN
         13   -1    0    0    0    0  0.00000000000E+00  0.00000000000E+00  0.74505805969E-08  0.10566000000E+00  0.10566000000E+00 0.  1.
     999900   -1    0    0    0    0 -0.00000000000E+00 -0.00000000000E+00 -0.74505805969E-08  0.93827000000E+00  0.93827000000E+00 0. -1.
     999902    2    1    2    0    0  0.18579784548E-01  0.67134815105E-03  0.14381997649E-01  0.10204246611E+01  0.10201539040E+01 0.  0.
     999903    2    3    3    0    0 -0.10988390096E-01 -0.11289305775E+00  0.62705081927E-01  0.13132046485E+00  0.21155377207E-01 0.  0.
         14    1    1    2    0    0 -0.18579784548E-01 -0.67134815105E-03 -0.14381997649E-01  0.23505338938E-01  0.00000000000E+00 0.  1.
     999901    1    3    3    0    0  0.29568174645E-01  0.11356440590E+00 -0.48323084278E-01  0.88910419621E+00  0.88000000000E+00 0. -1.
        -11    1    4    4    0    0 -0.13008166500E-01 -0.84803771439E-01  0.37926211017E-01  0.93805920117E-01  0.51100000000E-03 0. -1.
         11    1    4    4    0    0  0.20197764036E-02 -0.28089286313E-01  0.24778870910E-01  0.37514544737E-01  0.51100000000E-03 0.  1.
</event>
<event>
 8    1  0.1112958E+005  0.1043930E+01  0.7957747E-01            NaN
         13   -1    0    0    0    0  0.00000000000E+00  0.00000000000E+00  0.74505805969E-08  0.10566000000E+00  0.10566000000E+00 0. -1.
     999900   -1    0    0    0    0 -0.00000000000E+00 -0.00000000000E+00 -0.74505805969E-08  0.93827000000E+00  0.93827000000E+00 0. -1.
     999902    2    1    2    0    0 -0.33451787577E-02  0.12718056043E-01 -0.20481426434E-01  0.10195901561E+01  0.10192995921E+01 0.  0.
     999903    2    3    3    0    0 -0.12681499430E+00  0.11736186485E-01  0.17013435236E-01  0.13017932639E+00  0.20914568799E-01 0.  0.
         14    1    1    2    0    0  0.33451787577E-02 -0.12718056043E-01  0.20481426434E-01  0.24339843861E-01  0.00000000000E+00 0. -1.
     999901    1    3    3    0    0  0.12346981555E+00  0.98186955814E-03 -0.37494861670E-01  0.88941082975E+00  0.88000000000E+00 0.  1.
        -11    1    4    4    0    0 -0.56104133965E-01 -0.45154344090E-02  0.11193746246E-01  0.57390104302E-01  0.51100000000E-03 0. -1.
         11    1    4    4    0    0 -0.70710860338E-01  0.16251620894E-01  0.58196889906E-02  0.72789222090E-01  0.51100000000E-03 0.  1.
</event>
<event>
 8    1  0.1112958E+005  0.1043930E+01  0.7957747E-01            NaN
         13   -1    0    0    0    0  0.00000000000E+00  0.00000000000E+00  0.74505805969E-08  0.10566000000E+00  0.10566000000E+00 0.  1.
     999900   -1    0    0    0    0 -0.00000000000E+00 -0.00000000000E+00 -0.74505805969E-08  0.93827000000E+00  0.93827000000E+00 0. -1.
     999902    2    1    2    0    0 -0.11039350710E-01 -0.16915144839E-01 -0.11971652868E-01  0.10204500115E+01  0.10201798450E+01 0.  0.
     999903    2    3    3    0    0  0.41586521293E-02 -0.58527995468E-01  0.11481311640E+00  0.13026071343E+00  0.18519749565E-01 0.  0.
         14    1    1    2    0    0  0.11039350710E-01  0.16915144839E-01  0.11971652868E-01  0.23479988531E-01  0.00000000000E+00 0.  1.
     999901    1    3    3    0    0 -0.15198002839E-01  0.41612850629E-01 -0.12678476927E+00  0.89018929804E+00  0.88000000000E+00 0. -1.
        -11    1    4    4    0    0  0.70285486771E-03 -0.53788852424E-01  0.90830319926E-01  0.10556582207E+00  0.51100000000E-03 0. -1.
         11    1    4    4    0    0  0.34557972616E-02 -0.47391430444E-02  0.23982796475E-01  0.24694891360E-01  0.51100000000E-03 0.  1.
</event>
<event>
 8    1  0.1112958E+005  0.1043930E+01  0.7957747E-01            NaN
         13   -1    0    0    0    0  0.00000000000E+00  0.00000000000E+00  0.74505805969E-08  0.10566000000E+00  0.10566000000E+00 0.  1.
     999900   -1    0    0    0    0 -0.00000000000E+00 -0.00000000000E+00 -0.74505805969E-08  0.93827000000E+00  0.93827000000E+00 0. -1.
     999902    2    1    2    0    0  0.55407769090E-02 -0.13192004505E-01 -0.18849753142E-01  0.10202647853E+01  0.10199902891E+01 0.  0.
     999903    2    3    3    0    0  0.58027153342E-01  0.66330847215E-01 -0.96028262738E-01  0.13176311060E+00  0.19317304530E-01 0.  0.
         14    1    1    2    0    0 -0.55407769090E-02  0.13192004505E-01  0.18849753142E-01  0.23665214665E-01  0.00000000000E+00 0.  1.
     999901    1    3    3    0    0 -0.52486376433E-01 -0.79522851720E-01  0.77178509596E-01  0.88850167473E+00  0.88000000000E+00 0.  1.
        -11    1    4    4    0    0  0.38473671769E-01  0.42043070188E-01 -0.74802814277E-01  0.94040232427E-01  0.51100000000E-03 0.  1.
         11    1    4    4    0    0  0.19553481573E-01  0.24287777027E-01 -0.21225448461E-01  0.37722878177E-01  0.51100000000E-03 0. -1.
</event>
<event>
 8    1  0.1112958E+005  0.1043930E+01  0.7957747E-01            NaN
         13   -1    0    0    0    0  0.00000000000E+00  0.00000000000E+00  0.74505805969E-08  0.10566000000E+00  0.10566000000E+00 0.  1.
     999900   -1    0    0    0    0 -0.00000000000E+00 -0.00000000000E+00 -0.74505805969E-08  0.93827000000E+00  0.93827000000E+00 0. -1.
     999902    2    1    2    0    0  0.20228021599E-02  0.22461597973E-01 -0.61904654404E-02  0.10205433163E+01  0.10202753175E+01 0.  0.
     999903    2    3    3    0    0  0.34115465047E-01 -0.79026661065E-01  0.93252930767E-01  0.12856865591E+00  0.20608543634E-01 0.  0.
         14    1    1    2    0    0 -0.20228021599E-02 -0.22461597973E-01  0.61904654404E-02  0.23386683699E-01  0.00000000000E+00 0.  1.
     999901    1    3    3    0    0 -0.32092662887E-01  0.10148825904E+00 -0.99443396208E-01  0.89197466039E+00  0.88000000000E+00 0. -1.
        -11    1    4    4    0    0  0.68291296076E-02 -0.23546939428E-01  0.14660320390E-01  0.28570640220E-01  0.51100000000E-03 0.  1.
         11    1    4    4    0    0  0.27286335439E-01 -0.55479721638E-01  0.78592610377E-01  0.99998015688E-01  0.51100000000E-03 0. -1.
</event>
<event>
 8    1  0.1112958E+005  0.1043930E+01  0.7957747E-01            NaN
         13   -1    0    0    0    0  0.00000000000E+00  0.00000000000E+00  0.74505805969E-08  0.10566000000E+00  0.10566000000E+00 0.  1.
     999900   -1    0    0    0    0 -0.00000000000E+00 -0.00000000000E+00 -0.74505805969E-08  0.93827000000E+00  0.93827000000E+00 0. -1.
     999902    2    1    2    0    0  0.86059921201E-02 -0.27176459052E-02  0.12859450853E-01  0.10282196793E+01  0.10280996522E+01 0.  0.
     999903    2    3    3    0    0 -0.66613048692E-01 -0.11840888664E+00  0.98075806927E-02  0.13746063154E+00  0.18473599948E-01 0.  0.
         14    1    1    2    0    0 -0.86059921201E-02  0.27176459052E-02 -0.12859450853E-01  0.15710320681E-01  0.00000000000E+00 0. -1.
     999901    1    3    3    0    0  0.75219040812E-01  0.11569124073E+00  0.30518701606E-02  0.89075904778E+00  0.88000000000E+00 0. -1.
        -11    1    4    4    0    0 -0.30228796952E-01 -0.58337027891E-01  0.13703070843E-01  0.67119477499E-01  0.51100000000E-03 0.  1.
         11    1    4    4    0    0 -0.36384251740E-01 -0.60071858745E-01 -0.38954901504E-02  0.70341154045E-01  0.51100000000E-03 0. -1.
</event>
<event>
 8    1  0.1112958E+005  0.1043930E+01  0.7957747E-01            NaN
         13   -1    0    0    0    0  0.00000000000E+00  0.00000000000E+00  0.74505805969E-08  0.10566000000E+00  0.10566000000E+00 0.  1.
     999900   -1    0    0    0    0 -0.00000000000E+00 -0.00000000000E+00 -0.74505805969E-08  0.93827000000E+00  0.93827000000E+00 0.  1.
     999902    2    1    2    0    0 -0.17044332173E-01 -0.15418739268E-01  0.39382045974E-02  0.10206114187E+01  0.10203449964E+01 0.  0.
     999903    2    3    3    0    0 -0.17072451536E-01 -0.79029539296E-01  0.10209038504E+00  0.13287261407E+00  0.26373247200E-01 0.  0.
         14    1    1    2    0    0  0.17044332173E-01  0.15418739268E-01 -0.39382045974E-02  0.23318581331E-01  0.00000000000E+00 0.  1.
     999901    1    3    3    0    0  0.28119363059E-04  0.63610800028E-01 -0.98152180446E-01  0.88773880460E+00  0.88000000000E+00 0.  1.
        -11    1    4    4    0    0  0.12089746411E-02 -0.43412549691E-01  0.40329043619E-01  0.59268912345E-01  0.51100000000E-03 0. -1.
         11    1    4    4    0    0 -0.18281426177E-01 -0.35616989604E-01  0.61761341424E-01  0.73603701721E-01  0.51100000000E-03 0.  1.
</event>
<event>
 8    1  0.1112958E+005  0.1043930E+01  0.7957747E-01            NaN
         13   -1    0    0    0    0  0.00000000000E+00  0.00000000000E+00  0.74505805969E-08  0.10566000000E+00  0.10566000000E+00 0.  1.
     999900   -1    0    0    0    0 -0.00000000000E+00 -0.00000000000E+00 -0.74505805969E-08  0.93827000000E+00  0.93827000000E+00 0. -1.
     999902    2    1    2    0    0 -0.10755495689E-01  0.19204336572E-01  0.99689087710E-02  0.10197666730E+01  0.10194803583E+01 0.  0.
     999903    2    3    3    0    0 -0.67389946434E-01  0.26180002046E-01  0.10908438306E+00  0.13236597534E+00  0.19863318277E-01 0.  0.
         14    1    1    2    0    0  0.10755495689E-01 -0.19204336572E-01 -0.99689087710E-02  0.24163327022E-01  0.00000000000E+00 0.  1.
     999901    1    3    3    0    0  0.56634450745E-01 -0.69756654745E-02 -0.99115474291E-01  0.88740069764E+00  0.88000000000E+00 0. -1.
        -11    1    4    4    0    0 -0.42527740971E-01  0.85924151073E-02  0.52546492041E-01  0.68145677018E-01  0.51100000000E-03 0.  1.
         11    1    4    4    0    0 -0.24862205464E-01  0.17587586939E-01  0.56537891020E-01  0.64220298324E-01  0.51100000000E-03 0. -1.
</event>
<event>
 7    1  0.1112958E+005  0.1043930E+01  0.7957747E-01            NaN
         13   -1    0    0    0    0  0.00000000000E+00  0.00000000000E+00  0.74505805969E-08  0.10566000000E+00  0.10566000000E+00 0. -1.
     999900   -1    0    0    0    0 -0.00000000000E+00 -0.00000000000E+00 -0.74505805969E-08  0.93827000000E+00  0.93827000000E+00 0.  1.
     999903    2    1    2    0    0  0.10544010301E+00  0.18722348514E-01 -0.77022705747E-02  0.10924109155E+00  0.20153149994E-01 0.  0.
         14    1    1    2    0    0  0.25999253348E-01  0.14655416225E-01 -0.31558541572E-01  0.43435975246E-01  0.00000000000E+00 0.  1.
     999901    1    1    2    0    0 -0.13143935635E+00 -0.33377764740E-01  0.39260812147E-01  0.89125293321E+00  0.88000000000E+00 0. -1.
        -11    1    3    3    0    0  0.57225693457E-01  0.10752876553E-02 -0.86461279842E-02  0.57887415604E-01  0.51100000000E-03 0. -1.
         11    1    3    3    0    0  0.48214409549E-01  0.17647060859E-01  0.94385740950E-03  0.51353675944E-01  0.51100000000E-03 0.  1.
</event>
<event>
 8    1  0.1112958E+005  0.1043930E+01  0.7957747E-01            NaN
         13   -1    0    0    0    0  0.00000000000E+00  0.00000000000E+00  0.74505805969E-08  0.10566000000E+00  0.10566000000E+00 0.  1.
     999900   -1    0    0    0    0 -0.00000000000E+00 -0.00000000000E+00 -0.74505805969E-08  0.93827000000E+00  0.93827000000E+00 0. -1.
     999902    2    1    2    0    0 -0.79555572601E-02 -0.21966840166E-01 -0.15677249075E-02  0.10205143915E+01  0.10202457217E+01 0.  0.
     999903    2    3    3    0    0  0.96822792059E-01  0.10494896441E-01 -0.83682796090E-01  0.12991057853E+00  0.19726939433E-01 0.  0.
         14    1    1    2    0    0  0.79555572601E-02  0.21966840166E-01  0.15677249075E-02  0.23415608461E-01  0.00000000000E+00 0.  1.
     999901    1    3    3    0    0 -0.10477834932E+00 -0.32461736608E-01  0.82115071182E-01  0.89060381301E+00  0.88000000000E+00 0.  1.
        -11    1    4    4    0    0  0.50251735788E-01  0.60948180536E-02 -0.56267587483E-01  0.75688085449E-01  0.51100000000E-03 0.  1.
         11    1    4    4    0    0  0.46571056271E-01  0.44000783877E-02 -0.27415208607E-01  0.54222493081E-01  0.51100000000E-03 0. -1.
</event>
<event>
 7    1  0.1351553E+005  0.1043930E+01  0.7957747E-01            NaN
         13   -1    0    0    0    0  0.00000000000E+00  0.00000000000E+00  0.74505805969E-08  0.10566000000E+00  0.10566000000E+00 0.  1.
     999900   -1    0    0    0    0 -0.00000000000E+00 -0.00000000000E+00 -0.74505805969E-08  0.93827000000E+00  0.93827000000E+00 0. -1.
     999903    2    1    2    0    0 -0.48561361316E-01  0.38486115188E-02  0.91635599554E-01  0.10569027005E+00  0.20008309618E-01 0.  0.
         14    1    1    2    0    0  0.36578474073E-01 -0.38196347384E-01 -0.17755384531E-02  0.52915954643E-01  0.00000000000E+00 0.  1.
     999901    1    1    2    0    0  0.11982887242E-01  0.34347735865E-01 -0.89860061101E-01  0.88532377531E+00  0.88000000000E+00 0. -1.
        -11    1    3    3    0    0 -0.24589997520E-01  0.11959762248E-01  0.47125947079E-01  0.54486878238E-01  0.51100000000E-03 0.  1.
         11    1    3    3    0    0 -0.23971363796E-01 -0.81111507293E-02  0.44509652475E-01  0.51203391810E-01  0.51100000000E-03 0. -1.
</event>
<event>
 8    1  0.1112958E+005  0.1043930E+01  0.7957747E-01            NaN
         13   -1    0    0    0    0  0.00000000000E+00  0.00000000000E+00  0.74505805969E-08  0.10566000000E+00  0.10566000000E+00 0.  1.
     999900   -1    0    0    0    0 -0.00000000000E+00 -0.00000000000E+00 -0.74505805969E-08  0.93827000000E+00  0.93827000000E+00 0.  1.
     999902    2    1    2    0    0  0.21164453110E-01 -0.48406849315E-02 -0.56614613890E-02  0.10214930115E+01  0.10212465687E+01 0.  0.
     999903    2    3    3    0    0  0.21487968323E-02  0.12862674063E+00 -0.16175101403E-01  0.13116403555E+00  0.19822073125E-01 0.  0.
         14    1    1    2    0    0 -0.21164453110E-01  0.48406849315E-02  0.56614613890E-02  0.22436988459E-01  0.00000000000E+00 0. -1.
     999901    1    3    3    0    0  0.19015656278E-01 -0.13346742556E+00  0.10513640014E-01  0.89032897599E+00  0.88000000000E+00 0. -1.
        -11    1    4    4    0    0  0.96338168450E-02  0.64943039639E-01 -0.31550331965E-02  0.65731455027E-01  0.51100000000E-03 0. -1.
         11    1    4    4    0    0 -0.74850200127E-02  0.63683700989E-01 -0.13020068207E-01  0.65432580519E-01  0.51100000000E-03 0.  1.
</event>
<event>
 8    1  0.1112958E+005  0.1043930E+01  0.7957747E-01            NaN
         13   -1    0    0    0    0  0.00000000000E+00  0.00000000000E+00  0.74505805969E-08  0.10566000000E+00  0.10566000000E+00 0.  1.
     999900   -1    0    0    0    0 -0.00000000000E+00 -0.00000000000E+00 -0.74505805969E-08  0.93827000000E+00  0.93827000000E+00 0. -1.
     999902    2    1    2    0    0  0.44510459476E-02 -0.19706091244E-01  0.12317253632E-01  0.10202687114E+01  0.10199943073E+01 0.  0.
     999903    2    3    3    0    0 -0.71134264137E-01  0.92026054821E-01  0.52406380239E-01  0.12908727663E+00  0.19703248422E-01 0.  0.
         14    1    1    2    0    0 -0.44510459476E-02  0.19706091244E-01 -0.12317253632E-01  0.23661288621E-01  0.00000000000E+00 0. -1.
     999901    1    3    3    0    0  0.75585310085E-01 -0.11173214607E+00 -0.40089126607E-01  0.89118143475E+00  0.88000000000E+00 0.  1.
        -11    1    4    4    0    0 -0.33480305983E-01  0.57698289210E-01  0.34287581504E-01  0.75006151967E-01  0.51100000000E-03 0.  1.
         11    1    4    4    0    0 -0.37653958154E-01  0.34327765612E-01  0.18118798735E-01  0.54081124666E-01  0.51100000000E-03 0. -1.
</event>
<event>
 8    1  0.1112958E+005  0.1043930E+01  0.7957747E-01            NaN
         13   -1    0    0    0    0  0.00000000000E+00  0.00000000000E+00  0.74505805969E-08  0.10566000000E+00  0.10566000000E+00 0. -1.
     999900   -1    0    0    0    0 -0.00000000000E+00 -0.00000000000E+00 -0.74505805969E-08  0.93827000000E+00  0.93827000000E+00 0.  1.
     999902    2    1    2    0    0 -0.72320967777E-02  0.10858431182E-01 -0.21172270048E-01  0.10190608671E+01  0.10187573691E+01 0.  0.
     999903    2    3    3    0    0 -0.64490464885E-01  0.51351734177E-01  0.96409873057E-01  0.12847466203E+00  0.20367977244E-01 0.  0.
         14    1    1    2    0    0  0.72320967777E-02 -0.10858431182E-01  0.21172270048E-01  0.24869132886E-01  0.00000000000E+00 0. -1.
     999901    1    3    3    0    0  0.57258368108E-01 -0.40493302995E-01 -0.11758214311E+00  0.89058620508E+00  0.88000000000E+00 0.  1.
        -11    1    4    4    0    0 -0.53858715828E-01  0.36705319239E-01  0.84845756926E-01  0.10699114599E+00  0.51100000000E-03 0. -1.
         11    1    4    4    0    0 -0.10631749058E-01  0.14646414938E-01  0.11564116131E-01  0.21483516040E-01  0.51100000000E-03 0.  1.
</event>
<event>
 8    1  0.1112958E+005  0.1043930E+01  0.7957747E-01            NaN
         13   -1    0    0    0    0  0.00000000000E+00  0.00000000000E+00  0.74505805969E-08  0.10566000000E+00  0.10566000000E+00 0. -1.
     999900   -1    0    0    0    0 -0.00000000000E+00 -0.00000000000E+00 -0.74505805969E-08  0.93827000000E+00  0.93827000000E+00 0.  1.
     999902    2    1    2    0    0  0.69992609681E-02 -0.12679003718E-01  0.19141125096E-01  0.10199273031E+01  0.10196448274E+01 0.  0.
     999903    2    3    3    0    0  0.12459902002E+00 -0.37019987320E-01  0.82482716607E-02  0.13170388464E+00  0.19557197975E-01 0.  0.
         14    1    1    2    0    0 -0.69992609681E-02  0.12679003718E-01 -0.19141125096E-01  0.24002696918E-01  0.00000000000E+00 0.  1.
     999901    1    3    3    0    0 -0.11759975905E+00  0.24340983601E-01  0.10892853435E-01  0.88822341844E+00  0.88000000000E+00 0. -1.
        -11    1    4    4    0    0  0.69517407342E-01 -0.14660518004E-01 -0.33782809142E-02  0.71128578045E-01  0.51100000000E-03 0.  1.
         11    1    4    4    0    0  0.55081612679E-01 -0.22359469316E-01  0.11626552575E-01  0.60575306596E-01  0.51100000000E-03 0. -1.
</event>
<event>
 8    1  0.1112958E+005  0.1043930E+01  0.7957747E-01            NaN
         13   -1    0    0    0    0  0.00000000000E+00  0.00000000000E+00  0.74505805969E-08  0.10566000000E+00  0.10566000000E+00 0.  1.
     999900   -1    0    0    0    0 -0.00000000000E+00 -0.00000000000E+00 -0.74505805969E-08  0.93827000000E+00  0.93827000000E+00 0. -1.
     999902    2    1    2    0    0 -0.69983422672E-02  0.18132478014E-01  0.14747397076E-01  0.10195322691E+01  0.10192403046E+01 0.  0.
     999903    2    3    3    0    0  0.76432855380E-03 -0.11392595169E-01  0.12783696908E+00  0.13177034137E+00  0.29845548727E-01 0.  0.
         14    1    1    2    0    0  0.69983422672E-02 -0.18132478014E-01 -0.14747397076E-01  0.24397730918E-01  0.00000000000E+00 0.  1.
     999901    1    3    3    0    0 -0.77626708210E-02  0.29525073183E-01 -0.11308957200E+00  0.88776192771E+00  0.88000000000E+00 0. -1.
        -11    1    4    4    0    0 -0.13746724041E-01 -0.99630172168E-02  0.58553179010E-01  0.60966958486E-01  0.51100000000E-03 0.  1.
         11    1    4    4    0    0  0.14511052595E-01 -0.14295779524E-02  0.69283790066E-01  0.70803382881E-01  0.51100000000E-03 0. -1.
</event>
<event>
 8    1  0.1112958E+005  0.1043930E+01  0.7957747E-01            NaN
         13   -1    0    0    0    0  0.00000000000E+00  0.00000000000E+00  0.74505805969E-08  0.10566000000E+00  0.10566000000E+00 0.  1.
     999900   -1    0    0    0    0 -0.00000000000E+00 -0.00000000000E+00 -0.74505805969E-08  0.93827000000E+00  0.93827000000E+00 0. -1.
     999902    2    1    2    0    0 -0.91945718533E-02  0.16097457761E-01 -0.16970389087E-01  0.10187971051E+01  0.10184870539E+01 0.  0.
     999903    2    3    3    0    0  0.50060928892E-01  0.47950947142E-01 -0.10984470779E+00  0.13135612219E+00  0.19575011460E-01 0.  0.
         14    1    1    2    0    0  0.91945718533E-02 -0.16097457761E-01  0.16970389087E-01  0.25132894853E-01  0.00000000000E+00 0.  1.
     999901    1    3    3    0    0 -0.59255500745E-01 -0.31853489381E-01  0.92874318707E-01  0.88744098296E+00  0.88000000000E+00 0.  1.
        -11    1    4    4    0    0  0.11256594838E-01  0.22933451384E-01 -0.33464011947E-01  0.42104101182E-01  0.51100000000E-03 0. -1.
         11    1    4    4    0    0  0.38804334054E-01  0.25017495757E-01 -0.76380695847E-01  0.89252021010E-01  0.51100000000E-03 0.  1.
</event>
<event>
 8    1  0.1112958E+005  0.1043930E+01  0.7957747E-01            NaN
         13   -1    0    0    0    0  0.00000000000E+00  0.00000000000E+00  0.74505805969E-08  0.10566000000E+00  0.10566000000E+00 0. -1.
     999900   -1    0    0    0    0 -0.00000000000E+00 -0.00000000000E+00 -0.74505805969E-08  0.93827000000E+00  0.93827000000E+00 0. -1.
     999902    2    1    2    0    0 -0.17193318995E-01  0.13796175959E-01 -0.10427581215E-01  0.10195439561E+01  0.10192522746E+01 0.  0.
     999903    2    3    3    0    0  0.44722306590E-01  0.11726435363E+00  0.29026092020E-01  0.13044564832E+00  0.20555773145E-01 0.  0.
         14    1    1    2    0    0  0.17193318995E-01 -0.13796175959E-01  0.10427581215E-01  0.24386043942E-01  0.00000000000E+00 0. -1.
     999901    1    3    3    0    0 -0.61915625584E-01 -0.10346817767E+00 -0.39453673235E-01  0.88909830773E+00  0.88000000000E+00 0.  1.
        -11    1    4    4    0    0  0.19750771331E-01  0.74745093562E-01  0.23607853675E-01  0.80836339946E-01  0.51100000000E-03 0. -1.
         11    1    4    4    0    0  0.24971535259E-01  0.42519260070E-01  0.54182383448E-02  0.49609308379E-01  0.51100000000E-03 0.  1.
</event>
<event>
 8    1  0.1112958E+005  0.1043930E+01  0.7957747E-01            NaN
         13   -1    0    0    0    0  0.00000000000E+00  0.00000000000E+00  0.74505805969E-08  0.10566000000E+00  0.10566000000E+00 0.  1.
     999900   -1    0    0    0    0 -0.00000000000E+00 -0.00000000000E+00 -0.74505805969E-08  0.93827000000E+00  0.93827000000E+00 0.  1.
     999902    2    1    2    0    0 -0.19526650651E-01 -0.12189383472E-01  0.10362477763E-01  0.10186861473E+01  0.10183733179E+01 0.  0.
     999903    2    3    3    0    0 -0.80116493145E-01 -0.77136822458E-01 -0.66145906658E-01  0.13091205904E+00  0.19848032222E-01 0.  0.
         14    1    1    2    0    0  0.19526650651E-01  0.12189383472E-01 -0.10362477763E-01  0.25243852726E-01  0.00000000000E+00 0. -1.
     999901    1    3    3    0    0  0.60589842494E-01  0.64947438985E-01  0.76508384421E-01  0.88777408823E+00  0.88000000000E+00 0.  1.
        -11    1    4    4    0    0 -0.59706982005E-01 -0.65503070191E-01 -0.58512945334E-01  0.10620546971E+00  0.51100000000E-03 0.  1.
         11    1    4    4    0    0 -0.20409511140E-01 -0.11633752267E-01 -0.76329613237E-02  0.24706589330E-01  0.51100000000E-03 0. -1.
</event>
<event>
 7    1  0.1334447E+005  0.1043930E+01  0.7957747E-01            NaN
         13   -1    0    0    0    0  0.00000000000E+00  0.00000000000E+00  0.74505805969E-08  0.10566000000E+00  0.10566000000E+00 0. -1.
     999900   -1    0    0    0    0 -0.00000000000E+00 -0.00000000000E+00 -0.74505805969E-08  0.93827000000E+00  0.93827000000E+00 0. -1.
     999903    2    1    2    0    0 -0.25270795297E-01 -0.27804587950E-01  0.71214367842E-01  0.83291549709E-01  0.21314029643E-01 0.  0.
         14    1    1    2    0    0 -0.47874441058E-01 -0.51289183639E-01  0.76052998120E-02  0.70571829013E-01  0.00000000000E+00 0.  1.
     999901    1    1    2    0    0  0.73145236355E-01  0.79093771589E-01 -0.78819667654E-01  0.89006662128E+00  0.88000000000E+00 0. -1.
        -11    1    3    3    0    0 -0.73316622634E-02 -0.22680935173E-01  0.32437905883E-01  0.40257383806E-01  0.51100000000E-03 0.  1.
         11    1    3    3    0    0 -0.17939133034E-01 -0.51236527769E-02  0.38776461960E-01  0.43034165902E-01  0.51100000000E-03 0. -1.
</event>
<event>
 8    1  0.1112958E+005  0.1043930E+01  0.7957747E-01            NaN
         13   -1    0    0    0    0  0.00000000000E+00  0.00000000000E+00  0.74505805969E-08  0.10566000000E+00  0.10566000000E+00 0.  1.
     999900   -1    0    0    0    0 -0.00000000000E+00 -0.00000000000E+00 -0.74505805969E-08  0.93827000000E+00  0.93827000000E+00 0.  1.
     999902    2    1    2    0    0  0.70010923483E-02  0.21094946635E-01 -0.84799764642E-02  0.10201408834E+01  0.10198634712E+01 0.  0.
     999903    2    3    3    0    0 -0.11506943806E+00 -0.14352401063E-01  0.52915715078E-01  0.12889054832E+00  0.19124161437E-01 0.  0.
         14    1    1    2    0    0 -0.70010923483E-02 -0.21094946635E-01  0.84799764642E-02  0.23789116596E-01  0.00000000000E+00 0. -1.
     999901    1    3    3    0    0  0.12207053041E+00  0.35447347697E-01 -0.61395691542E-01  0.89125033509E+00  0.88000000000E+00 0. -1.
        -11    1    4    4    0    0 -0.36311262486E-01  0.14171805694E-02  0.23854043383E-01  0.43471745891E-01  0.51100000000E-03 0.  1.
         11    1    4    4    0    0 -0.78758175577E-01 -0.15769581632E-01  0.29061671694E-01  0.85418802425E-01  0.51100000000E-03 0. -1.
</event>
<event>
 8    1  0.1112958E+005  0.1043930E+01  0.7957747E-01            NaN
         13   -1    0    0    0    0  0.00000000000E+00  0.00000000000E+00  0.74505805969E-08  0.10566000000E+00  0.10566000000E+00 0. -1.
     999900   -1    0    0    0    0 -0.00000000000E+00 -0.00000000000E+00 -0.74505805969E-08  0.93827000000E+00  0.93827000000E+00 0. -1.
     999902    2    1    2    0    0 -0.16570742825E-01  0.14078563458E-01 -0.96805303166E-02  0.10201285687E+01  0.10198508658E+01 0.  0.
     999903    2    3    3    0    0 -0.11489749681E+00  0.82945973002E-02 -0.63730363527E-01  0.13298540699E+00  0.18796917869E-01 0.  0.
         14    1    1    2    0    0  0.16570742825E-01 -0.14078563458E-01  0.96805303166E-02  0.23801431344E-01  0.00000000000E+00 0. -1.
     999901    1    3    3    0    0  0.98326753982E-01  0.57839661583E-02  0.54049833210E-01  0.88714316166E+00  0.88000000000E+00 0.  1.
        -11    1    4    4    0    0 -0.56691521073E-01 -0.43928292852E-02 -0.26513982943E-01  0.62741357359E-01  0.51100000000E-03 0.  1.
         11    1    4    4    0    0 -0.58205975733E-01  0.12687426585E-01 -0.37216380584E-01  0.70244049635E-01  0.51100000000E-03 0. -1.
</event>
<event>
 8    1  0.1112958E+005  0.1043930E+01  0.7957747E-01            NaN
         13   -1    0    0    0    0  0.00000000000E+00  0.00000000000E+00  0.74505805969E-08  0.10566000000E+00  0.10566000000E+00 0. -1.
     999900   -1    0    0    0    0 -0.00000000000E+00 -0.00000000000E+00 -0.74505805969E-08  0.93827000000E+00  0.93827000000E+00 0.  1.
     999902    2    1    2    0    0  0.15020341440E-01 -0.59798344566E-02 -0.19132053392E-01  0.10188819553E+01  0.10185740200E+01 0.  0.
     999903    2    3    3    0    0  0.79050587257E-01 -0.10015522160E+00  0.19429791115E-01  0.13070635791E+00  0.20653606325E-01 0.  0.
         14    1    1    2    0    0 -0.15020341440E-01  0.59798344566E-02  0.19132053392E-01  0.25048044716E-01  0.00000000000E+00 0. -1.
     999901    1    3    3    0    0 -0.64030245817E-01  0.94175387147E-01 -0.38561844507E-01  0.88817559738E+00  0.88000000000E+00 0.  1.
        -11    1    4    4    0    0  0.39152323352E-01 -0.40752082413E-01  0.17342688960E-01  0.59115705411E-01  0.51100000000E-03 0. -1.
         11    1    4    4    0    0  0.39898263906E-01 -0.59403139191E-01  0.20871021546E-02  0.71590652496E-01  0.51100000000E-03 0.  1.
</event>
<event>
 8    1  0.1112958E+005  0.1043930E+01  0.7957747E-01            NaN
         13   -1    0    0    0    0  0.00000000000E+00  0.00000000000E+00  0.74505805969E-08  0.10566000000E+00  0.10566000000E+00 0. -1.
     999900   -1    0    0    0    0 -0.00000000000E+00 -0.00000000000E+00 -0.74505805969E-08  0.93827000000E+00  0.93827000000E+00 0. -1.
     999902    2    1    2    0    0 -0.18713212350E-01 -0.14730380501E-01  0.15219135328E-02  0.10200661225E+01  0.10197869433E+01 0.  0.
     999903    2    3    3    0    0  0.69391661485E-01  0.17664563544E-01  0.10393394130E+00  0.12916762966E+00  0.27473130695E-01 0.  0.
         14    1    1    2    0    0  0.18713212350E-01  0.14730380501E-01 -0.15219135328E-02  0.23863877450E-01  0.00000000000E+00 0.  1.
     999901    1    3    3    0    0 -0.88104873836E-01 -0.32394944045E-01 -0.10241202777E+00  0.89089849288E+00  0.88000000000E+00 0. -1.
        -11    1    4    4    0    0  0.55291232555E-01  0.22348715512E-01  0.69002666325E-01  0.91204246412E-01  0.51100000000E-03 0. -1.
         11    1    4    4    0    0  0.14100428930E-01 -0.46841519678E-02  0.34931274974E-01  0.37963383253E-01  0.51100000000E-03 0.  1.
</event>
<event>
 8    1  0.1112958E+005  0.1043930E+01  0.7957747E-01            NaN
         13   -1    0    0    0    0  0.00000000000E+00  0.00000000000E+00  0.74505805969E-08  0.10566000000E+00  0.10566000000E+00 0.  1.
     999900   -1    0    0    0    0 -0.00000000000E+00 -0.00000000000E+00 -0.74505805969E-08  0.93827000000E+00  0.93827000000E+00 0.  1.
     999902    2    1    2    0    0 -0.14403410358E-01  0.16673201309E-01 -0.85853877805E-02  0.10202833775E+01  0.10200093174E+01 0.  0.
     999903    2    3    3    0    0 -0.10903203493E-01 -0.11922325824E+00  0.41811943435E-01  0.12842016482E+00  0.20259194614E-01 0.  0.
         14    1    1    2    0    0  0.14403410358E-01 -0.16673201309E-01  0.85853877805E-02  0.23646622490E-01  0.00000000000E+00 0.  1.
     999901    1    3    3    0    0 -0.35002068655E-02  0.13589645955E+00 -0.50397331216E-01  0.89186321270E+00  0.88000000000E+00 0.  1.
        -11    1    4    4    0    0  0.31349908428E-02 -0.25781328857E-01  0.15836260144E-01  0.30422908171E-01  0.51100000000E-03 0. -1.
         11    1    4    4    0    0 -0.14038194336E-01 -0.93441929379E-01  0.25975683291E-01  0.97997256644E-01  0.51100000000E-03 0.  1.
</event>
<event>
 8    1  0.1112958E+005  0.1043930E+01  0.7957747E-01            NaN
         13   -1    0    0    0    0  0.00000000000E+00  0.00000000000E+00  0.74505805969E-08  0.10566000000E+00  0.10566000000E+00 0. -1.
     999900   -1    0    0    0    0 -0.00000000000E+00 -0.00000000000E+00 -0.74505805969E-08  0.93827000000E+00  0.93827000000E+00 0. -1.
     999902    2    1    2    0    0  0.45378156862E-02 -0.30755848811E-02 -0.23662565845E-01  0.10196407428E+01  0.10193513998E+01 0.  0.
     999903    2    3    3    0    0 -0.11762686448E+00 -0.55525461123E-02  0.47166506060E-01  0.12837922009E+00  0.19739170191E-01 0.  0.
         14    1    1    2    0    0 -0.45378156862E-02  0.30755848811E-02  0.23662565845E-01  0.24289257212E-01  0.00000000000E+00 0. -1.
     999901    1    3    3    0    0  0.12216468017E+00  0.24769612312E-02 -0.70829071905E-01  0.89126152270E+00  0.88000000000E+00 0. -1.
        -11    1    4    4    0    0 -0.32734727967E-01  0.73758672851E-03  0.22566839289E-01  0.39769709651E-01  0.51100000000E-03 0.  1.
         11    1    4    4    0    0 -0.84892136518E-01 -0.62901328408E-02  0.24599666771E-01  0.88609510437E-01  0.51100000000E-03 0. -1.
</event>
<event>
 8    1  0.1112958E+005  0.1043930E+01  0.7957747E-01            NaN
         13   -1    0    0    0    0  0.00000000000E+00  0.00000000000E+00  0.74505805969E-08  0.10566000000E+00  0.10566000000E+00 0.  1.
     999900   -1    0    0    0    0 -0.00000000000E+00 -0.00000000000E+00 -0.74505805969E-08  0.93827000000E+00  0.93827000000E+00 0.  1.
     999902    2    1    2    0    0 -0.14480339452E-01 -0.64818977521E-02  0.17790466010E-01  0.10200931397E+01  0.10198145997E+01 0.  0.
     999903    2    3    3    0    0 -0.82691331922E-01  0.25364766606E-01 -0.94626120241E-01  0.12975363231E+00  0.20016860513E-01 0.  0.
         14    1    1    2    0    0  0.14480339452E-01  0.64818977521E-02 -0.17790466010E-01  0.23836860321E-01  0.00000000000E+00 0. -1.
     999901    1    3    3    0    0  0.68210992469E-01 -0.31846664358E-01  0.11241658625E+00  0.89033950737E+00  0.88000000000E+00 0. -1.
        -11    1    4    4    0    0 -0.79684518940E-01  0.28285255233E-01 -0.90155460320E-01  0.12360399010E+00  0.51100000000E-03 0. -1.
         11    1    4    4    0    0 -0.30068129816E-02 -0.29204886268E-02 -0.44706599208E-02  0.61496422053E-02  0.51100000000E-03 0.  1.
</event>
<event>
 8    1  0.1112958E+005  0.1043930E+01  0.7957747E-01            NaN
         13   -1    0    0    0    0  0.00000000000E+00  0.00000000000E+00  0.74505805969E-08  0.10566000000E+00  0.10566000000E+00 0. -1.
     999900   -1    0    0    0    0 -0.00000000000E+00 -0.00000000000E+00 -0.74505805969E-08  0.93827000000E+00  0.93827000000E+00 0.  1.
     999902    2    1    2    0    0 -0.10659146837E-02 -0.10320494237E-01 -0.20976017005E-01  0.10205282465E+01  0.10202598982E+01 0.  0.
     999903    2    3    3    0    0 -0.53943041776E-01  0.11618712592E+00 -0.85695899497E-02  0.12982398139E+00  0.19275069022E-01 0.  0.
         14    1    1    2    0    0  0.10659146837E-02  0.10320494237E-01  0.20976017005E-01  0.23401753456E-01  0.00000000000E+00 0. -1.
     999901    1    3    3    0    0  0.52877127092E-01 -0.12650762016E+00 -0.12406427056E-01  0.89070426515E+00  0.88000000000E+00 0. -1.
        -11    1    4    4    0    0 -0.13244239493E-01  0.49826567938E-01 -0.62972107580E-02  0.51942398256E-01  0.51100000000E-03 0.  1.
         11    1    4    4    0    0 -0.40698802283E-01  0.66360557986E-01 -0.22723791918E-02  0.77881583136E-01  0.51100000000E-03 0. -1.
</event>
<event>
 8    1  0.1112958E+005  0.1043930E+01  0.7957747E-01            NaN
         13   -1    0    0    0    0  0.00000000000E+00  0.00000000000E+00  0.74505805969E-08  0.10566000000E+00  0.10566000000E+00 0.  1.
     999900   -1    0    0    0    0 -0.00000000000E+00 -0.00000000000E+00 -0.74505805969E-08  0.93827000000E+00  0.93827000000E+00 0.  1.
     999902    2    1    2    0    0  0.75254601202E-03  0.11490342889E-01 -0.21173227117E-01  0.10198281359E+01  0.10195432933E+01 0.  0.
     999903    2    3    3    0    0  0.12355145570E+00 -0.35035514823E-01  0.34916982893E-02  0.12974241747E+00  0.18123284200E-01 0.  0.
         14    1    1    2    0    0 -0.75254601202E-03 -0.11490342889E-01  0.21173227117E-01  0.24101864072E-01  0.00000000000E+00 0.  1.
     999901    1    3    3    0    0 -0.12279890969E+00  0.46525857712E-01 -0.24664925406E-01  0.89008571846E+00  0.88000000000E+00 0.  1.
        -11    1    4    4    0    0  0.10746162979E+00 -0.25947631185E-01  0.75767075931E-02  0.11081041946E+00  0.51100000000E-03 0. -1.
         11    1    4    4    0    0  0.16089825905E-01 -0.90878836387E-02 -0.40850093038E-02  0.18931998011E-01  0.51100000000E-03 0.  1.
</event>
<event>
 8    1  0.1112958E+005  0.1043930E+01  0.7957747E-01            NaN
         13   -1    0    0    0    0  0.00000000000E+00  0.00000000000E+00  0.74505805969E-08  0.10566000000E+00  0.10566000000E+00 0.  1.
     999900   -1    0    0    0    0 -0.00000000000E+00 -0.00000000000E+00 -0.74505805969E-08  0.93827000000E+00  0.93827000000E+00 0. -1.
     999902    2    1    2    0    0 -0.11819173261E-01 -0.98520859440E-02  0.16821552166E-01  0.10211326082E+01  0.10208780939E+01 0.  0.
     999903    2    3    3    0    0  0.27160951820E-01 -0.79889296161E-01  0.10152921392E+00  0.13343893983E+00  0.19435854469E-01 0.  0.
         14    1    1    2    0    0  0.11819173261E-01  0.98520859440E-02 -0.16821552166E-01  0.22797391765E-01  0.00000000000E+00 0. -1.
     999901    1    3    3    0    0 -0.38980125082E-01  0.70037210217E-01 -0.84707661753E-01  0.88769366840E+00  0.88000000000E+00 0. -1.
        -11    1    4    4    0    0  0.80761292626E-02 -0.45226804039E-01  0.44016053096E-01  0.63626737450E-01  0.51100000000E-03 0. -1.
         11    1    4    4    0    0  0.19084822558E-01 -0.34662492123E-01  0.57513160823E-01  0.69812202380E-01  0.51100000000E-03 0.  1.
</event>
<event>
 8    1  0.1112958E+005  0.1043930E+01  0.7957747E-01            NaN
         13   -1    0    0    0    0  0.00000000000E+00  0.00000000000E+00  0.74505805969E-08  0.10566000000E+00  0.10566000000E+00 0. -1.
     999900   -1    0    0    0    0 -0.00000000000E+00 -0.00000000000E+00 -0.74505805969E-08  0.93827000000E+00  0.93827000000E+00 0. -1.
     999902    2    1    2    0    0 -0.19900102114E-01  0.12441068265E-01 -0.34172160761E-02  0.10202135161E+01  0.10199378152E+01 0.  0.
     999903    2    3    3    0    0  0.12101651506E+00  0.32264906299E-01  0.20234621742E-01  0.12846810007E+00  0.20213651846E-01 0.  0.
         14    1    1    2    0    0  0.19900102114E-01 -0.12441068265E-01  0.34172160761E-02  0.23716483918E-01  0.00000000000E+00 0.  1.
     999901    1    3    3    0    0 -0.14091661718E+00 -0.19823838035E-01 -0.23651837818E-01  0.89174541601E+00  0.88000000000E+00 0.  1.
        -11    1    4    4    0    0  0.30384297620E-01  0.17177397708E-01  0.35870784142E-02  0.35091263676E-01  0.51100000000E-03 0. -1.
         11    1    4    4    0    0  0.90632217445E-01  0.15087508591E-01  0.16647543328E-01  0.93376836390E-01  0.51100000000E-03 0.  1.
</event>
<event>
 8    1  0.1112958E+005  0.1043930E+01  0.7957747E-01            NaN
         13   -1    0    0    0    0  0.00000000000E+00  0.00000000000E+00  0.74505805969E-08  0.10566000000E+00  0.10566000000E+00 0.  1.
     999900   -1    0    0    0    0 -0.00000000000E+00 -0.00000000000E+00 -0.74505805969E-08  0.93827000000E+00  0.93827000000E+00 0.  1.
     999902    2    1    2    0    0  0.12298700511E-01 -0.20784275639E-02 -0.20073719081E-01  0.10202967164E+01  0.10200229691E+01 0.  0.
     999903    2    3    3    0    0 -0.93489761507E-01 -0.64572242598E-01 -0.61723065128E-01  0.13078485947E+00  0.19622249548E-01 0.  0.
         14    1    1    2    0    0 -0.12298700511E-01  0.20784275639E-02  0.20073719081E-01  0.23633283587E-01  0.00000000000E+00 0.  1.
     999901    1    3    3    0    0  0.10578846202E+00  0.62493815034E-01  0.41649346047E-01  0.88951185694E+00  0.88000000000E+00 0. -1.
        -11    1    4    4    0    0 -0.43704376083E-01 -0.29557854132E-01 -0.17653732125E-01  0.55638607177E-01  0.51100000000E-03 0.  1.
         11    1    4    4    0    0 -0.49785385423E-01 -0.35014388466E-01 -0.44069333003E-01  0.75146252294E-01  0.51100000000E-03 0. -1.
</event>
<event>
 8    1  0.1112958E+005  0.1043930E+01  0.7957747E-01            NaN
         13   -1    0    0    0    0  0.00000000000E+00  0.00000000000E+00  0.74505805969E-08  0.10566000000E+00  0.10566000000E+00 0. -1.
     999900   -1    0    0    0    0 -0.00000000000E+00 -0.00000000000E+00 -0.74505805969E-08  0.93827000000E+00  0.93827000000E+00 0. -1.
     999902    2    1    2    0    0 -0.22550495607E-01  0.13546379413E-02 -0.89199882883E-02  0.10196416059E+01  0.10193522838E+01 0.  0.
     999903    2    3    3    0    0  0.91551958372E-01 -0.84363082279E-01 -0.22318615077E-01  0.12804392716E+00  0.19955850536E-01 0.  0.
         14    1    1    2    0    0  0.22550495607E-01 -0.13546379413E-02  0.89199882883E-02  0.24288394083E-01  0.00000000000E+00 0. -1.
     999901    1    3    3    0    0 -0.11410245398E+00  0.85717720220E-01  0.13398626788E-01  0.89159767876E+00  0.88000000000E+00 0. -1.
        -11    1    4    4    0    0  0.42682398749E-01 -0.28980492219E-01 -0.29207762603E-02  0.51676379006E-01  0.51100000000E-03 0. -1.
         11    1    4    4    0    0  0.48869559623E-01 -0.55382590060E-01 -0.19397838817E-01  0.76367548155E-01  0.51100000000E-03 0.  1.
</event>
<event>
 8    1  0.1112958E+005  0.1043930E+01  0.7957747E-01            NaN
         13   -1    0    0    0    0  0.00000000000E+00  0.00000000000E+00  0.74505805969E-08  0.10566000000E+00  0.10566000000E+00 0.  1.
     999900   -1    0    0    0    0 -0.00000000000E+00 -0.00000000000E+00 -0.74505805969E-08  0.93827000000E+00  0.93827000000E+00 0.  1.
     999902    2    1    2    0    0 -0.16057464317E-01 -0.69918377382E-02 -0.14391783246E-01  0.10212617098E+01  0.10210101021E+01 0.  0.
     999903    2    3    3    0    0  0.50231087295E-01  0.11724205710E+00 -0.15137420080E-01  0.13006656357E+00  0.20476996596E-01 0.  0.
         14    1    1    2    0    0  0.16057464317E-01  0.69918377382E-02  0.14391783246E-01  0.22668290192E-01  0.00000000000E+00 0.  1.
     999901    1    3    3    0    0 -0.66288551612E-01 -0.12423389483E+00  0.74563683406E-03  0.89119514624E+00  0.88000000000E+00 0. -1.
        -11    1    4    4    0    0  0.11955108723E-01  0.52216854830E-01 -0.94413811339E-02  0.54396004923E-01  0.51100000000E-03 0.  1.
         11    1    4    4    0    0  0.38275978572E-01  0.65025202266E-01 -0.56960389459E-02  0.75670558648E-01  0.51100000000E-03 0. -1.
</event>
<event>
 7    1  0.1112958E+005  0.1043930E+01  0.7957747E-01            NaN
         13   -1    0    0    0    0  0.00000000000E+00  0.00000000000E+00  0.74505805969E-08  0.10566000000E+00  0.10566000000E+00 0.  1.
     999900   -1    0    0    0    0 -0.00000000000E+00 -0.00000000000E+00 -0.74505805969E-08  0.93827000000E+00  0.93827000000E+00 0. -1.
     999902    2    1    2    0    0  0.16420581540E-01  0.16817284773E-01  0.48838184626E-02  0.10199235790E+01  0.10196410147E+01 0.  0.
         14    1    1    2    0    0 -0.16420581540E-01 -0.16817284773E-01 -0.48838184626E-02  0.24006420975E-01  0.00000000000E+00 0.  1.
     999901    1    3    3    0    0  0.89540485308E-01  0.10269549762E+00  0.48256589530E-01  0.89179177064E+00  0.88000000000E+00 0. -1.
        -11    1    3    3    0    0 -0.17120417354E-01 -0.52489452082E-01 -0.16660845872E-01  0.57672317245E-01  0.51100000000E-03 0.  1.
         11    1    3    3    0    0 -0.55999486414E-01 -0.33388760761E-01 -0.26711925196E-01  0.70459491145E-01  0.51100000000E-03 0. -1.
</event>
<event>
 8    1  0.1112958E+005  0.1043930E+01  0.7957747E-01            NaN
         13   -1    0    0    0    0  0.00000000000E+00  0.00000000000E+00  0.74505805969E-08  0.10566000000E+00  0.10566000000E+00 0.  1.
     999900   -1    0    0    0    0 -0.00000000000E+00 -0.00000000000E+00 -0.74505805969E-08  0.93827000000E+00  0.93827000000E+00 0. -1.
     999902    2    1    2    0    0  0.79125046614E-02  0.23316805943E-01 -0.78734494285E-02  0.10180790353E+01  0.10177507798E+01 0.  0.
     999903    2    3    3    0    0 -0.19386045082E-01  0.10945370890E+00 -0.67373528652E-01  0.13145338923E+00  0.19618053923E-01 0.  0.
         14    1    1    2    0    0 -0.79125046614E-02 -0.23316805943E-01  0.78734494285E-02  0.25850964688E-01  0.00000000000E+00 0.  1.
     999901    1    3    3    0    0  0.27298549744E-01 -0.86136902958E-01  0.59500079224E-01  0.88662564609E+00  0.88000000000E+00 0.  1.
        -11    1    4    4    0    0 -0.21770675545E-01  0.73578171837E-01 -0.42340599575E-01  0.87639586820E-01  0.51100000000E-03 0. -1.
         11    1    4    4    0    0  0.23846304631E-02  0.35875537064E-01 -0.25032929077E-01  0.43813802406E-01  0.51100000000E-03 0.  1.
</event>
<event>
 8    1  0.1112958E+005  0.1043930E+01  0.7957747E-01            NaN
         13   -1    0    0    0    0  0.00000000000E+00  0.00000000000E+00  0.74505805969E-08  0.10566000000E+00  0.10566000000E+00 0. -1.
     999900   -1    0    0    0    0 -0.00000000000E+00 -0.00000000000E+00 -0.74505805969E-08  0.93827000000E+00  0.93827000000E+00 0. -1.
     999902    2    1    2    0    0  0.14998913636E-02  0.84274303858E-02 -0.22077276146E-01  0.10202513729E+01  0.10199765618E+01 0.  0.
     999903    2    3    3    0    0  0.35915512115E-02 -0.10932050991E+00  0.63629222818E-01  0.12827908837E+00  0.21046933022E-01 0.  0.
         14    1    1    2    0    0 -0.14998913636E-02 -0.84274303858E-02  0.22077276146E-01  0.23678627051E-01  0.00000000000E+00 0. -1.
     999901    1    3    3    0    0 -0.20916598480E-02  0.11774794030E+00 -0.85706498963E-01  0.89197228458E+00  0.88000000000E+00 0.  1.
        -11    1    4    4    0    0 -0.55382950543E-02 -0.45310954836E-01  0.17676229987E-01  0.48953708417E-01  0.51100000000E-03 0. -1.
         11    1    4    4    0    0  0.91298462658E-02 -0.64009555078E-01  0.45952992830E-01  0.79325379956E-01  0.51100000000E-03 0.  1.
</event>
<event>
 8    1  0.1112958E+005  0.1043930E+01  0.7957747E-01            NaN
         13   -1    0    0    0    0  0.00000000000E+00  0.00000000000E+00  0.74505805969E-08  0.10566000000E+00  0.10566000000E+00 0. -1.
     999900   -1    0    0    0    0 -0.00000000000E+00 -0.00000000000E+00 -0.74505805969E-08  0.93827000000E+00  0.93827000000E+00 0. -1.
     999902    2    1    2    0    0  0.21723909861E-02  0.20917250517E-01 -0.11142181110E-01  0.10201308645E+01  0.10198532158E+01 0.  0.
     999903    2    3    3    0    0 -0.59616760074E-01  0.11966043040E-02 -0.11561386358E+00  0.13158084590E+00  0.19782912096E-01 0.  0.
         14    1    1    2    0    0 -0.21723909861E-02 -0.20917250517E-01  0.11142181110E-01  0.23799135524E-01  0.00000000000E+00 0.  1.
     999901    1    3    3    0    0  0.61789151060E-01  0.19720646213E-01  0.10447168247E+00  0.88855001858E+00  0.88000000000E+00 0.  1.
        -11    1    4    4    0    0 -0.98857983893E-02 -0.70507335699E-02 -0.18017476448E-01  0.21733210352E-01  0.51100000000E-03 0. -1.
         11    1    4    4    0    0 -0.49730961685E-01  0.82473378739E-02 -0.97596387136E-01  0.10984763555E+00  0.51100000000E-03 0.  1.
</event>
<event>
 8    1  0.1112958E+005  0.1043930E+01  0.7957747E-01            NaN
         13   -1    0    0    0    0  0.00000000000E+00  0.00000000000E+00  0.74505805969E-08  0.10566000000E+00  0.10566000000E+00 0. -1.
     999900   -1    0    0    0    0 -0.00000000000E+00 -0.00000000000E+00 -0.74505805969E-08  0.93827000000E+00  0.93827000000E+00 0. -1.
     999902    2    1    2    0    0  0.20696323523E-01  0.99380754499E-02  0.66535369603E-02  0.10200265964E+01  0.10197464806E+01 0.  0.
     999903    2    3    3    0    0  0.19545579853E-01  0.12202939438E+00  0.42234378976E-01  0.13220241090E+00  0.20506874331E-01 0.  0.
         14    1    1    2    0    0 -0.20696323523E-01 -0.99380754499E-02 -0.66535369603E-02  0.23903403630E-01  0.00000000000E+00 0.  1.
     999901    1    3    3    0    0  0.11507436702E-02 -0.11209131893E+00 -0.35580842015E-01  0.88782418547E+00  0.88000000000E+00 0.  1.
        -11    1    4    4    0    0  0.16931182408E-01  0.60274051049E-01  0.13550626929E-01  0.64058619863E-01  0.51100000000E-03 0. -1.
         11    1    4    4    0    0  0.26143974444E-02  0.61755343332E-01  0.28683752046E-01  0.68143791035E-01  0.51100000000E-03 0.  1.
</event>
<event>
 8    1  0.1112958E+005  0.1043930E+01  0.7957747E-01            NaN
         13   -1    0    0    0    0  0.00000000000E+00  0.00000000000E+00  0.74505805969E-08  0.10566000000E+00  0.10566000000E+00 0. -1.
     999900   -1    0    0    0    0 -0.00000000000E+00 -0.00000000000E+00 -0.74505805969E-08  0.93827000000E+00  0.93827000000E+00 0.  1.
     999902    2    1    2    0    0 -0.94089710499E-02  0.20872856584E-01  0.43393566542E-02  0.10206268909E+01  0.10203608261E+01 0.  0.
     999903    2    3    3    0    0 -0.17112986786E-01  0.12676753051E+00 -0.31986317805E-01  0.13350086351E+00  0.20892460927E-01 0.  0.
         14    1    1    2    0    0  0.94089710499E-02 -0.20872856584E-01 -0.43393566542E-02  0.23303109114E-01  0.00000000000E+00 0. -1.
     999901    1    3    3    0    0  0.77040157363E-02 -0.10589467392E+00  0.36325674460E-01  0.88712602738E+00  0.88000000000E+00 0. -1.
        -11    1    4    4    0    0 -0.10938393675E-01  0.36830954513E-01 -0.17393201565E-01  0.42177627341E-01  0.51100000000E-03 0. -1.
         11    1    4    4    0    0 -0.61745931116E-02  0.89936575994E-01 -0.14593116241E-01  0.91323236168E-01  0.51100000000E-03 0.  1.
</event>
<event>
 8    1  0.1112958E+005  0.1043930E+01  0.7957747E-01            NaN
         13   -1    0    0    0    0  0.00000000000E+00  0.00000000000E+00  0.74505805969E-08  0.10566000000E+00  0.10566000000E+00 0. -1.
     999900   -1    0    0    0    0 -0.00000000000E+00 -0.00000000000E+00 -0.74505805969E-08  0.93827000000E+00  0.93827000000E+00 0.  1.
     999902    2    1    2    0    0 -0.14825041338E-01  0.18291759831E-01  0.15147749331E-03  0.10203844426E+01  0.10201127474E+01 0.  0.
     999903    2    3    3    0    0  0.50706862907E-01 -0.29681099657E-01  0.11346633689E+00  0.12940964885E+00  0.20496194375E-01 0.  0.
         14    1    1    2    0    0  0.14825041338E-01 -0.18291759831E-01 -0.15147749331E-03  0.23545557412E-01  0.00000000000E+00 0. -1.
     999901    1    3    3    0    0 -0.65531904245E-01  0.47972859488E-01 -0.11331485940E+00  0.89097479374E+00  0.88000000000E+00 0.  1.
        -11    1    4    4    0    0  0.38068018353E-01 -0.29500181886E-01  0.77113557968E-01  0.90918626783E-01  0.51100000000E-03 0. -1.
         11    1    4    4    0    0  0.12638844554E-01 -0.18091777117E-03  0.36352778926E-01  0.38491022064E-01  0.51100000000E-03 0.  1.
</event>
<event>
 8    1  0.1112958E+005  0.1043930E+01  0.7957747E-01            NaN
         13   -1    0    0    0    0  0.00000000000E+00  0.00000000000E+00  0.74505805969E-08  0.10566000000E+00  0.10566000000E+00 0.  1.
     999900   -1    0    0    0    0 -0.00000000000E+00 -0.00000000000E+00 -0.74505805969E-08  0.93827000000E+00  0.93827000000E+00 0.  1.
     999902    2    1    2    0    0 -0.45766819487E-02  0.22832825429E-01 -0.13234364110E-02  0.10206054332E+01  0.10203388725E+01 0.  0.
     999903    2    3    3    0    0 -0.47332686767E-01  0.10189570758E+00 -0.69059248012E-01  0.13343737948E+00  0.20328208173E-01 0.  0.
         14    1    1    2    0    0  0.45766819487E-02 -0.22832825429E-01  0.13234364110E-02  0.23324566849E-01  0.00000000000E+00 0.  1.
     999901    1    3    3    0    0  0.42756004818E-01 -0.79062882147E-01  0.67735811601E-01  0.88716805367E+00  0.88000000000E+00 0. -1.
        -11    1    4    4    0    0 -0.19418449810E-01  0.64684804109E-01 -0.37896379898E-01  0.77444152820E-01  0.51100000000E-03 0.  1.
         11    1    4    4    0    0 -0.27914236957E-01  0.37210903467E-01 -0.31162868114E-01  0.55993226660E-01  0.51100000000E-03 0. -1.
</event>
<event>
 8    1  0.1112958E+005  0.1043930E+01  0.7957747E-01            NaN
         13   -1    0    0    0    0  0.00000000000E+00  0.00000000000E+00  0.74505805969E-08  0.10566000000E+00  0.10566000000E+00 0.  1.
     999900   -1    0    0    0    0 -0.00000000000E+00 -0.00000000000E+00 -0.74505805969E-08  0.93827000000E+00  0.93827000000E+00 0. -1.
     999902    2    1    2    0    0  0.21400499146E-01 -0.11304677716E-01 -0.12337756770E-03  0.10197268530E+01  0.10194395825E+01 0.  0.
     999903    2    3    3    0    0 -0.62565613439E-01  0.10311598069E+00 -0.36439475411E-01  0.12761629143E+00  0.20266253016E-01 0.  0.
         14    1    1    2    0    0 -0.21400499146E-01  0.11304677716E-01  0.12337756770E-03  0.24203146985E-01  0.00000000000E+00 0. -1.
     999901    1    3    3    0    0  0.83966112585E-01 -0.11442065840E+00  0.36316097843E-01  0.89211056159E+00  0.88000000000E+00 0.  1.
        -11    1    4    4    0    0 -0.59128411185E-01  0.83527570287E-01 -0.32088108083E-01  0.10725172170E+00  0.51100000000E-03 0. -1.
         11    1    4    4    0    0 -0.34372022539E-02  0.19588410401E-01 -0.43513673279E-02  0.20364569723E-01  0.51100000000E-03 0.  1.
</event>
<event>
 8    1  0.1112958E+005  0.1043930E+01  0.7957747E-01            NaN
         13   -1    0    0    0    0  0.00000000000E+00  0.00000000000E+00  0.74505805969E-08  0.10566000000E+00  0.10566000000E+00 0.  1.
     999900   -1    0    0    0    0 -0.00000000000E+00 -0.00000000000E+00 -0.74505805969E-08  0.93827000000E+00  0.93827000000E+00 0.  1.
     999902    2    1    2    0    0 -0.11721942792E-01 -0.21804020976E-01 -0.41539080789E-02  0.10188287206E+01  0.10185194587E+01 0.  0.
     999903    2    3    3    0    0 -0.12693551074E+00  0.27270917832E-02 -0.23831668218E-01  0.13076163084E+00  0.20263138283E-01 0.  0.
         14    1    1    2    0    0  0.11721942792E-01  0.21804020976E-01  0.41539080789E-02  0.25101279367E-01  0.00000000000E+00 0.  1.
     999901    1    3    3    0    0  0.11521356795E+00 -0.24531112759E-01  0.19677760139E-01  0.88806708979E+00  0.88000000000E+00 0.  1.
        -11    1    4    4    0    0 -0.21419380973E-01 -0.15266780094E-02  0.32927195850E-02  0.21730709843E-01  0.51100000000E-03 0. -1.
         11    1    4    4    0    0 -0.10551612977E+00  0.42537697925E-02 -0.27124387803E-01  0.10903092100E+00  0.51100000000E-03 0.  1.
</event>
<event>
 8    1  0.1112958E+005  0.1043930E+01  0.7957747E-01            NaN
         13   -1    0    0    0    0  0.00000000000E+00  0.00000000000E+00  0.74505805969E-08  0.10566000000E+00  0.10566000000E+00 0.  1.
     999900   -1    0    0    0    0 -0.00000000000E+00 -0.00000000000E+00 -0.74505805969E-08  0.93827000000E+00  0.93827000000E+00 0. -1.
     999902    2    1    2    0    0 -0.82732749556E-02 -0.20885440266E-01  0.12469804156E-01  0.10182367186E+01  0.10179125063E+01 0.  0.
     999903    2    3    3    0    0 -0.63866552412E-01  0.90386955828E-01  0.61341007527E-01  0.12814652477E+00  0.20250291473E-01 0.  0.
         14    1    1    2    0    0  0.82732749556E-02  0.20885440266E-01 -0.12469804156E-01  0.25693281404E-01  0.00000000000E+00 0. -1.
     999901    1    3    3    0    0  0.55593277456E-01 -0.11127239609E+00 -0.48871203371E-01  0.89009019383E+00  0.88000000000E+00 0.  1.
        -11    1    4    4    0    0 -0.21367996993E-01  0.45376583627E-01  0.33155712159E-01  0.60126433512E-01  0.51100000000E-03 0. -1.
         11    1    4    4    0    0 -0.42498555419E-01  0.45010372201E-01  0.28185295369E-01  0.68020091256E-01  0.51100000000E-03 0.  1.
</event>
<event>
 8    1  0.1112958E+005  0.1043930E+01  0.7957747E-01            NaN
         13   -1    0    0    0    0  0.00000000000E+00  0.00000000000E+00  0.74505805969E-08  0.10566000000E+00  0.10566000000E+00 0. -1.
     999900   -1    0    0    0    0 -0.00000000000E+00 -0.00000000000E+00 -0.74505805969E-08  0.93827000000E+00  0.93827000000E+00 0. -1.
     999902    2    1    2    0    0 -0.27465308102E-01 -0.96880373549E-02  0.10193486452E-02  0.10147882724E+01  0.10143697538E+01 0.  0.
     999903    2    3    3    0    0 -0.32922265887E-01 -0.70959580299E-01 -0.98771905850E-01  0.12701449780E+00  0.16051655323E-01 0.  0.
         14    1    1    2    0    0  0.27465308102E-01  0.96880373549E-02 -0.10193486452E-02  0.29141727618E-01  0.00000000000E+00 0. -1.
     999901    1    3    3    0    0  0.54569577858E-02  0.61271542944E-01  0.99791254495E-01  0.88777377458E+00  0.88000000000E+00 0. -1.
        -11    1    4    4    0    0 -0.13659574541E-01 -0.17574573001E-01 -0.20020886004E-01  0.29942387851E-01  0.51100000000E-03 0. -1.
         11    1    4    4    0    0 -0.19262691346E-01 -0.53385007298E-01 -0.78751019846E-01  0.97072109948E-01  0.51100000000E-03 0.  1.
</event>
<event>
 8    1  0.1112958E+005  0.1043930E+01  0.7957747E-01            NaN
         13   -1    0    0    0    0  0.00000000000E+00  0.00000000000E+00  0.74505805969E-08  0.10566000000E+00  0.10566000000E+00 0.  1.
     999900   -1    0    0    0    0 -0.00000000000E+00 -0.00000000000E+00 -0.74505805969E-08  0.93827000000E+00  0.93827000000E+00 0. -1.
     999902    2    1    2    0    0  0.55463259178E-02  0.86633589319E-02 -0.21365075851E-01  0.10202175141E+01  0.10199419073E+01 0.  0.
     999903    2    3    3    0    0  0.10482411197E+00  0.18974595764E-01 -0.76275015705E-01  0.13287456923E+00  0.22127887184E-01 0.  0.
         14    1    1    2    0    0 -0.55463259178E-02 -0.86633589319E-02  0.21365075851E-01  0.23712485853E-01  0.00000000000E+00 0.  1.
     999901    1    3    3    0    0 -0.99277786053E-01 -0.10311236832E-01  0.54909939853E-01  0.88734294492E+00  0.88000000000E+00 0.  1.
        -11    1    4    4    0    0  0.36382522878E-01  0.80254566591E-02 -0.39912171502E-01  0.54601634412E-01  0.51100000000E-03 0. -1.
         11    1    4    4    0    0  0.68441589093E-01  0.10949139105E-01 -0.36362844203E-01  0.78272934813E-01  0.51100000000E-03 0.  1.
</event>
<event>
 8    1  0.1112958E+005  0.1043930E+01  0.7957747E-01            NaN
         13   -1    0    0    0    0  0.00000000000E+00  0.00000000000E+00  0.74505805969E-08  0.10566000000E+00  0.10566000000E+00 0. -1.
     999900   -1    0    0    0    0 -0.00000000000E+00 -0.00000000000E+00 -0.74505805969E-08  0.93827000000E+00  0.93827000000E+00 0. -1.
     999902    2    1    2    0    0  0.66075366348E-02  0.20955409413E-01 -0.91162647296E-02  0.10201414522E+01  0.10198640534E+01 0.  0.
     999903    2    3    3    0    0  0.61074021937E-01  0.90992075751E-01 -0.73232209725E-01  0.13335929910E+00  0.20301529725E-01 0.  0.
         14    1    1    2    0    0 -0.66075366348E-02 -0.20955409413E-01  0.91162647296E-02  0.23788547805E-01  0.00000000000E+00 0.  1.
     999901    1    3    3    0    0 -0.54466485302E-01 -0.70036666338E-01  0.64115944996E-01  0.88678215310E+00  0.88000000000E+00 0. -1.
        -11    1    4    4    0    0  0.45106398405E-01  0.66556672357E-01 -0.63921566857E-01  0.10271614110E+00  0.51100000000E-03 0.  1.
         11    1    4    4    0    0  0.15967623532E-01  0.24435403393E-01 -0.93106428680E-02  0.30643157994E-01  0.51100000000E-03 0. -1.
</event>
<event>
 8    1  0.1112958E+005  0.1043930E+01  0.7957747E-01            NaN
         13   -1    0    0    0    0  0.00000000000E+00  0.00000000000E+00  0.74505805969E-08  0.10566000000E+00  0.10566000000E+00 0.  1.
     999900   -1    0    0    0    0 -0.00000000000E+00 -0.00000000000E+00 -0.74505805969E-08  0.93827000000E+00  0.93827000000E+00 0. -1.
     999902    2    1    2    0    0 -0.23587948553E-01  0.10078280901E-03 -0.58418468251E-02  0.10196292048E+01  0.10193395835E+01 0.  0.
     999903    2    3    3    0    0  0.10577180102E+00 -0.68062103976E-01 -0.87047858370E-02  0.12755952120E+00  0.19378706424E-01 0.  0.
         14    1    1    2    0    0  0.23587948553E-01 -0.10078280901E-03  0.58418468251E-02  0.24300795223E-01  0.00000000000E+00 0.  1.
     999901    1    3    3    0    0 -0.12935974957E+00  0.68162886785E-01  0.28629390119E-02  0.89206968358E+00  0.88000000000E+00 0. -1.
        -11    1    4    4    0    0  0.98957557364E-01 -0.63251124001E-01 -0.12999968224E-01  0.11816329016E+00  0.51100000000E-03 0.  1.
         11    1    4    4    0    0  0.68142436562E-02 -0.48109799744E-02  0.42951823874E-02  0.93962310349E-02  0.51100000000E-03 0. -1.
</event>
<event>
 8    1  0.1112958E+005  0.1043930E+01  0.7957747E-01            NaN
         13   -1    0    0    0    0  0.00000000000E+00  0.00000000000E+00  0.74505805969E-08  0.10566000000E+00  0.10566000000E+00 0. -1.
     999900   -1    0    0    0    0 -0.00000000000E+00 -0.00000000000E+00 -0.74505805969E-08  0.93827000000E+00  0.93827000000E+00 0.  1.
     999902    2    1    2    0    0 -0.32464381852E-02  0.89887014754E-02 -0.21217257299E-01  0.10206596729E+01  0.10203943648E+01 0.  0.
     999903    2    3    3    0    0 -0.54381521012E-01 -0.82767518006E-01 -0.85051142530E-01  0.13211661521E+00  0.20329567221E-01 0.  0.
         14    1    1    2    0    0  0.32464381852E-02 -0.89887014754E-02  0.21217257299E-01  0.23270327080E-01  0.00000000000E+00 0. -1.
     999901    1    3    3    0    0  0.51135082827E-01  0.91756219481E-01  0.63833885231E-01  0.88854305771E+00  0.88000000000E+00 0. -1.
        -11    1    4    4    0    0 -0.24687524022E-01 -0.53467086111E-01 -0.56092715980E-01  0.81331771446E-01  0.51100000000E-03 0. -1.
         11    1    4    4    0    0 -0.29693996990E-01 -0.29300431895E-01 -0.28958426550E-01  0.50784843760E-01  0.51100000000E-03 0.  1.
</event>
<event>
 8    1  0.1112958E+005  0.1043930E+01  0.7957747E-01            NaN
         13   -1    0    0    0    0  0.00000000000E+00  0.00000000000E+00  0.74505805969E-08  0.10566000000E+00  0.10566000000E+00 0.  1.
     999900   -1    0    0    0    0 -0.00000000000E+00 -0.00000000000E+00 -0.74505805969E-08  0.93827000000E+00  0.93827000000E+00 0. -1.
     999902    2    1    2    0    0 -0.75183541351E-02 -0.21253511651E-01  0.46182488117E-04  0.10213858314E+01  0.10211370021E+01 0.  0.
     999903    2    3    3    0    0  0.10303088825E+00 -0.41418726470E-01  0.67794079178E-01  0.13165691289E+00  0.20165086230E-01 0.  0.
         14    1    1    2    0    0  0.75183541351E-02  0.21253511651E-01 -0.46182488117E-04  0.22544168630E-01  0.00000000000E+00 0. -1.
     999901    1    3    3    0    0 -0.11054924239E+00  0.20165214819E-01 -0.67747896690E-01  0.88972891848E+00  0.88000000000E+00 0.  1.
        -11    1    4    4    0    0  0.83254156845E-01 -0.41604742248E-01  0.55488689310E-01  0.10835804064E+00  0.51100000000E-03 0. -1.
         11    1    4    4    0    0  0.19776731407E-01  0.18601577844E-03  0.12305389868E-01  0.23298872244E-01  0.51100000000E-03 0.  1.
</event>
<event>
 8    1  0.1112958E+005  0.1043930E+01  0.7957747E-01            NaN
         13   -1    0    0    0    0  0.00000000000E+00  0.00000000000E+00  0.74505805969E-08  0.10566000000E+00  0.10566000000E+00 0. -1.
     999900   -1    0    0    0    0 -0.00000000000E+00 -0.00000000000E+00 -0.74505805969E-08  0.93827000000E+00  0.93827000000E+00 0.  1.
     999902    2    1    2    0    0  0.23090661218E-01  0.19174589093E-02  0.14236477175E-02  0.10207161667E+01  0.10204521600E+01 0.  0.
     999903    2    3    3    0    0  0.54712574533E-01 -0.10816638702E+00 -0.48082697675E-01  0.13191400829E+00  0.19897906291E-01 0.  0.
         14    1    1    2    0    0 -0.23090661218E-01 -0.19174589093E-02 -0.14236477175E-02  0.23213833311E-01  0.00000000000E+00 0.  1.
     999901    1    3    3    0    0 -0.31621913315E-01  0.11008384593E+00  0.49506345393E-01  0.88880215840E+00  0.88000000000E+00 0.  1.
        -11    1    4    4    0    0  0.28164457890E-01 -0.50580553727E-01 -0.12606570580E-01  0.59252137905E-01  0.51100000000E-03 0.  1.
         11    1    4    4    0    0  0.26548116643E-01 -0.57585833294E-01 -0.35476127095E-01  0.72661870387E-01  0.51100000000E-03 0. -1.
</event>
<event>
 8    1  0.1112958E+005  0.1043930E+01  0.7957747E-01            NaN
         13   -1    0    0    0    0  0.00000000000E+00  0.00000000000E+00  0.74505805969E-08  0.10566000000E+00  0.10566000000E+00 0.  1.
     999900   -1    0    0    0    0 -0.00000000000E+00 -0.00000000000E+00 -0.74505805969E-08  0.93827000000E+00  0.93827000000E+00 0.  1.
     999902    2    1    2    0    0 -0.42749122043E-02  0.21345512383E-01  0.66555243078E-02  0.10211659543E+01  0.10209121923E+01 0.  0.
     999903    2    3    3    0    0 -0.49014026565E-02 -0.12570491189E+00  0.20012348739E-01  0.12886408579E+00  0.19486145939E-01 0.  0.
         14    1    1    2    0    0  0.42749122043E-02 -0.21345512383E-01 -0.66555243078E-02  0.22764045710E-01  0.00000000000E+00 0.  1.
     999901    1    3    3    0    0  0.62649045218E-03  0.14705042427E+00 -0.13356824431E-01  0.89230186850E+00  0.88000000000E+00 0.  1.
        -11    1    4    4    0    0 -0.25156737586E-02 -0.37230929485E-01  0.14979799070E-01  0.40213508004E-01  0.51100000000E-03 0. -1.
         11    1    4    4    0    0 -0.23857288979E-02 -0.88473982404E-01  0.50325496689E-02  0.88650577787E-01  0.51100000000E-03 0.  1.
</event>
<event>
 8    1  0.1112958E+005  0.1043930E+01  0.7957747E-01            NaN
         13   -1    0    0    0    0  0.00000000000E+00  0.00000000000E+00  0.74505805969E-08  0.10566000000E+00  0.10566000000E+00 0.  1.
     999900   -1    0    0    0    0 -0.00000000000E+00 -0.00000000000E+00 -0.74505805969E-08  0.93827000000E+00  0.93827000000E+00 0. -1.
     999902    2    1    2    0    0 -0.28882997154E-02  0.18460997789E-01  0.14347437872E-01  0.10203715686E+01  0.10200995728E+01 0.  0.
     999903    2    3    3    0    0 -0.11692185070E+00 -0.90343593890E-02  0.56270214664E-01  0.13159872667E+00  0.19988721328E-01 0.  0.
         14    1    1    2    0    0  0.28882997154E-02 -0.18460997789E-01 -0.14347437872E-01  0.23558431359E-01  0.00000000000E+00 0. -1.
     999901    1    3    3    0    0  0.11403355099E+00  0.27495357178E-01 -0.41922776792E-01  0.88877284197E+00  0.88000000000E+00 0.  1.
        -11    1    4    4    0    0 -0.54039106082E-01 -0.10489853156E-01  0.34830682405E-01  0.65143683985E-01  0.51100000000E-03 0.  1.
         11    1    4    4    0    0 -0.62882744622E-01  0.14554937668E-02  0.21439532259E-01  0.66455042682E-01  0.51100000000E-03 0. -1.
</event>
<event>
 8    1  0.1112958E+005  0.1043930E+01  0.7957747E-01            NaN
         13   -1    0    0    0    0  0.00000000000E+00  0.00000000000E+00  0.74505805969E-08  0.10566000000E+00  0.10566000000E+00 0. -1.
     999900   -1    0    0    0    0 -0.00000000000E+00 -0.00000000000E+00 -0.74505805969E-08  0.93827000000E+00  0.93827000000E+00 0. -1.
     999902    2    1    2    0    0 -0.15074548945E-01  0.93340675860E-02 -0.19195158194E-01  0.10177991573E+01  0.10174636621E+01 0.  0.
     999903    2    3    3    0    0 -0.10374959739E-01 -0.12319572714E+00 -0.23497597353E-01  0.12785267371E+00  0.22568609129E-01 0.  0.
         14    1    1    2    0    0  0.15074548945E-01 -0.93340675860E-02  0.19195158194E-01  0.26130842729E-01  0.00000000000E+00 0. -1.
     999901    1    3    3    0    0 -0.46995892059E-02  0.13252979472E+00  0.43024391584E-02  0.88994648357E+00  0.88000000000E+00 0. -1.
        -11    1    4    4    0    0 -0.14216895092E-01 -0.51300811830E-01 -0.47235666247E-02  0.53445922231E-01  0.51100000000E-03 0.  1.
         11    1    4    4    0    0  0.38419353530E-02 -0.71894915307E-01 -0.18774030728E-01  0.74406751474E-01  0.51100000000E-03 0. -1.
</event>
<event>
 8    1  0.1112958E+005  0.1043930E+01  0.7957747E-01            NaN
         13   -1    0    0    0    0  0.00000000000E+00  0.00000000000E+00  0.74505805969E-08  0.10566000000E+00  0.10566000000E+00 0.  1.
     999900   -1    0    0    0    0 -0.00000000000E+00 -0.00000000000E+00 -0.74505805969E-08  0.93827000000E+00  0.93827000000E+00 0.  1.
     999902    2    1    2    0    0  0.15383978842E-01 -0.94319559673E-02  0.15148059477E-01  0.10203696031E+01  0.10200975613E+01 0.  0.
     999903    2    3    3    0    0  0.12203027197E+00 -0.34044405794E-01 -0.32349988262E-01  0.13231821430E+00  0.20277555400E-01 0.  0.
         14    1    1    2    0    0 -0.15383978842E-01  0.94319559673E-02 -0.15148059477E-01  0.23560396947E-01  0.00000000000E+00 0.  1.
     999901    1    3    3    0    0 -0.10664629313E+00  0.24612449827E-01  0.47498047739E-01  0.88805138875E+00  0.88000000000E+00 0. -1.
        -11    1    4    4    0    0  0.44281991665E-01 -0.16079218831E-01 -0.21492611174E-01  0.51784452495E-01  0.51100000000E-03 0. -1.
         11    1    4    4    0    0  0.77748280302E-01 -0.17965186963E-01 -0.10857377088E-01  0.80533761807E-01  0.51100000000E-03 0.  1.
</event>
<event>
 8    1  0.1112958E+005  0.1043930E+01  0.7957747E-01            NaN
         13   -1    0    0    0    0  0.00000000000E+00  0.00000000000E+00  0.74505805969E-08  0.10566000000E+00  0.10566000000E+00 0.  1.
     999900   -1    0    0    0    0 -0.00000000000E+00 -0.00000000000E+00 -0.74505805969E-08  0.93827000000E+00  0.93827000000E+00 0.  1.
     999902    2    1    2    0    0 -0.54037389270E-02 -0.20421846270E-01 -0.50630466254E-02  0.10222070481E+01  0.10219762045E+01 0.  0.
     999903    2    3    3    0    0  0.10792277537E+00 -0.72244173694E-01  0.20323662756E-01  0.13306536224E+00  0.20658975868E-01 0.  0.
         14    1    1    2    0    0  0.54037389270E-02  0.20421846270E-01  0.50630466254E-02  0.21722951931E-01  0.00000000000E+00 0.  1.
     999901    1    3    3    0    0 -0.11332651430E+00  0.51822327424E-01 -0.25386709382E-01  0.88914168583E+00  0.88000000000E+00 0.  1.
        -11    1    4    4    0    0  0.30626703171E-01 -0.22925480070E-01  0.15396713698E-01  0.41241877955E-01  0.51100000000E-03 0. -1.
         11    1    4    4    0    0  0.77296072201E-01 -0.49318693624E-01  0.49269490583E-02  0.91823484286E-01  0.51100000000E-03 0.  1.
</event>
<event>
 8    1  0.1112958E+005  0.1043930E+01  0.7957747E-01            NaN
         13   -1    0    0    0    0  0.00000000000E+00  0.00000000000E+00  0.74505805969E-08  0.10566000000E+00  0.10566000000E+00 0.  1.
     999900   -1    0    0    0    0 -0.00000000000E+00 -0.00000000000E+00 -0.74505805969E-08  0.93827000000E+00  0.93827000000E+00 0.  1.
     999902    2    1    2    0    0 -0.88218898501E-02 -0.16579896007E-01  0.12996904167E-01  0.10210905996E+01  0.10208351358E+01 0.  0.
     999903    2    3    3    0    0  0.50799766380E-01  0.99341362183E-01  0.62070074394E-01  0.13013568716E+00  0.25165063720E-01 0.  0.
         14    1    1    2    0    0  0.88218898501E-02  0.16579896007E-01 -0.12996904167E-01  0.22839400388E-01  0.00000000000E+00 0.  1.
     999901    1    3    3    0    0 -0.59621656230E-01 -0.11592125819E+00 -0.49073170227E-01  0.89095491246E+00  0.88000000000E+00 0. -1.
        -11    1    4    4    0    0  0.21859559324E-01  0.24745259053E-01  0.27496876368E-01  0.42971007789E-01  0.51100000000E-03 0.  1.
         11    1    4    4    0    0  0.28940207056E-01  0.74596103129E-01  0.34573198026E-01  0.87164679368E-01  0.51100000000E-03 0. -1.
</event>
<event>
 8    1  0.1112958E+005  0.1043930E+01  0.7957747E-01            NaN
         13   -1    0    0    0    0  0.00000000000E+00  0.00000000000E+00  0.74505805969E-08  0.10566000000E+00  0.10566000000E+00 0. -1.
     999900   -1    0    0    0    0 -0.00000000000E+00 -0.00000000000E+00 -0.74505805969E-08  0.93827000000E+00  0.93827000000E+00 0.  1.
     999902    2    1    2    0    0  0.22242143117E-01 -0.71485133874E-02  0.31485328278E-02  0.10203561282E+01  0.10200837715E+01 0.  0.
     999903    2    3    3    0    0 -0.36158589482E-01 -0.11853217835E+00 -0.36359280731E-01  0.13053713887E+00  0.18990166707E-01 0.  0.
         14    1    1    2    0    0 -0.22242143117E-01  0.71485133874E-02 -0.31485328278E-02  0.23573871830E-01  0.00000000000E+00 0.  1.
     999901    1    3    3    0    0  0.58400732599E-01  0.11138366496E+00  0.39507813558E-01  0.88981898930E+00  0.88000000000E+00 0.  1.
        -11    1    4    4    0    0 -0.10909936198E-01 -0.19719129444E-01 -0.90026155374E-03  0.22559751012E-01  0.51100000000E-03 0.  1.
         11    1    4    4    0    0 -0.25248653285E-01 -0.98813048904E-01 -0.35459019177E-01  0.10797738786E+00  0.51100000000E-03 0. -1.
</event>
<event>
 8    1  0.1112958E+005  0.1043930E+01  0.7957747E-01            NaN
         13   -1    0    0    0    0  0.00000000000E+00  0.00000000000E+00  0.74505805969E-08  0.10566000000E+00  0.10566000000E+00 0. -1.
     999900   -1    0    0    0    0 -0.00000000000E+00 -0.00000000000E+00 -0.74505805969E-08  0.93827000000E+00  0.93827000000E+00 0. -1.
     999902    2    1    2    0    0 -0.17623389352E-01  0.60773346045E-02 -0.14806576608E-01  0.10201234345E+01  0.10198456104E+01 0.  0.
     999903    2    3    3    0    0  0.10730474512E+00  0.69019891792E-01 -0.42399685263E-02  0.12901151256E+00  0.18653129845E-01 0.  0.
         14    1    1    2    0    0  0.17623389352E-01 -0.60773346045E-02  0.14806576608E-01  0.23806565459E-01  0.00000000000E+00 0. -1.
     999901    1    3    3    0    0 -0.12492813447E+00 -0.62942557187E-01 -0.10566608081E-01  0.89111192198E+00  0.88000000000E+00 0.  1.
        -11    1    4    4    0    0  0.52992026119E-01  0.41167238577E-01  0.49298469546E-02  0.67286409298E-01  0.51100000000E-03 0. -1.
         11    1    4    4    0    0  0.54312718996E-01  0.27852653215E-01 -0.91698154809E-02  0.61725103263E-01  0.51100000000E-03 0.  1.
</event>
<event>
 8    1  0.1112958E+005  0.1043930E+01  0.7957747E-01            NaN
         13   -1    0    0    0    0  0.00000000000E+00  0.00000000000E+00  0.74505805969E-08  0.10566000000E+00  0.10566000000E+00 0. -1.
     999900   -1    0    0    0    0 -0.00000000000E+00 -0.00000000000E+00 -0.74505805969E-08  0.93827000000E+00  0.93827000000E+00 0.  1.
     999902    2    1    2    0    0 -0.10991011540E-01 -0.19345959744E-01  0.74131423974E-02  0.10204774272E+01  0.10202078985E+01 0.  0.
     999903    2    3    3    0    0 -0.47488567671E-01 -0.11277492845E+00  0.50270639975E-01  0.13374307635E+00  0.19665316667E-01 0.  0.
         14    1    1    2    0    0  0.10991011540E-01  0.19345959744E-01 -0.74131423974E-02  0.23452572850E-01  0.00000000000E+00 0.  1.
     999901    1    3    3    0    0  0.36497556131E-01  0.93428968711E-01 -0.42857497578E-01  0.88673435080E+00  0.88000000000E+00 0.  1.
        -11    1    4    4    0    0 -0.32364902276E-01 -0.61791842359E-01  0.20077542412E-01  0.72588480572E-01  0.51100000000E-03 0. -1.
         11    1    4    4    0    0 -0.15123665395E-01 -0.50983086096E-01  0.30193097563E-01  0.61154595774E-01  0.51100000000E-03 0.  1.
</event>
<event>
 8    1  0.1112958E+005  0.1043930E+01  0.7957747E-01            NaN
         13   -1    0    0    0    0  0.00000000000E+00  0.00000000000E+00  0.74505805969E-08  0.10566000000E+00  0.10566000000E+00 0.  1.
     999900   -1    0    0    0    0 -0.00000000000E+00 -0.00000000000E+00 -0.74505805969E-08  0.93827000000E+00  0.93827000000E+00 0.  1.
     999902    2    1    2    0    0  0.17936809861E-01  0.41343514868E-02 -0.14470016831E-01  0.10205162562E+01  0.10202476297E+01 0.  0.
     999903    2    3    3    0    0  0.11594816449E+00  0.19811597239E-01 -0.60352891950E-01  0.13374839489E+00  0.20240685186E-01 0.  0.
         14    1    1    2    0    0 -0.17936809861E-01 -0.41343514868E-02  0.14470016831E-01  0.23413743769E-01  0.00000000000E+00 0.  1.
     999901    1    3    3    0    0 -0.98011354626E-01 -0.15677245753E-01  0.45882875119E-01  0.88676786134E+00  0.88000000000E+00 0. -1.
        -11    1    4    4    0    0  0.95972537415E-01  0.15969934373E-01 -0.57987397760E-01  0.11326326042E+00  0.51100000000E-03 0. -1.
         11    1    4    4    0    0  0.19975627073E-01  0.38416628665E-02 -0.23654941903E-02  0.20485134471E-01  0.51100000000E-03 0.  1.
</event>
<event>
 8    1  0.1112958E+005  0.1043930E+01  0.7957747E-01            NaN
         13   -1    0    0    0    0  0.00000000000E+00  0.00000000000E+00  0.74505805969E-08  0.10566000000E+00  0.10566000000E+00 0.  1.
     999900   -1    0    0    0    0 -0.00000000000E+00 -0.00000000000E+00 -0.74505805969E-08  0.93827000000E+00  0.93827000000E+00 0.  1.
     999902    2    1    2    0    0  0.21440077605E-01  0.87087145125E-02 -0.37376078798E-02  0.10204888322E+01  0.10202195686E+01 0.  0.
     999903    2    3    3    0    0  0.56969903288E-01 -0.69742870852E-01  0.93240165199E-01  0.13098239138E+00  0.18788840538E-01 0.  0.
         14    1    1    2    0    0 -0.21440077605E-01 -0.87087145125E-02  0.37376078798E-02  0.23441167821E-01  0.00000000000E+00 0. -1.
     999901    1    3    3    0    0 -0.35529825684E-01  0.78451585364E-01 -0.96977773079E-01  0.88950644080E+00  0.88000000000E+00 0.  1.
        -11    1    4    4    0    0  0.37382875893E-01 -0.46981486481E-01  0.48935318316E-01  0.77457510816E-01  0.51100000000E-03 0. -1.
         11    1    4    4    0    0  0.19587027395E-01 -0.22761384371E-01  0.44304846883E-01  0.53524880560E-01  0.51100000000E-03 0.  1.
</event>
<event>
 8    1  0.1112958E+005  0.1043930E+01  0.7957747E-01            NaN
         13   -1    0    0    0    0  0.00000000000E+00  0.00000000000E+00  0.74505805969E-08  0.10566000000E+00  0.10566000000E+00 0. -1.
     999900   -1    0    0    0    0 -0.00000000000E+00 -0.00000000000E+00 -0.74505805969E-08  0.93827000000E+00  0.93827000000E+00 0. -1.
     999902    2    1    2    0    0  0.11980337222E-01  0.51998932337E-02 -0.20495874925E-01  0.10196267439E+01  0.10193370633E+01 0.  0.
     999903    2    3    3    0    0  0.83313090216E-01  0.95876534837E-01  0.25103277768E-01  0.13092550177E+00  0.19440461041E-01 0.  0.
         14    1    1    2    0    0 -0.11980337222E-01 -0.51998932337E-02  0.20495874925E-01  0.24303256130E-01  0.00000000000E+00 0. -1.
     999901    1    3    3    0    0 -0.71332752994E-01 -0.90676641603E-01 -0.45599152693E-01  0.88870124210E+00  0.88000000000E+00 0.  1.
        -11    1    4    4    0    0  0.70996793165E-01  0.72010313230E-01  0.24529956954E-01  0.10405772321E+00  0.51100000000E-03 0. -1.
         11    1    4    4    0    0  0.12316297051E-01  0.23866221607E-01  0.57332081371E-03  0.26867778557E-01  0.51100000000E-03 0.  1.
</event>
<event>
 8    1  0.1112958E+005  0.1043930E+01  0.7957747E-01            NaN
         13   -1    0    0    0    0  0.00000000000E+00  0.00000000000E+00  0.74505805969E-08  0.10566000000E+00  0.10566000000E+00 0. -1.
     999900   -1    0    0    0    0 -0.00000000000E+00 -0.00000000000E+00 -0.74505805969E-08  0.93827000000E+00  0.93827000000E+00 0.  1.
     999902    2    1    2    0    0  0.16335042644E-01 -0.17062689604E-01 -0.23104996662E-02  0.10201959021E+01  0.10199197867E+01 0.  0.
     999903    2    3    3    0    0  0.15933462682E-01 -0.11328398632E+00  0.62414982440E-01  0.13258783135E+00  0.24428798602E-01 0.  0.
         14    1    1    2    0    0 -0.16335042644E-01  0.17062689604E-01  0.23104996662E-02  0.23734097906E-01  0.00000000000E+00 0. -1.
     999901    1    3    3    0    0  0.40157996231E-03  0.96221296714E-01 -0.64725482106E-01  0.88760807074E+00  0.88000000000E+00 0.  1.
        -11    1    4    4    0    0  0.82882303733E-02 -0.79977785534E-01  0.31030958300E-01  0.86187716269E-01  0.51100000000E-03 0.  1.
         11    1    4    4    0    0  0.76452323087E-02 -0.33306200784E-01  0.31384024140E-01  0.46400115085E-01  0.51100000000E-03 0. -1.
</event>
<event>
 8    1  0.1112958E+005  0.1043930E+01  0.7957747E-01            NaN
         13   -1    0    0    0    0  0.00000000000E+00  0.00000000000E+00  0.74505805969E-08  0.10566000000E+00  0.10566000000E+00 0.  1.
     999900   -1    0    0    0    0 -0.00000000000E+00 -0.00000000000E+00 -0.74505805969E-08  0.93827000000E+00  0.93827000000E+00 0. -1.
     999902    2    1    2    0    0  0.19752564603E-01  0.40025446630E-02 -0.14417255683E-01  0.10191501406E+01  0.10188488443E+01 0.  0.
     999903    2    3    3    0    0  0.15193836563E-01 -0.31777613590E-01  0.12150684274E+00  0.12798440836E+00  0.19375927200E-01 0.  0.
         14    1    1    2    0    0 -0.19752564603E-01 -0.40025446630E-02  0.14417255683E-01  0.24779859434E-01  0.00000000000E+00 0.  1.
     999901    1    3    3    0    0  0.45587280396E-02  0.35780158253E-01 -0.13592409843E+00  0.89116573221E+00  0.88000000000E+00 0. -1.
        -11    1    4    4    0    0  0.14922531175E-01 -0.26197834308E-01  0.70607546117E-01  0.76776918073E-01  0.51100000000E-03 0. -1.
         11    1    4    4    0    0  0.27130538771E-03 -0.55797792816E-02  0.50899296626E-01  0.51207490287E-01  0.51100000000E-03 0.  1.
</event>
<event>
 8    1  0.1112958E+005  0.1043930E+01  0.7957747E-01            NaN
         13   -1    0    0    0    0  0.00000000000E+00  0.00000000000E+00  0.74505805969E-08  0.10566000000E+00  0.10566000000E+00 0. -1.
     999900   -1    0    0    0    0 -0.00000000000E+00 -0.00000000000E+00 -0.74505805969E-08  0.93827000000E+00  0.93827000000E+00 0. -1.
     999902    2    1    2    0    0 -0.44110358552E-02  0.18939047994E-01 -0.11984723782E-01  0.10210875312E+01  0.10208319979E+01 0.  0.
     999903    2    3    3    0    0 -0.89432466086E-01  0.72188060620E-01  0.62380234235E-01  0.13227132528E+00  0.19877821364E-01 0.  0.
         14    1    1    2    0    0  0.44110358552E-02 -0.18939047994E-01  0.11984723782E-01  0.22842468788E-01  0.00000000000E+00 0. -1.
     999901    1    3    3    0    0  0.85021430230E-01 -0.53249012626E-01 -0.74364958017E-01  0.88881620593E+00  0.88000000000E+00 0. -1.
        -11    1    4    4    0    0 -0.76789647870E-01  0.52624495440E-01  0.46371541993E-01  0.10400273346E+00  0.51100000000E-03 0.  1.
         11    1    4    4    0    0 -0.12642818215E-01  0.19563565179E-01  0.16008692243E-01  0.28268591816E-01  0.51100000000E-03 0. -1.
</event>
<event>
 8    1  0.1112958E+005  0.1043930E+01  0.7957747E-01            NaN
         13   -1    0    0    0    0  0.00000000000E+00  0.00000000000E+00  0.74505805969E-08  0.10566000000E+00  0.10566000000E+00 0. -1.
     999900   -1    0    0    0    0 -0.00000000000E+00 -0.00000000000E+00 -0.74505805969E-08  0.93827000000E+00  0.93827000000E+00 0.  1.
     999902    2    1    2    0    0 -0.21216044690E-01 -0.67600085480E-02 -0.53403333588E-02  0.10210315846E+01  0.10207747838E+01 0.  0.
     999903    2    3    3    0    0 -0.71959964762E-01  0.90557054209E-01 -0.60422257065E-01  0.13250495334E+00  0.22976007366E-01 0.  0.
         14    1    1    2    0    0  0.21216044690E-01  0.67600085480E-02  0.53403333588E-02  0.22898415409E-01  0.00000000000E+00 0.  1.
     999901    1    3    3    0    0  0.50743920072E-01 -0.97317062757E-01  0.55081923707E-01  0.88852663125E+00  0.88000000000E+00 0.  1.
        -11    1    4    4    0    0 -0.67466850573E-01  0.73717626215E-01 -0.46640550558E-01  0.11027994568E+00  0.51100000000E-03 0. -1.
         11    1    4    4    0    0 -0.44931141895E-02  0.16839427994E-01 -0.13781706508E-01  0.22225007662E-01  0.51100000000E-03 0.  1.
</event>
<event>
 8    1  0.1112958E+005  0.1043930E+01  0.7957747E-01            NaN
         13   -1    0    0    0    0  0.00000000000E+00  0.00000000000E+00  0.74505805969E-08  0.10566000000E+00  0.10566000000E+00 0. -1.
     999900   -1    0    0    0    0 -0.00000000000E+00 -0.00000000000E+00 -0.74505805969E-08  0.93827000000E+00  0.93827000000E+00 0. -1.
     999902    2    1    2    0    0 -0.14817556466E-01 -0.17702752470E-01  0.36061473187E-02  0.10205643902E+01  0.10202968797E+01 0.  0.
     999903    2    3    3    0    0 -0.48209893323E-01 -0.10537489053E+00  0.63016262578E-01  0.13358580319E+00  0.21120040139E-01 0.  0.
         14    1    1    2    0    0  0.14817556466E-01  0.17702752470E-01 -0.36061473187E-02  0.23365609838E-01  0.00000000000E+00 0. -1.
     999901    1    3    3    0    0  0.33392336857E-01  0.87672138061E-01 -0.59410115260E-01  0.88697858697E+00  0.88000000000E+00 0. -1.
        -11    1    4    4    0    0 -0.46403619074E-02 -0.18848052050E-01  0.30658399705E-02  0.19658141327E-01  0.51100000000E-03 0.  1.
         11    1    4    4    0    0 -0.43569531416E-01 -0.86526838481E-01  0.59950422608E-01  0.11392766186E+00  0.51100000000E-03 0. -1.
</event>
<event>
 8    1  0.1112958E+005  0.1043930E+01  0.7957747E-01            NaN
         13   -1    0    0    0    0  0.00000000000E+00  0.00000000000E+00  0.74505805969E-08  0.10566000000E+00  0.10566000000E+00 0. -1.
     999900   -1    0    0    0    0 -0.00000000000E+00 -0.00000000000E+00 -0.74505805969E-08  0.93827000000E+00  0.93827000000E+00 0.  1.
     999902    2    1    2    0    0  0.19731850176E-01  0.43942710650E-02  0.19201572178E-01  0.10160488970E+01  0.10156662863E+01 0.  0.
     999903    2    3    3    0    0 -0.26220890465E-01 -0.12084983633E+00  0.98989601877E-02  0.12594537528E+00  0.21726253804E-01 0.  0.
         14    1    1    2    0    0 -0.19731850176E-01 -0.43942710650E-02 -0.19201572178E-01  0.27881102986E-01  0.00000000000E+00 0.  1.
     999901    1    3    3    0    0  0.45952740641E-01  0.12524410740E+00  0.93026119906E-02  0.89010352173E+00  0.88000000000E+00 0. -1.
        -11    1    4    4    0    0 -0.23738617514E-01 -0.59711544169E-01  0.76530810414E-02  0.64713377589E-01  0.51100000000E-03 0. -1.
         11    1    4    4    0    0 -0.24822729511E-02 -0.61138292161E-01  0.22458791463E-02  0.61231997694E-01  0.51100000000E-03 0.  1.
</event>
<event>
 8    1  0.1112958E+005  0.1043930E+01  0.7957747E-01            NaN
         13   -1    0    0    0    0  0.00000000000E+00  0.00000000000E+00  0.74505805969E-08  0.10566000000E+00  0.10566000000E+00 0. -1.
     999900   -1    0    0    0    0 -0.00000000000E+00 -0.00000000000E+00 -0.74505805969E-08  0.93827000000E+00  0.93827000000E+00 0.  1.
     999902    2    1    2    0    0 -0.15749884987E-01  0.21254892051E-01 -0.57149876669E-02  0.10168654402E+01  0.10165052056E+01 0.  0.
     999903    2    3    3    0    0 -0.40501796230E-01  0.31019383264E-01  0.11577382733E+00  0.12812051922E+00  0.20216100355E-01 0.  0.
         14    1    1    2    0    0  0.15749884987E-01 -0.21254892051E-01  0.57149876669E-02  0.27064559801E-01  0.00000000000E+00 0. -1.
     999901    1    3    3    0    0  0.24751911243E-01 -0.97644912127E-02 -0.12148881500E+00  0.88874492098E+00  0.88000000000E+00 0.  1.
        -11    1    4    4    0    0 -0.17465314065E-01  0.15769403985E-01  0.30778015763E-01  0.38746079450E-01  0.51100000000E-03 0.  1.
         11    1    4    4    0    0 -0.23036482165E-01  0.15249979279E-01  0.84995811569E-01  0.89374439768E-01  0.51100000000E-03 0. -1.
</event>
<event>
 8    1  0.1112958E+005  0.1043930E+01  0.7957747E-01            NaN
         13   -1    0    0    0    0  0.00000000000E+00  0.00000000000E+00  0.74505805969E-08  0.10566000000E+00  0.10566000000E+00 0.  1.
     999900   -1    0    0    0    0 -0.00000000000E+00 -0.00000000000E+00 -0.74505805969E-08  0.93827000000E+00  0.93827000000E+00 0. -1.
     999902    2    1    2    0    0 -0.51850953061E-02  0.13956500992E-01 -0.18536241925E-01  0.10201547734E+01  0.10198776889E+01 0.  0.
     999903    2    3    3    0    0 -0.24347460915E-01 -0.10868211103E+00  0.58690891783E-01  0.12809454252E+00  0.23642989090E-01 0.  0.
         14    1    1    2    0    0  0.51850953061E-02 -0.13956500992E-01  0.18536241925E-01  0.23775226560E-01  0.00000000000E+00 0.  1.
     999901    1    3    3    0    0  0.19162365608E-01  0.12263861202E+00 -0.77227133707E-01  0.89206023092E+00  0.88000000000E+00 0. -1.
        -11    1    4    4    0    0 -0.17496529465E-01 -0.90346498726E-01  0.57424450278E-01  0.10847325470E+00  0.51100000000E-03 0. -1.
         11    1    4    4    0    0 -0.68509314497E-02 -0.18335612305E-01  0.12664415042E-02  0.19621287812E-01  0.51100000000E-03 0.  1.
</event>
<event>
 8    1  0.1112958E+005  0.1043930E+01  0.7957747E-01            NaN
         13   -1    0    0    0    0  0.00000000000E+00  0.00000000000E+00  0.74505805969E-08  0.10566000000E+00  0.10566000000E+00 0. -1.
     999900   -1    0    0    0    0 -0.00000000000E+00 -0.00000000000E+00 -0.74505805969E-08  0.93827000000E+00  0.93827000000E+00 0. -1.
     999902    2    1    2    0    0  0.83308083105E-02 -0.12323684140E-02  0.21160384286E-01  0.10211553878E+01  0.10209013875E+01 0.  0.
     999903    2    3    3    0    0  0.95540877893E-01  0.88778534889E-01 -0.37515273012E-02  0.13192641710E+00  0.19514557772E-01 0.  0.
         14    1    1    2    0    0 -0.83308083105E-02  0.12323684140E-02 -0.21160384286E-01  0.22774612228E-01  0.00000000000E+00 0.  1.
     999901    1    3    3    0    0 -0.87210069583E-01 -0.90010903303E-01  0.24911911587E-01  0.88922897068E+00  0.88000000000E+00 0.  1.
        -11    1    4    4    0    0  0.42641319555E-01  0.49376679320E-01  0.47620421799E-02  0.65416181184E-01  0.51100000000E-03 0.  1.
         11    1    4    4    0    0  0.52899558339E-01  0.39401855569E-01 -0.85135694811E-02  0.66510235912E-01  0.51100000000E-03 0. -1.
</event>
<event>
 8    1  0.1112958E+005  0.1043930E+01  0.7957747E-01            NaN
         13   -1    0    0    0    0  0.00000000000E+00  0.00000000000E+00  0.74505805969E-08  0.10566000000E+00  0.10566000000E+00 0. -1.
     999900   -1    0    0    0    0 -0.00000000000E+00 -0.00000000000E+00 -0.74505805969E-08  0.93827000000E+00  0.93827000000E+00 0.  1.
     999902    2    1    2    0    0 -0.16606935132E-01 -0.14909370665E-01 -0.59481657421E-02  0.10208332404E+01  0.10205719203E+01 0.  0.
     999903    2    3    3    0    0 -0.86181029235E-01 -0.99633278679E-01  0.11588099339E-01  0.13385735812E+00  0.20725545990E-01 0.  0.
         14    1    1    2    0    0  0.16606935132E-01  0.14909370665E-01  0.59481657421E-02  0.23096759595E-01  0.00000000000E+00 0. -1.
     999901    1    3    3    0    0  0.69574094103E-01  0.84723908014E-01 -0.17536265081E-01  0.88697588228E+00  0.88000000000E+00 0. -1.
        -11    1    4    4    0    0 -0.56044431681E-01 -0.50274730797E-01  0.26582445256E-02  0.75338265603E-01  0.51100000000E-03 0.  1.
         11    1    4    4    0    0 -0.30136597555E-01 -0.49358547882E-01  0.89298548131E-02  0.58519092518E-01  0.51100000000E-03 0. -1.
</event>
<event>
 8    1  0.1112958E+005  0.1043930E+01  0.7957747E-01            NaN
         13   -1    0    0    0    0  0.00000000000E+00  0.00000000000E+00  0.74505805969E-08  0.10566000000E+00  0.10566000000E+00 0. -1.
     999900   -1    0    0    0    0 -0.00000000000E+00 -0.00000000000E+00 -0.74505805969E-08  0.93827000000E+00  0.93827000000E+00 0.  1.
     999902    2    1    2    0    0  0.11811120234E-01 -0.11858511532E-02  0.20537742277E-01  0.10202085401E+01  0.10199327221E+01 0.  0.
     999903    2    3    3    0    0  0.13250848594E-01  0.11812326048E+00 -0.47077541945E-01  0.12958596927E+00  0.21155113311E-01 0.  0.
         14    1    1    2    0    0 -0.11811120234E-01  0.11858511532E-02 -0.20537742277E-01  0.23721459946E-01  0.00000000000E+00 0.  1.
     999901    1    3    3    0    0 -0.14397283603E-02 -0.11930911164E+00  0.67615284223E-01  0.89062257079E+00  0.88000000000E+00 0.  1.
        -11    1    4    4    0    0  0.18849295415E-01  0.80455401690E-01 -0.33054307873E-01  0.89001213411E-01  0.51100000000E-03 0.  1.
         11    1    4    4    0    0 -0.55984468215E-02  0.37667858794E-01 -0.14023234072E-01  0.40584755854E-01  0.51100000000E-03 0. -1.
</event>
<event>
 8    1  0.1112958E+005  0.1043930E+01  0.7957747E-01            NaN
         13   -1    0    0    0    0  0.00000000000E+00  0.00000000000E+00  0.74505805969E-08  0.10566000000E+00  0.10566000000E+00 0. -1.
     999900   -1    0    0    0    0 -0.00000000000E+00 -0.00000000000E+00 -0.74505805969E-08  0.93827000000E+00  0.93827000000E+00 0. -1.
     999902    2    1    2    0    0 -0.12696197162E-01  0.78954139602E-02 -0.20056929184E-01  0.10189137774E+01  0.10186066338E+01 0.  0.
     999903    2    3    3    0    0  0.47368778945E-01  0.58701742002E-01  0.10049066748E+00  0.12721830957E+00  0.19910507414E-01 0.  0.
         14    1    1    2    0    0  0.12696197162E-01 -0.78954139602E-02  0.20056929184E-01  0.25016222581E-01  0.00000000000E+00 0. -1.
     999901    1    3    3    0    0 -0.60064976106E-01 -0.50806328042E-01 -0.12054759667E+00  0.89169546785E+00  0.88000000000E+00 0. -1.
        -11    1    4    4    0    0  0.29682413022E-02  0.14223840351E-01  0.25694040584E-01  0.29522414083E-01  0.51100000000E-03 0.  1.
         11    1    4    4    0    0  0.44400537643E-01  0.44477901651E-01  0.74796626898E-01  0.97695895485E-01  0.51100000000E-03 0. -1.
</event>
<event>
 8    1  0.1112958E+005  0.1043930E+01  0.7957747E-01            NaN
         13   -1    0    0    0    0  0.00000000000E+00  0.00000000000E+00  0.74505805969E-08  0.10566000000E+00  0.10566000000E+00 0.  1.
     999900   -1    0    0    0    0 -0.00000000000E+00 -0.00000000000E+00 -0.74505805969E-08  0.93827000000E+00  0.93827000000E+00 0. -1.
     999902    2    1    2    0    0 -0.19155653253E-01  0.79563343150E-02 -0.11095589063E-01  0.10204065138E+01  0.10201353336E+01 0.  0.
     999903    2    3    3    0    0  0.53394360561E-02 -0.27785747839E-02 -0.13037759761E+00  0.13195648973E+00  0.19441377726E-01 0.  0.
         14    1    1    2    0    0  0.19155653253E-01 -0.79563343150E-02  0.11095589063E-01  0.23523486220E-01  0.00000000000E+00 0.  1.
     999901    1    3    3    0    0 -0.24495089309E-01  0.10734909099E-01  0.11928200855E+00  0.88845002405E+00  0.88000000000E+00 0. -1.
        -11    1    4    4    0    0  0.11588225366E-01  0.27725344495E-02 -0.81163049807E-01  0.82034600562E-01  0.51100000000E-03 0. -1.
         11    1    4    4    0    0 -0.62487893101E-02 -0.55511092334E-02 -0.49214547802E-01  0.49921889167E-01  0.51100000000E-03 0.  1.
</event>
<event>
 8    1  0.1112958E+005  0.1043930E+01  0.7957747E-01            NaN
         13   -1    0    0    0    0  0.00000000000E+00  0.00000000000E+00  0.74505805969E-08  0.10566000000E+00  0.10566000000E+00 0. -1.
     999900   -1    0    0    0    0 -0.00000000000E+00 -0.00000000000E+00 -0.74505805969E-08  0.93827000000E+00  0.93827000000E+00 0.  1.
     999902    2    1    2    0    0  0.69861760997E-02 -0.92676195273E-04  0.22667330937E-01  0.10202103217E+01  0.10199345457E+01 0.  0.
     999903    2    3    3    0    0 -0.30951030771E-01 -0.12516965757E+00  0.27874355630E-02  0.13033466009E+00  0.18813408588E-01 0.  0.
         14    1    1    2    0    0 -0.69861760997E-02  0.92676195273E-04 -0.22667330937E-01  0.23719678269E-01  0.00000000000E+00 0.  1.
     999901    1    3    3    0    0  0.37937206871E-01  0.12507698137E+00  0.19879895374E-01  0.88987566164E+00  0.88000000000E+00 0. -1.
        -11    1    4    4    0    0 -0.13378341194E-01 -0.32321906633E-01 -0.57421472283E-02  0.35453053991E-01  0.51100000000E-03 0.  1.
         11    1    4    4    0    0 -0.17572689578E-01 -0.92847750936E-01  0.85295827913E-02  0.94881606102E-01  0.51100000000E-03 0. -1.
</event>
<event>
 7    1  0.1727211E+005  0.1043930E+01  0.7957747E-01            NaN
         13   -1    0    0    0    0  0.00000000000E+00  0.00000000000E+00  0.74505805969E-08  0.10566000000E+00  0.10566000000E+00 0. -1.
     999900   -1    0    0    0    0 -0.00000000000E+00 -0.00000000000E+00 -0.74505805969E-08  0.93827000000E+00  0.93827000000E+00 0.  1.
     999903    2    1    2    0    0  0.45579085165E-01  0.22892178381E-01  0.98494329926E-01  0.11273916602E+00  0.20186175743E-01 0.  0.
         14    1    1    2    0    0 -0.30872566507E-01  0.25587581965E-01 -0.23671651449E-01  0.46563792757E-01  0.00000000000E+00 0.  1.
     999901    1    1    2    0    0 -0.14706518658E-01 -0.48479760346E-01 -0.74822678477E-01  0.88462704123E+00  0.88000000000E+00 0.  1.
        -11    1    3    3    0    0  0.28892904912E-01  0.20934544826E-01  0.50098322651E-01  0.61507383091E-01  0.51100000000E-03 0. -1.
         11    1    3    3    0    0  0.16686180253E-01  0.19576335551E-02  0.48396007275E-01  0.51231782926E-01  0.51100000000E-03 0.  1.
</event>
<event>
 8    1  0.1112958E+005  0.1043930E+01  0.7957747E-01            NaN
         13   -1    0    0    0    0  0.00000000000E+00  0.00000000000E+00  0.74505805969E-08  0.10566000000E+00  0.10566000000E+00 0.  1.
     999900   -1    0    0    0    0 -0.00000000000E+00 -0.00000000000E+00 -0.74505805969E-08  0.93827000000E+00  0.93827000000E+00 0.  1.
     999902    2    1    2    0    0 -0.67248991803E-02  0.15085706489E-01  0.18446427582E-01  0.10191696789E+01  0.10188688635E+01 0.  0.
     999903    2    3    3    0    0 -0.11499711850E+00  0.35337357550E-01 -0.45071104957E-01  0.13003106218E+00  0.20089960844E-01 0.  0.
         14    1    1    2    0    0  0.67248991803E-02 -0.15085706489E-01 -0.18446427582E-01  0.24760321076E-01  0.00000000000E+00 0. -1.
     999901    1    3    3    0    0  0.10827221932E+00 -0.20251651062E-01  0.63517532539E-01  0.88913861675E+00  0.88000000000E+00 0. -1.
        -11    1    4    4    0    0 -0.89887324504E-01  0.20803329195E-01 -0.40051849752E-01  0.10058290810E+00  0.51100000000E-03 0. -1.
         11    1    4    4    0    0 -0.25109793999E-01  0.14534028355E-01 -0.50192552052E-02  0.29448154080E-01  0.51100000000E-03 0.  1.
</event>
<event>
 8    1  0.1112958E+005  0.1043930E+01  0.7957747E-01            NaN
         13   -1    0    0    0    0  0.00000000000E+00  0.00000000000E+00  0.74505805969E-08  0.10566000000E+00  0.10566000000E+00 0.  1.
     999900   -1    0    0    0    0 -0.00000000000E+00 -0.00000000000E+00 -0.74505805969E-08  0.93827000000E+00  0.93827000000E+00 0. -1.
     999902    2    1    2    0    0 -0.64507293098E-02 -0.47781488020E-02 -0.25600700688E-01  0.10171001940E+01  0.10167462644E+01 0.  0.
     999903    2    3    3    0    0 -0.58871367670E-01  0.87073485666E-01  0.66312048243E-01  0.12601512539E+00  0.20854118214E-01 0.  0.
         14    1    1    2    0    0  0.64507293098E-02  0.47781488020E-02  0.25600700688E-01  0.26829806006E-01  0.00000000000E+00 0.  1.
     999901    1    3    3    0    0  0.52420638360E-01 -0.91851634468E-01 -0.91912748931E-01  0.89108506861E+00  0.88000000000E+00 0. -1.
        -11    1    4    4    0    0 -0.26201204271E-01  0.22416216596E-01  0.17604164264E-01  0.38718956497E-01  0.51100000000E-03 0.  1.
         11    1    4    4    0    0 -0.32670163399E-01  0.64657269070E-01  0.48707883979E-01  0.87296168889E-01  0.51100000000E-03 0. -1.
</event>
<event>
 8    1  0.1112958E+005  0.1043930E+01  0.7957747E-01            NaN
         13   -1    0    0    0    0  0.00000000000E+00  0.00000000000E+00  0.74505805969E-08  0.10566000000E+00  0.10566000000E+00 0. -1.
     999900   -1    0    0    0    0 -0.00000000000E+00 -0.00000000000E+00 -0.74505805969E-08  0.93827000000E+00  0.93827000000E+00 0. -1.
     999902    2    1    2    0    0  0.19546580303E-01 -0.15561609106E-01  0.14739845403E-02  0.10189019136E+01  0.10185944749E+01 0.  0.
     999903    2    3    3    0    0 -0.90327849680E-01  0.59683386473E-01 -0.62473698220E-01  0.12658834434E+00  0.20010469851E-01 0.  0.
         14    1    1    2    0    0 -0.19546580303E-01  0.15561609106E-01 -0.14739845403E-02  0.25028086422E-01  0.00000000000E+00 0.  1.
     999901    1    3    3    0    0  0.10987442998E+00 -0.75244995580E-01  0.63947682760E-01  0.89231356924E+00  0.88000000000E+00 0.  1.
        -11    1    4    4    0    0 -0.65067009093E-01  0.44043261085E-01 -0.34628767683E-01  0.85865809212E-01  0.51100000000E-03 0.  1.
         11    1    4    4    0    0 -0.25260840587E-01  0.15640125388E-01 -0.27844930537E-01  0.40722535124E-01  0.51100000000E-03 0. -1.
</event>
<event>
 8    1  0.1112958E+005  0.1043930E+01  0.7957747E-01            NaN
         13   -1    0    0    0    0  0.00000000000E+00  0.00000000000E+00  0.74505805969E-08  0.10566000000E+00  0.10566000000E+00 0. -1.
     999900   -1    0    0    0    0 -0.00000000000E+00 -0.00000000000E+00 -0.74505805969E-08  0.93827000000E+00  0.93827000000E+00 0. -1.
     999902    2    1    2    0    0  0.21275573342E-01 -0.72320094207E-02 -0.71394734291E-02  0.10203519581E+01  0.10200795039E+01 0.  0.
     999903    2    3    3    0    0  0.11700504099E+00 -0.40988809715E-01  0.43889906696E-01  0.13304837405E+00  0.20131661369E-01 0.  0.
         14    1    1    2    0    0 -0.21275573342E-01  0.72320094207E-02  0.71394734291E-02  0.23578041949E-01  0.00000000000E+00 0. -1.
     999901    1    3    3    0    0 -0.95729467646E-01  0.33756800295E-01 -0.51029380125E-01  0.88730358400E+00  0.88000000000E+00 0. -1.
        -11    1    4    4    0    0  0.10216839455E+00 -0.30019090215E-01  0.42080168288E-01  0.11450121531E+00  0.51100000000E-03 0.  1.
         11    1    4    4    0    0  0.14836646438E-01 -0.10969719500E-01  0.18097384075E-02  0.18547158746E-01  0.51100000000E-03 0. -1.
</event>
<event>
 8    1  0.1112958E+005  0.1043930E+01  0.7957747E-01            NaN
         13   -1    0    0    0    0  0.00000000000E+00  0.00000000000E+00  0.74505805969E-08  0.10566000000E+00  0.10566000000E+00 0. -1.
     999900   -1    0    0    0    0 -0.00000000000E+00 -0.00000000000E+00 -0.74505805969E-08  0.93827000000E+00  0.93827000000E+00 0.  1.
     999902    2    1    2    0    0 -0.21980696301E-01  0.20099588998E-02 -0.89878349176E-02  0.10200978343E+01  0.10198194053E+01 0.  0.
     999903    2    3    3    0    0  0.11509831419E+00 -0.51738092038E-01 -0.22859438080E-03  0.12782196196E+00  0.20345751588E-01 0.  0.
         14    1    1    2    0    0  0.21980696301E-01 -0.20099588998E-02  0.89878349176E-02  0.23832165684E-01  0.00000000000E+00 0.  1.
     999901    1    3    3    0    0 -0.13707901049E+00  0.53748050938E-01 -0.87592405368E-02  0.89227587236E+00  0.88000000000E+00 0.  1.
        -11    1    4    4    0    0  0.93767152605E-01 -0.40760757788E-01 -0.81086690541E-02  0.10256573462E+00  0.51100000000E-03 0.  1.
         11    1    4    4    0    0  0.21331161580E-01 -0.10977334250E-01  0.78800746733E-02  0.25256227340E-01  0.51100000000E-03 0. -1.
</event>
<event>
 8    1  0.1112958E+005  0.1043930E+01  0.7957747E-01            NaN
         13   -1    0    0    0    0  0.00000000000E+00  0.00000000000E+00  0.74505805969E-08  0.10566000000E+00  0.10566000000E+00 0. -1.
     999900   -1    0    0    0    0 -0.00000000000E+00 -0.00000000000E+00 -0.74505805969E-08  0.93827000000E+00  0.93827000000E+00 0. -1.
     999902    2    1    2    0    0  0.95893848984E-02 -0.13306423411E-01 -0.17276441338E-01  0.10201078961E+01  0.10198297050E+01 0.  0.
     999903    2    3    3    0    0  0.86890309423E-01  0.87485466861E-01  0.33822551795E-01  0.12952070492E+00  0.20688528453E-01 0.  0.
         14    1    1    2    0    0 -0.95893848984E-02  0.13306423411E-01  0.17276441338E-01  0.23822103854E-01  0.00000000000E+00 0. -1.
     999901    1    3    3    0    0 -0.77300924525E-01 -0.10079189027E+00 -0.51098993132E-01  0.89058719123E+00  0.88000000000E+00 0. -1.
        -11    1    4    4    0    0  0.54370400174E-01  0.43882064331E-01  0.11927278498E-01  0.70882276193E-01  0.51100000000E-03 0.  1.
         11    1    4    4    0    0  0.32519909249E-01  0.43603402530E-01  0.21895273297E-01  0.58638428727E-01  0.51100000000E-03 0. -1.
</event>
<event>
 8    1  0.1112958E+005  0.1043930E+01  0.7957747E-01            NaN
         13   -1    0    0    0    0  0.00000000000E+00  0.00000000000E+00  0.74505805969E-08  0.10566000000E+00  0.10566000000E+00 0.  1.
     999900   -1    0    0    0    0 -0.00000000000E+00 -0.00000000000E+00 -0.74505805969E-08  0.93827000000E+00  0.93827000000E+00 0.  1.
     999902    2    1    2    0    0  0.16351095885E-01 -0.71322073676E-02  0.15272578892E-01  0.10204464231E+01  0.10201761730E+01 0.  0.
     999903    2    3    3    0    0 -0.68644740993E-01 -0.71174211814E-01 -0.80591818689E-01  0.12886599859E+00  0.18262953216E-01 0.  0.
         14    1    1    2    0    0 -0.16351095885E-01  0.71322073676E-02 -0.15272578892E-01  0.23483576912E-01  0.00000000000E+00 0.  1.
     999901    1    3    3    0    0  0.84995836878E-01  0.64042004447E-01  0.95864397581E-01  0.89158042450E+00  0.88000000000E+00 0. -1.
        -11    1    4    4    0    0 -0.34329830875E-01 -0.32089348773E-01 -0.27070828798E-01  0.54234255645E-01  0.51100000000E-03 0.  1.
         11    1    4    4    0    0 -0.34314910119E-01 -0.39084863041E-01 -0.53520989892E-01  0.74631742948E-01  0.51100000000E-03 0. -1.
</event>
<event>
 8    1  0.1112958E+005  0.1043930E+01  0.7957747E-01            NaN
         13   -1    0    0    0    0  0.00000000000E+00  0.00000000000E+00  0.74505805969E-08  0.10566000000E+00  0.10566000000E+00 0. -1.
     999900   -1    0    0    0    0 -0.00000000000E+00 -0.00000000000E+00 -0.74505805969E-08  0.93827000000E+00  0.93827000000E+00 0.  1.
     999902    2    1    2    0    0  0.21119071941E-01  0.51721744520E-02 -0.94521491021E-02  0.10202211470E+01  0.10199456255E+01 0.  0.
     999903    2    3    3    0    0  0.69694477804E-01 -0.10802396896E+00  0.17119546277E-01  0.13124477389E+00  0.20139853585E-01 0.  0.
         14    1    1    2    0    0 -0.21119071941E-01 -0.51721744520E-02  0.94521491021E-02  0.23708853006E-01  0.00000000000E+00 0.  1.
     999901    1    3    3    0    0 -0.48575405863E-01  0.11319614341E+00 -0.26571695379E-01  0.88897637310E+00  0.88000000000E+00 0. -1.
        -11    1    4    4    0    0  0.19950980824E-01 -0.17869102379E-01 -0.42719195333E-03  0.26791604462E-01  0.51100000000E-03 0.  1.
         11    1    4    4    0    0  0.49743496980E-01 -0.90154866583E-01  0.17546738230E-01  0.10445316943E+00  0.51100000000E-03 0. -1.
</event>
<event>
 8    1  0.1112958E+005  0.1043930E+01  0.7957747E-01            NaN
         13   -1    0    0    0    0  0.00000000000E+00  0.00000000000E+00  0.74505805969E-08  0.10566000000E+00  0.10566000000E+00 0.  1.
     999900   -1    0    0    0    0 -0.00000000000E+00 -0.00000000000E+00 -0.74505805969E-08  0.93827000000E+00  0.93827000000E+00 0. -1.
     999902    2    1    2    0    0  0.83855445509E-04  0.24395566107E-01  0.22955353397E-02  0.10194265276E+01  0.10191319959E+01 0.  0.
     999903    2    3    3    0    0  0.23556617870E-01 -0.75148935736E-01  0.99168443889E-01  0.12822260097E+00  0.20109160799E-01 0.  0.
         14    1    1    2    0    0 -0.83855445509E-04 -0.24395566107E-01 -0.22955353397E-02  0.24503472405E-01  0.00000000000E+00 0. -1.
     999901    1    3    3    0    0 -0.23472762424E-01  0.99544501843E-01 -0.96872908550E-01  0.89120392663E+00  0.88000000000E+00 0. -1.
        -11    1    4    4    0    0 -0.18930920155E-02 -0.22028108084E-01  0.22632735055E-01  0.31643690686E-01  0.51100000000E-03 0.  1.
         11    1    4    4    0    0  0.25449709885E-01 -0.53120827652E-01  0.76535708834E-01  0.96578910283E-01  0.51100000000E-03 0. -1.
</event>
<event>
 8    1  0.1112958E+005  0.1043930E+01  0.7957747E-01            NaN
         13   -1    0    0    0    0  0.00000000000E+00  0.00000000000E+00  0.74505805969E-08  0.10566000000E+00  0.10566000000E+00 0. -1.
     999900   -1    0    0    0    0 -0.00000000000E+00 -0.00000000000E+00 -0.74505805969E-08  0.93827000000E+00  0.93827000000E+00 0.  1.
     999902    2    1    2    0    0  0.13202118115E-01 -0.10055480677E-01  0.17796223651E-01  0.10195966034E+01  0.10193061951E+01 0.  0.
     999903    2    3    3    0    0 -0.12653528127E+00 -0.13298055424E-01 -0.99313704758E-03  0.12836706216E+00  0.17002959822E-01 0.  0.
         14    1    1    2    0    0 -0.13202118115E-01  0.10055480677E-01 -0.17796223651E-01  0.24333396610E-01  0.00000000000E+00 0.  1.
     999901    1    3    3    0    0  0.13973739939E+00  0.32425747468E-02  0.18789360699E-01  0.89122954123E+00  0.88000000000E+00 0.  1.
        -11    1    4    4    0    0 -0.29543719545E-01 -0.10242896944E-01 -0.17660947599E-02  0.31322971029E-01  0.51100000000E-03 0.  1.
         11    1    4    4    0    0 -0.96991561727E-01 -0.30551584792E-02  0.77295771231E-03  0.97044091135E-01  0.51100000000E-03 0. -1.
</event>
<event>
 8    1  0.1112958E+005  0.1043930E+01  0.7957747E-01            NaN
         13   -1    0    0    0    0  0.00000000000E+00  0.00000000000E+00  0.74505805969E-08  0.10566000000E+00  0.10566000000E+00 0.  1.
     999900   -1    0    0    0    0 -0.00000000000E+00 -0.00000000000E+00 -0.74505805969E-08  0.93827000000E+00  0.93827000000E+00 0.  1.
     999902    2    1    2    0    0 -0.12085527346E-02 -0.20474349344E-01  0.13328258468E-01  0.10194697863E+01  0.10191763062E+01 0.  0.
     999903    2    3    3    0    0  0.46340720682E-01  0.14652952653E-01 -0.11634503783E+00  0.12800468629E+00  0.22064914905E-01 0.  0.
         14    1    1    2    0    0  0.12085527346E-02  0.20474349344E-01 -0.13328258468E-01  0.24460213706E-01  0.00000000000E+00 0. -1.
     999901    1    3    3    0    0 -0.47549273417E-01 -0.35127301997E-01  0.12967329630E+00  0.89146510000E+00  0.88000000000E+00 0. -1.
        -11    1    4    4    0    0  0.31577788832E-01  0.19861662886E-01 -0.88775888585E-01  0.96296738860E-01  0.51100000000E-03 0. -1.
         11    1    4    4    0    0  0.14762931851E-01 -0.52087102329E-02 -0.27569149247E-01  0.31707947431E-01  0.51100000000E-03 0.  1.
</event>
<event>
 8    1  0.1112958E+005  0.1043930E+01  0.7957747E-01            NaN
         13   -1    0    0    0    0  0.00000000000E+00  0.00000000000E+00  0.74505805969E-08  0.10566000000E+00  0.10566000000E+00 0.  1.
     999900   -1    0    0    0    0 -0.00000000000E+00 -0.00000000000E+00 -0.74505805969E-08  0.93827000000E+00  0.93827000000E+00 0. -1.
     999902    2    1    2    0    0  0.11969122309E-01  0.18727243895E-01  0.73041525351E-02  0.10205351246E+01  0.10202669358E+01 0.  0.
     999903    2    3    3    0    0 -0.28966199685E-01  0.93336769403E-01 -0.86177595016E-01  0.13150131248E+00  0.17754550270E-01 0.  0.
         14    1    1    2    0    0 -0.11969122309E-01 -0.18727243895E-01 -0.73041525351E-02  0.23394875444E-01  0.00000000000E+00 0. -1.
     999901    1    3    3    0    0  0.40935321994E-01 -0.74609525508E-01  0.93481747552E-01  0.88903381207E+00  0.88000000000E+00 0. -1.
        -11    1    4    4    0    0 -0.97085055475E-02  0.43545044425E-01 -0.28683774499E-01  0.53041926948E-01  0.51100000000E-03 0. -1.
         11    1    4    4    0    0 -0.19257694138E-01  0.49791724979E-01 -0.57493820518E-01  0.78459385535E-01  0.51100000000E-03 0.  1.
</event>
<event>
 8    1  0.1112958E+005  0.1043930E+01  0.7957747E-01            NaN
         13   -1    0    0    0    0  0.00000000000E+00  0.00000000000E+00  0.74505805969E-08  0.10566000000E+00  0.10566000000E+00 0. -1.
     999900   -1    0    0    0    0 -0.00000000000E+00 -0.00000000000E+00 -0.74505805969E-08  0.93827000000E+00  0.93827000000E+00 0. -1.
     999902    2    1    2    0    0  0.89920928858E-02  0.18865348864E-01  0.16328719920E-01  0.10174085706E+01  0.10170628365E+01 0.  0.
     999903    2    3    3    0    0 -0.93206258759E-01 -0.29954800216E-01 -0.75955725710E-01  0.12536354432E+00  0.19027591783E-01 0.  0.
         14    1    1    2    0    0 -0.89920928858E-02 -0.18865348864E-01 -0.16328719920E-01  0.26521429382E-01  0.00000000000E+00 0.  1.
     999901    1    3    3    0    0  0.10219835164E+00  0.48820149080E-01  0.92284445630E-01  0.89204502630E+00  0.88000000000E+00 0. -1.
        -11    1    4    4    0    0 -0.71081967431E-01 -0.28222911396E-01 -0.50806209569E-01  0.91818902593E-01  0.51100000000E-03 0.  1.
         11    1    4    4    0    0 -0.22124291328E-01 -0.17318888198E-02 -0.25149516140E-01  0.33544641729E-01  0.51100000000E-03 0. -1.
</event>
<event>
 8    1  0.1112958E+005  0.1043930E+01  0.7957747E-01            NaN
         13   -1    0    0    0    0  0.00000000000E+00  0.00000000000E+00  0.74505805969E-08  0.10566000000E+00  0.10566000000E+00 0.  1.
     999900   -1    0    0    0    0 -0.00000000000E+00 -0.00000000000E+00 -0.74505805969E-08  0.93827000000E+00  0.93827000000E+00 0. -1.
     999902    2    1    2    0    0  0.73084215958E-02  0.25025067629E-01 -0.17204086622E-01  0.10126946413E+01  0.10122128180E+01 0.  0.
     999903    2    3    3    0    0  0.44101637760E-01 -0.10515133962E+00  0.34744950553E-01  0.12084356617E+00  0.19854400529E-01 0.  0.
         14    1    1    2    0    0 -0.73084215958E-02 -0.25025067629E-01  0.17204086622E-01  0.31235358691E-01  0.00000000000E+00 0.  1.
     999901    1    3    3    0    0 -0.36793216164E-01  0.13017640724E+00 -0.51949037175E-01  0.89185107514E+00  0.88000000000E+00 0. -1.
        -11    1    4    4    0    0  0.37068207133E-01 -0.68571604329E-01  0.18013036368E-01  0.80005296703E-01  0.51100000000E-03 0. -1.
         11    1    4    4    0    0  0.70334306270E-02 -0.36579735286E-01  0.16731914185E-01  0.40838269469E-01  0.51100000000E-03 0.  1.
</event>
<event>
 8    1  0.1112958E+005  0.1043930E+01  0.7957747E-01            NaN
         13   -1    0    0    0    0  0.00000000000E+00  0.00000000000E+00  0.74505805969E-08  0.10566000000E+00  0.10566000000E+00 0.  1.
     999900   -1    0    0    0    0 -0.00000000000E+00 -0.00000000000E+00 -0.74505805969E-08  0.93827000000E+00  0.93827000000E+00 0. -1.
     999902    2    1    2    0    0  0.90270152832E-02 -0.21698531077E-01 -0.13909040262E-02  0.10203875305E+01  0.10201159074E+01 0.  0.
     999903    2    3    3    0    0  0.27279045493E-01 -0.81283674298E-01 -0.99335697429E-01  0.13276333725E+00  0.20182688218E-01 0.  0.
         14    1    1    2    0    0 -0.90270152832E-02  0.21698531077E-01  0.13909040262E-02  0.23542469493E-01  0.00000000000E+00 0. -1.
     999901    1    3    3    0    0 -0.18252030209E-01  0.59585143221E-01  0.97944793403E-01  0.88762419326E+00  0.88000000000E+00 0.  1.
        -11    1    4    4    0    0  0.28614251977E-01 -0.73205548599E-01 -0.95559209254E-01  0.12373217591E+00  0.51100000000E-03 0. -1.
         11    1    4    4    0    0 -0.13352064839E-02 -0.80781256996E-02 -0.37764881751E-02  0.90311613379E-02  0.51100000000E-03 0.  1.
</event>
<event>
 8    1  0.1112958E+005  0.1043930E+01  0.7957747E-01            NaN
         13   -1    0    0    0    0  0.00000000000E+00  0.00000000000E+00  0.74505805969E-08  0.10566000000E+00  0.10566000000E+00 0.  1.
     999900   -1    0    0    0    0 -0.00000000000E+00 -0.00000000000E+00 -0.74505805969E-08  0.93827000000E+00  0.93827000000E+00 0. -1.
     999902    2    1    2    0    0  0.26181141256E-02 -0.94804300740E-02  0.17407209070E-01  0.10239364009E+01  0.10237411827E+01 0.  0.
     999903    2    3    3    0    0 -0.13081118771E+00 -0.95621166083E-02  0.18518400071E-01  0.13387762759E+00  0.19423880280E-01 0.  0.
         14    1    1    2    0    0 -0.26181141256E-02  0.94804300740E-02 -0.17407209070E-01  0.19993599065E-01  0.00000000000E+00 0.  1.
     999901    1    3    3    0    0  0.13342930183E+00  0.81686534305E-04 -0.11111910002E-02  0.89005877334E+00  0.88000000000E+00 0.  1.
        -11    1    4    4    0    0 -0.54048711190E-01  0.51717964134E-02  0.47093607778E-02  0.54501833541E-01  0.51100000000E-03 0.  1.
         11    1    4    4    0    0 -0.76762476517E-01 -0.14733913022E-01  0.13809039293E-01  0.79375794050E-01  0.51100000000E-03 0. -1.
</event>
<event>
 8    1  0.1112958E+005  0.1043930E+01  0.7957747E-01            NaN
         13   -1    0    0    0    0  0.00000000000E+00  0.00000000000E+00  0.74505805969E-08  0.10566000000E+00  0.10566000000E+00 0.  1.
     999900   -1    0    0    0    0 -0.00000000000E+00 -0.00000000000E+00 -0.74505805969E-08  0.93827000000E+00  0.93827000000E+00 0.  1.
     999902    2    1    2    0    0 -0.16565301560E-01  0.28612848914E-02  0.16140238306E-01  0.10206254198E+01  0.10203593210E+01 0.  0.
     999903    2    3    3    0    0 -0.10978368227E+00 -0.30026050145E-02  0.74218855048E-01  0.13377865881E+00  0.18078124344E-01 0.  0.
         14    1    1    2    0    0  0.16565301560E-01 -0.28612848914E-02 -0.16140238306E-01  0.23304580228E-01  0.00000000000E+00 0. -1.
     999901    1    3    3    0    0  0.93218380705E-01  0.58638899059E-02 -0.58078616742E-01  0.88684676096E+00  0.88000000000E+00 0. -1.
        -11    1    4    4    0    0 -0.21387523880E-01 -0.59421278444E-02  0.93401814179E-02  0.24088071134E-01  0.51100000000E-03 0.  1.
         11    1    4    4    0    0 -0.88396158385E-01  0.29395228298E-02  0.64878673631E-01  0.10969058768E+00  0.51100000000E-03 0. -1.
</event>
<event>
 8    1  0.1112958E+005  0.1043930E+01  0.7957747E-01            NaN
         13   -1    0    0    0    0  0.00000000000E+00  0.00000000000E+00  0.74505805969E-08  0.10566000000E+00  0.10566000000E+00 0.  1.
     999900   -1    0    0    0    0 -0.00000000000E+00 -0.00000000000E+00 -0.74505805969E-08  0.93827000000E+00  0.93827000000E+00 0. -1.
     999902    2    1    2    0    0 -0.14578566626E-01 -0.20603858054E-02 -0.18007818327E-01  0.10206692753E+01  0.10204041886E+01 0.  0.
     999903    2    3    3    0    0  0.97864096620E-01  0.18642267326E-01 -0.82226736786E-01  0.13095245410E+00  0.21503335884E-01 0.  0.
         14    1    1    2    0    0  0.14578566626E-01  0.20603858054E-02  0.18007818327E-01  0.23260724740E-01  0.00000000000E+00 0. -1.
     999901    1    3    3    0    0 -0.11244266325E+00 -0.20702653132E-01  0.64218918459E-01  0.88971682116E+00  0.88000000000E+00 0. -1.
        -11    1    4    4    0    0  0.57121815613E-01  0.20148351021E-01 -0.42262985259E-01  0.73859859950E-01  0.51100000000E-03 0.  1.
         11    1    4    4    0    0  0.40742281007E-01 -0.15060836948E-02 -0.39963751527E-01  0.57092594151E-01  0.51100000000E-03 0. -1.
</event>
<event>
 8    1  0.1112958E+005  0.1043930E+01  0.7957747E-01            NaN
         13   -1    0    0    0    0  0.00000000000E+00  0.00000000000E+00  0.74505805969E-08  0.10566000000E+00  0.10566000000E+00 0.  1.
     999900   -1    0    0    0    0 -0.00000000000E+00 -0.00000000000E+00 -0.74505805969E-08  0.93827000000E+00  0.93827000000E+00 0. -1.
     999902    2    1    2    0    0  0.55763206013E-02 -0.39676412012E-02  0.22318035497E-01  0.10205862163E+01  0.10203192112E+01 0.  0.
     999903    2    3    3    0    0  0.17314318001E-01 -0.11673979145E+00  0.57159846763E-01  0.13262828360E+00  0.19875839941E-01 0.  0.
         14    1    1    2    0    0 -0.55763206013E-02  0.39676412012E-02 -0.22318035497E-01  0.23343783682E-01  0.00000000000E+00 0. -1.
     999901    1    3    3    0    0 -0.11737997399E-01  0.11277215025E+00 -0.34841811266E-01  0.88795793271E+00  0.88000000000E+00 0. -1.
        -11    1    4    4    0    0  0.89803695885E-03 -0.13581462358E-01  0.14215113455E-01  0.19687385852E-01  0.51100000000E-03 0.  1.
         11    1    4    4    0    0  0.16416281042E-01 -0.10315832910E+00  0.42944733307E-01  0.11294089775E+00  0.51100000000E-03 0. -1.
</event>
<event>
 8    1  0.1112958E+005  0.1043930E+01  0.7957747E-01            NaN
         13   -1    0    0    0    0  0.00000000000E+00  0.00000000000E+00  0.74505805969E-08  0.10566000000E+00  0.10566000000E+00 0. -1.
     999900   -1    0    0    0    0 -0.00000000000E+00 -0.00000000000E+00 -0.74505805969E-08  0.93827000000E+00  0.93827000000E+00 0. -1.
     999902    2    1    2    0    0 -0.84752478839E-02 -0.44149563778E-02 -0.21903730258E-01  0.10200324046E+01  0.10197524265E+01 0.  0.
     999903    2    3    3    0    0 -0.72699503439E-03  0.10740860048E+00 -0.73001793352E-01  0.13145176373E+00  0.20326543590E-01 0.  0.
         14    1    1    2    0    0  0.84752478839E-02  0.44149563778E-02  0.21903730258E-01  0.23897595396E-01  0.00000000000E+00 0. -1.
     999901    1    3    3    0    0 -0.77482528495E-02 -0.11182355686E+00  0.51098063094E-01  0.88858064088E+00  0.88000000000E+00 0. -1.
        -11    1    4    4    0    0 -0.29537250175E-02  0.27501721113E-01 -0.29499698204E-01  0.40442087864E-01  0.51100000000E-03 0. -1.
         11    1    4    4    0    0  0.22267299831E-02  0.79906879371E-01 -0.43502095148E-01  0.91009675862E-01  0.51100000000E-03 0.  1.
</event>
<event>
 8    1  0.1112958E+005  0.1043930E+01  0.7957747E-01            NaN
         13   -1    0    0    0    0  0.00000000000E+00  0.00000000000E+00  0.74505805969E-08  0.10566000000E+00  0.10566000000E+00 0. -1.
     999900   -1    0    0    0    0 -0.00000000000E+00 -0.00000000000E+00 -0.74505805969E-08  0.93827000000E+00  0.93827000000E+00 0.  1.
     999902    2    1    2    0    0 -0.29011151725E-02  0.98895830248E-02 -0.17884896790E-01  0.10232880559E+01  0.10230798383E+01 0.  0.
     999903    2    3    3    0    0  0.11480843194E+00 -0.16444288559E-01  0.58228888289E-01  0.13180484322E+00  0.23033076052E-01 0.  0.
         14    1    1    2    0    0  0.29011151725E-02 -0.98895830248E-02  0.17884896790E-01  0.20641944067E-01  0.00000000000E+00 0. -1.
     999901    1    3    3    0    0 -0.11770954712E+00  0.26333871584E-01 -0.76113785080E-01  0.89148321272E+00  0.88000000000E+00 0.  1.
        -11    1    4    4    0    0  0.10265058048E+00 -0.91188883553E-02  0.56412310240E-01  0.11748576793E+00  0.51100000000E-03 0. -1.
         11    1    4    4    0    0  0.12157851466E-01 -0.73254002039E-02  0.18165780495E-02  0.14319075292E-01  0.51100000000E-03 0.  1.
</event>
<event>
 8    1  0.1112958E+005  0.1043930E+01  0.7957747E-01            NaN
         13   -1    0    0    0    0  0.00000000000E+00  0.00000000000E+00  0.74505805969E-08  0.10566000000E+00  0.10566000000E+00 0.  1.
     999900   -1    0    0    0    0 -0.00000000000E+00 -0.00000000000E+00 -0.74505805969E-08  0.93827000000E+00  0.93827000000E+00 0.  1.
     999902    2    1    2    0    0  0.10622288591E-01  0.23334148447E-02 -0.21489743622E-01  0.10198450063E+01  0.10195605671E+01 0.  0.
     999903    2    3    3    0    0  0.99939972393E-01 -0.26396236495E-01  0.75058435511E-01  0.12960650322E+00  0.21893322089E-01 0.  0.
         14    1    1    2    0    0 -0.10622288591E-01 -0.23334148447E-02  0.21489743622E-01  0.24084993683E-01  0.00000000000E+00 0.  1.
     999901    1    3    3    0    0 -0.89317683802E-01  0.28729651340E-01 -0.96548179133E-01  0.89023850310E+00  0.88000000000E+00 0. -1.
        -11    1    4    4    0    0  0.15010094813E-01 -0.11931598213E-01  0.98895160291E-02  0.21580769923E-01  0.51100000000E-03 0. -1.
         11    1    4    4    0    0  0.84929877581E-01 -0.14464638283E-01  0.65168919482E-01  0.10802573329E+00  0.51100000000E-03 0.  1.
</event>
<event>
 8    1  0.1112958E+005  0.1043930E+01  0.7957747E-01            NaN
         13   -1    0    0    0    0  0.00000000000E+00  0.00000000000E+00  0.74505805969E-08  0.10566000000E+00  0.10566000000E+00 0. -1.
     999900   -1    0    0    0    0 -0.00000000000E+00 -0.00000000000E+00 -0.74505805969E-08  0.93827000000E+00  0.93827000000E+00 0.  1.
     999902    2    1    2    0    0 -0.19064791240E-01  0.44585025109E-02  0.87081517789E-02  0.10225015979E+01  0.10222770374E+01 0.  0.
     999903    2    3    3    0    0 -0.52383021803E-01  0.98921063436E-01  0.72044358197E-01  0.13455748087E+00  0.19646077099E-01 0.  0.
         14    1    1    2    0    0  0.19064791240E-01 -0.44585025109E-02 -0.87081517789E-02  0.21428402112E-01  0.00000000000E+00 0.  1.
     999901    1    3    3    0    0  0.33318230563E-01 -0.94462560925E-01 -0.63336206418E-01  0.88794411702E+00  0.88000000000E+00 0. -1.
        -11    1    4    4    0    0 -0.26187162126E-01  0.66132051239E-01  0.38864479767E-01  0.81055071216E-01  0.51100000000E-03 0.  1.
         11    1    4    4    0    0 -0.26195859677E-01  0.32789012197E-01  0.33179878431E-01  0.53502409653E-01  0.51100000000E-03 0. -1.
</event>
<event>
 8    1  0.1112958E+005  0.1043930E+01  0.7957747E-01            NaN
         13   -1    0    0    0    0  0.00000000000E+00  0.00000000000E+00  0.74505805969E-08  0.10566000000E+00  0.10566000000E+00 0. -1.
     999900   -1    0    0    0    0 -0.00000000000E+00 -0.00000000000E+00 -0.74505805969E-08  0.93827000000E+00  0.93827000000E+00 0.  1.
     999902    2    1    2    0    0 -0.51262573505E-02 -0.22822633709E-01 -0.52702605541E-02  0.10199523694E+01  0.10196704904E+01 0.  0.
     999903    2    3    3    0    0 -0.10062400741E+00 -0.64764989075E-01 -0.53436091113E-01  0.13248466367E+00  0.19418434480E-01 0.  0.
         14    1    1    2    0    0  0.51262573505E-02  0.22822633709E-01  0.52702605541E-02  0.23977630620E-01  0.00000000000E+00 0.  1.
     999901    1    3    3    0    0  0.95497750061E-01  0.41942355366E-01  0.48165830559E-01  0.88746770571E+00  0.88000000000E+00 0. -1.
        -11    1    4    4    0    0 -0.45111281074E-01 -0.30690571676E-01 -0.13971752191E-01  0.56324149796E-01  0.51100000000E-03 0. -1.
         11    1    4    4    0    0 -0.55512726337E-01 -0.34074417399E-01 -0.39464338921E-01  0.76160513877E-01  0.51100000000E-03 0.  1.
</event>
<event>
 8    1  0.1112958E+005  0.1043930E+01  0.7957747E-01            NaN
         13   -1    0    0    0    0  0.00000000000E+00  0.00000000000E+00  0.74505805969E-08  0.10566000000E+00  0.10566000000E+00 0. -1.
     999900   -1    0    0    0    0 -0.00000000000E+00 -0.00000000000E+00 -0.74505805969E-08  0.93827000000E+00  0.93827000000E+00 0.  1.
     999902    2    1    2    0    0  0.67640581080E-02 -0.11579652256E-01 -0.18959175876E-01  0.10207073563E+01  0.10204431469E+01 0.  0.
     999903    2    3    3    0    0 -0.40965857471E-01  0.59109253622E-01  0.10453311545E+00  0.12800056670E+00  0.16878018482E-01 0.  0.
         14    1    1    2    0    0 -0.67640581080E-02  0.11579652256E-01  0.18959175876E-01  0.23222643656E-01  0.00000000000E+00 0. -1.
     999901    1    3    3    0    0  0.47729915579E-01 -0.70688905878E-01 -0.12349229133E+00  0.89270678964E+00  0.88000000000E+00 0.  1.
        -11    1    4    4    0    0 -0.17298746708E-03  0.36022987483E-02  0.12639051908E-01  0.13153449550E-01  0.51100000000E-03 0.  1.
         11    1    4    4    0    0 -0.40792870004E-01  0.55506954873E-01  0.91894063544E-01  0.11484711715E+00  0.51100000000E-03 0. -1.
</event>
<event>
 8    1  0.1112958E+005  0.1043930E+01  0.7957747E-01            NaN
         13   -1    0    0    0    0  0.00000000000E+00  0.00000000000E+00  0.74505805969E-08  0.10566000000E+00  0.10566000000E+00 0. -1.
     999900   -1    0    0    0    0 -0.00000000000E+00 -0.00000000000E+00 -0.74505805969E-08  0.93827000000E+00  0.93827000000E+00 0.  1.
     999902    2    1    2    0    0 -0.83021570090E-02  0.94990975318E-02  0.20453313863E-01  0.10198988387E+01  0.10196156847E+01 0.  0.
     999903    2    3    3    0    0  0.72832910756E-01  0.10528250212E+00  0.18633438697E-01  0.13098901665E+00  0.20539700647E-01 0.  0.
         14    1    1    2    0    0  0.83021570090E-02 -0.94990975318E-02 -0.20453313863E-01  0.24031161289E-01  0.00000000000E+00 0.  1.
     999901    1    3    3    0    0 -0.81135067765E-01 -0.95783404589E-01  0.18198751656E-02  0.88890982206E+00  0.88000000000E+00 0. -1.
        -11    1    4    4    0    0  0.51976414279E-01  0.88154561828E-01  0.10939232636E-01  0.10292085476E+00  0.51100000000E-03 0.  1.
         11    1    4    4    0    0  0.20856496477E-01  0.17127940293E-01  0.76942060617E-02  0.28068161890E-01  0.51100000000E-03 0. -1.
</event>
<event>
 8    1  0.1112958E+005  0.1043930E+01  0.7957747E-01            NaN
         13   -1    0    0    0    0  0.00000000000E+00  0.00000000000E+00  0.74505805969E-08  0.10566000000E+00  0.10566000000E+00 0.  1.
     999900   -1    0    0    0    0 -0.00000000000E+00 -0.00000000000E+00 -0.74505805969E-08  0.93827000000E+00  0.93827000000E+00 0.  1.
     999902    2    1    2    0    0 -0.92648889039E-02 -0.14945157709E-01  0.15655900875E-01  0.10203863567E+01  0.10201147062E+01 0.  0.
     999903    2    3    3    0    0  0.38777798602E-01 -0.53215903367E-01 -0.10969318083E+00  0.12938403235E+00  0.19286883383E-01 0.  0.
         14    1    1    2    0    0  0.92648889039E-02  0.14945157709E-01 -0.15655900875E-01  0.23543643252E-01  0.00000000000E+00 0.  1.
     999901    1    3    3    0    0 -0.48042687506E-01  0.38270745658E-01  0.12534908171E+00  0.89100232440E+00  0.88000000000E+00 0. -1.
        -11    1    4    4    0    0  0.21372679168E-01 -0.26185140280E-01 -0.38299889216E-01  0.51084201289E-01  0.51100000000E-03 0. -1.
         11    1    4    4    0    0  0.17405119434E-01 -0.27030763087E-01 -0.71393291616E-01  0.78299831062E-01  0.51100000000E-03 0.  1.
</event>
<event>
 8    1  0.1112958E+005  0.1043930E+01  0.7957747E-01            NaN
         13   -1    0    0    0    0  0.00000000000E+00  0.00000000000E+00  0.74505805969E-08  0.10566000000E+00  0.10566000000E+00 0. -1.
     999900   -1    0    0    0    0 -0.00000000000E+00 -0.00000000000E+00 -0.74505805969E-08  0.93827000000E+00  0.93827000000E+00 0.  1.
     999902    2    1    2    0    0  0.92426550714E-02 -0.13612381506E-01 -0.17151836664E-01  0.10201621834E+01  0.10198852737E+01 0.  0.
     999903    2    3    3    0    0  0.62011082236E-02  0.94052502327E-01  0.84294281771E-01  0.12781007067E+00  0.18589278870E-01 0.  0.
         14    1    1    2    0    0 -0.92426550714E-02  0.13612381506E-01  0.17151836664E-01  0.23767816559E-01  0.00000000000E+00 0. -1.
     999901    1    3    3    0    0  0.30415468478E-02 -0.10766488383E+00 -0.10144611843E+00  0.89235211277E+00  0.88000000000E+00 0.  1.
        -11    1    4    4    0    0  0.80513653476E-02  0.15367491023E-01  0.14620973118E-01  0.22694013312E-01  0.51100000000E-03 0. -1.
         11    1    4    4    0    0 -0.18502571240E-02  0.78685011304E-01  0.69673308653E-01  0.10511605736E+00  0.51100000000E-03 0.  1.
</event>
<event>
 8    1  0.1112958E+005  0.1043930E+01  0.7957747E-01            NaN
         13   -1    0    0    0    0  0.00000000000E+00  0.00000000000E+00  0.74505805969E-08  0.10566000000E+00  0.10566000000E+00 0.  1.
     999900   -1    0    0    0    0 -0.00000000000E+00 -0.00000000000E+00 -0.74505805969E-08  0.93827000000E+00  0.93827000000E+00 0. -1.
     999902    2    1    2    0    0 -0.79656948806E-02 -0.20309067265E-01  0.99598828173E-02  0.10199485535E+01  0.10196665838E+01 0.  0.
     999903    2    3    3    0    0 -0.28688714012E-01  0.10904623582E+00  0.58981330706E-01  0.12890122579E+00  0.20557353412E-01 0.  0.
         14    1    1    2    0    0  0.79656948806E-02  0.20309067265E-01 -0.99598828173E-02  0.23981446450E-01  0.00000000000E+00 0.  1.
     999901    1    3    3    0    0  0.20723019132E-01 -0.12935530309E+00 -0.49021447888E-01  0.89104732776E+00  0.88000000000E+00 0.  1.
        -11    1    4    4    0    0 -0.29189856454E-01  0.75122914245E-01  0.39176709491E-01  0.89613479187E-01  0.51100000000E-03 0.  1.
         11    1    4    4    0    0  0.50114244127E-03  0.33923321576E-01  0.19804621215E-01  0.39287746601E-01  0.51100000000E-03 0. -1.
</event>
<event>
 8    1  0.1112958E+005  0.1043930E+01  0.7957747E-01            NaN
         13   -1    0    0    0    0  0.00000000000E+00  0.00000000000E+00  0.74505805969E-08  0.10566000000E+00  0.10566000000E+00 0. -1.
     999900   -1    0    0    0    0 -0.00000000000E+00 -0.00000000000E+00 -0.74505805969E-08  0.93827000000E+00  0.93827000000E+00 0. -1.
     999902    2    1    2    0    0 -0.88202029005E-02 -0.20956423919E-01  0.68591930841E-02  0.10201809745E+01  0.10199045075E+01 0.  0.
     999903    2    3    3    0    0  0.86200923736E-01  0.31417016891E-01 -0.87856666438E-01  0.12847301454E+00  0.19206598424E-01 0.  0.
         14    1    1    2    0    0  0.88202029005E-02  0.20956423919E-01 -0.68591930841E-02  0.23749025505E-01  0.00000000000E+00 0.  1.
     999901    1    3    3    0    0 -0.95021126636E-01 -0.52373440811E-01  0.94715859522E-01  0.89170795996E+00  0.88000000000E+00 0.  1.
        -11    1    4    4    0    0  0.72019734858E-01  0.18914373329E-01 -0.65330529204E-01  0.99060258906E-01  0.51100000000E-03 0. -1.
         11    1    4    4    0    0  0.14181188877E-01  0.12502643562E-01 -0.22526137234E-01  0.29412755629E-01  0.51100000000E-03 0.  1.
</event>
<event>
 8    1  0.1112958E+005  0.1043930E+01  0.7957747E-01            NaN
         13   -1    0    0    0    0  0.00000000000E+00  0.00000000000E+00  0.74505805969E-08  0.10566000000E+00  0.10566000000E+00 0. -1.
     999900   -1    0    0    0    0 -0.00000000000E+00 -0.00000000000E+00 -0.74505805969E-08  0.93827000000E+00  0.93827000000E+00 0.  1.
     999902    2    1    2    0    0  0.72922411740E-02 -0.12006886365E-01 -0.18616848230E-01  0.10206077115E+01  0.10203412036E+01 0.  0.
     999903    2    3    3    0    0  0.88109363342E-01 -0.92258403871E-01  0.25845516687E-01  0.13215477795E+00  0.22847792191E-01 0.  0.
         14    1    1    2    0    0 -0.72922411740E-02  0.12006886365E-01  0.18616848230E-01  0.23322288471E-01  0.00000000000E+00 0. -1.
     999901    1    3    3    0    0 -0.80817122168E-01  0.80251517505E-01 -0.44462364916E-01  0.88845293358E+00  0.88000000000E+00 0.  1.
        -11    1    4    4    0    0  0.56001123457E-01 -0.48071920861E-01  0.60411108519E-02  0.74052626861E-01  0.51100000000E-03 0.  1.
         11    1    4    4    0    0  0.32108239885E-01 -0.44186483009E-01  0.19804405835E-01  0.58102151085E-01  0.51100000000E-03 0. -1.
</event>
<event>
 8    1  0.1112958E+005  0.1043930E+01  0.7957747E-01            NaN
         13   -1    0    0    0    0  0.00000000000E+00  0.00000000000E+00  0.74505805969E-08  0.10566000000E+00  0.10566000000E+00 0. -1.
     999900   -1    0    0    0    0 -0.00000000000E+00 -0.00000000000E+00 -0.74505805969E-08  0.93827000000E+00  0.93827000000E+00 0. -1.
     999902    2    1    2    0    0 -0.12712062502E-01 -0.11709578048E-01  0.16347536092E-01  0.10201402399E+01  0.10198628125E+01 0.  0.
     999903    2    3    3    0    0 -0.67641525168E-02 -0.12875304261E+00  0.22411741238E-01  0.13235010429E+00  0.19777872014E-01 0.  0.
         14    1    1    2    0    0  0.12712062502E-01  0.11709578048E-01 -0.16347536092E-01  0.23789760137E-01  0.00000000000E+00 0.  1.
     999901    1    3    3    0    0 -0.59479099851E-02  0.11704346456E+00 -0.60642051456E-02  0.88779013557E+00  0.88000000000E+00 0. -1.
        -11    1    4    4    0    0 -0.13772757392E-01 -0.81664111703E-01  0.13465173622E-01  0.83906424117E-01  0.51100000000E-03 0. -1.
         11    1    4    4    0    0  0.70086048748E-02 -0.47088930904E-01  0.89465676161E-02  0.48443680177E-01  0.51100000000E-03 0.  1.
</event>
<event>
 8    1  0.1112958E+005  0.1043930E+01  0.7957747E-01            NaN
         13   -1    0    0    0    0  0.00000000000E+00  0.00000000000E+00  0.74505805969E-08  0.10566000000E+00  0.10566000000E+00 0. -1.
     999900   -1    0    0    0    0 -0.00000000000E+00 -0.00000000000E+00 -0.74505805969E-08  0.93827000000E+00  0.93827000000E+00 0. -1.
     999902    2    1    2    0    0 -0.16437590546E-01  0.15237127732E-01 -0.80725498892E-02  0.10201071012E+01  0.10198288913E+01 0.  0.
     999903    2    3    3    0    0  0.10867795300E+00 -0.39031652145E-01  0.49941119981E-01  0.12771448270E+00  0.21966025775E-01 0.  0.
         14    1    1    2    0    0  0.16437590546E-01 -0.15237127732E-01  0.80725498892E-02  0.23822898778E-01  0.00000000000E+00 0. -1.
     999901    1    3    3    0    0 -0.12511554354E+00  0.54268779877E-01 -0.58013669871E-01  0.89239261852E+00  0.88000000000E+00 0.  1.
        -11    1    4    4    0    0  0.22300193290E-01 -0.16480708116E-01  0.17150585360E-01  0.32608527412E-01  0.51100000000E-03 0.  1.
         11    1    4    4    0    0  0.86377759709E-01 -0.22550944029E-01  0.32790534621E-01  0.95105955285E-01  0.51100000000E-03 0. -1.
</event>
<event>
 8    1  0.1112958E+005  0.1043930E+01  0.7957747E-01            NaN
         13   -1    0    0    0    0  0.00000000000E+00  0.00000000000E+00  0.74505805969E-08  0.10566000000E+00  0.10566000000E+00 0.  1.
     999900   -1    0    0    0    0 -0.00000000000E+00 -0.00000000000E+00 -0.74505805969E-08  0.93827000000E+00  0.93827000000E+00 0. -1.
     999902    2    1    2    0    0  0.41558656184E-02  0.23060464269E-01 -0.15474084777E-02  0.10204470124E+01  0.10201767761E+01 0.  0.
     999903    2    3    3    0    0  0.11859159900E+00  0.37549743945E-01  0.39008856769E-01  0.13199313804E+00  0.20653013320E-01 0.  0.
         14    1    1    2    0    0 -0.41558656184E-02 -0.23060464269E-01  0.15474084777E-02  0.23482987552E-01  0.00000000000E+00 0. -1.
     999901    1    3    3    0    0 -0.11443573338E+00 -0.14489279676E-01 -0.40556265247E-01  0.88845387441E+00  0.88000000000E+00 0. -1.
        -11    1    4    4    0    0  0.54938027159E-01  0.92321612115E-02  0.10375801037E-01  0.56668668565E-01  0.51100000000E-03 0. -1.
         11    1    4    4    0    0  0.63653571842E-01  0.28317582734E-01  0.28633055732E-01  0.75324469475E-01  0.51100000000E-03 0.  1.
</event>
<event>
 8    1  0.1112958E+005  0.1043930E+01  0.7957747E-01            NaN
         13   -1    0    0    0    0  0.00000000000E+00  0.00000000000E+00  0.74505805969E-08  0.10566000000E+00  0.10566000000E+00 0. -1.
     999900   -1    0    0    0    0 -0.00000000000E+00 -0.00000000000E+00 -0.74505805969E-08  0.93827000000E+00  0.93827000000E+00 0.  1.
     999902    2    1    2    0    0  0.96222750866E-03  0.98393506342E-02 -0.22098389685E-01  0.10197209618E+01  0.10194335498E+01 0.  0.
     999903    2    3    3    0    0  0.12056801514E-03  0.41967254015E-01  0.12000043912E+00  0.12774282997E+00  0.12524387131E-01 0.  0.
         14    1    1    2    0    0 -0.96222750866E-03 -0.98393506342E-02  0.22098389685E-01  0.24209038175E-01  0.00000000000E+00 0. -1.
     999901    1    3    3    0    0  0.84165949352E-03 -0.32127903381E-01 -0.14209882880E+00  0.89197813186E+00  0.88000000000E+00 0.  1.
        -11    1    4    4    0    0  0.18974789618E-02  0.21792754010E-01  0.44751891968E-01  0.49814832224E-01  0.51100000000E-03 0. -1.
         11    1    4    4    0    0 -0.17769109466E-02  0.20174500005E-01  0.75248547150E-01  0.77927997743E-01  0.51100000000E-03 0.  1.
</event>
<event>
 8    1  0.1112958E+005  0.1043930E+01  0.7957747E-01            NaN
         13   -1    0    0    0    0  0.00000000000E+00  0.00000000000E+00  0.74505805969E-08  0.10566000000E+00  0.10566000000E+00 0.  1.
     999900   -1    0    0    0    0 -0.00000000000E+00 -0.00000000000E+00 -0.74505805969E-08  0.93827000000E+00  0.93827000000E+00 0. -1.
     999902    2    1    2    0    0 -0.11857929486E-01 -0.12434825611E-01 -0.17936901208E-01  0.10190911634E+01  0.10187884135E+01 0.  0.
     999903    2    3    3    0    0 -0.39716364774E-01 -0.12310233826E+00  0.82178557008E-02  0.13133699579E+00  0.21220226060E-01 0.  0.
         14    1    1    2    0    0  0.11857929486E-01  0.12434825611E-01  0.17936901208E-01  0.24838836620E-01  0.00000000000E+00 0.  1.
     999901    1    3    3    0    0  0.27858435288E-01  0.11066751265E+00 -0.26154756909E-01  0.88775416759E+00  0.88000000000E+00 0.  1.
        -11    1    4    4    0    0 -0.28371099257E-01 -0.53538924302E-01  0.41208183893E-02  0.60733664089E-01  0.51100000000E-03 0.  1.
         11    1    4    4    0    0 -0.11345265518E-01 -0.69563413956E-01  0.40970373114E-02  0.70603331697E-01  0.51100000000E-03 0. -1.
</event>
<event>
 8    1  0.1112958E+005  0.1043930E+01  0.7957747E-01            NaN
         13   -1    0    0    0    0  0.00000000000E+00  0.00000000000E+00  0.74505805969E-08  0.10566000000E+00  0.10566000000E+00 0. -1.
     999900   -1    0    0    0    0 -0.00000000000E+00 -0.00000000000E+00 -0.74505805969E-08  0.93827000000E+00  0.93827000000E+00 0. -1.
     999902    2    1    2    0    0  0.18935968400E-01  0.51638030990E-02  0.88438689594E-02  0.10224021162E+01  0.10221754436E+01 0.  0.
     999903    2    3    3    0    0 -0.95695278101E-01 -0.78683714722E-01 -0.34274696567E-01  0.12997288115E+00  0.19221909291E-01 0.  0.
         14    1    1    2    0    0 -0.18935968400E-01 -0.51638030990E-02 -0.88438689594E-02  0.21527883776E-01  0.00000000000E+00 0. -1.
     999901    1    3    3    0    0  0.11463124650E+00  0.83847517821E-01  0.43118565526E-01  0.89242923507E+00  0.88000000000E+00 0. -1.
        -11    1    4    4    0    0 -0.21221589715E-01 -0.17255886026E-01  0.49888240380E-03  0.27361130774E-01  0.51100000000E-03 0. -1.
         11    1    4    4    0    0 -0.74473688386E-01 -0.61427828695E-01 -0.34773578970E-01  0.10261175038E+00  0.51100000000E-03 0.  1.
</event>
<event>
 8    1  0.1112958E+005  0.1043930E+01  0.7957747E-01            NaN
         13   -1    0    0    0    0  0.00000000000E+00  0.00000000000E+00  0.74505805969E-08  0.10566000000E+00  0.10566000000E+00 0. -1.
     999900   -1    0    0    0    0 -0.00000000000E+00 -0.00000000000E+00 -0.74505805969E-08  0.93827000000E+00  0.93827000000E+00 0. -1.
     999902    2    1    2    0    0 -0.22194338730E-01 -0.64767118308E-02  0.40859539160E-02  0.10204516805E+01  0.10201815528E+01 0.  0.
     999903    2    3    3    0    0  0.11206708163E-01  0.70411765582E-01  0.10737940375E+00  0.13045336326E+00  0.20108122608E-01 0.  0.
         14    1    1    2    0    0  0.22194338730E-01  0.64767118308E-02 -0.40859539160E-02  0.23478319514E-01  0.00000000000E+00 0. -1.
     999901    1    3    3    0    0 -0.33401046894E-01 -0.76888477413E-01 -0.10329344983E+00  0.88999831723E+00  0.88000000000E+00 0. -1.
        -11    1    4    4    0    0  0.14897461451E-01  0.59440591008E-01  0.97830035785E-01  0.11543870772E+00  0.51100000000E-03 0. -1.
         11    1    4    4    0    0 -0.36907532880E-02  0.10971174575E-01  0.95493679654E-02  0.15014655538E-01  0.51100000000E-03 0.  1.
</event>
<event>
 8    1  0.1112958E+005  0.1043930E+01  0.7957747E-01            NaN
         13   -1    0    0    0    0  0.00000000000E+00  0.00000000000E+00  0.74505805969E-08  0.10566000000E+00  0.10566000000E+00 0. -1.
     999900   -1    0    0    0    0 -0.00000000000E+00 -0.00000000000E+00 -0.74505805969E-08  0.93827000000E+00  0.93827000000E+00 0.  1.
     999902    2    1    2    0    0 -0.92175781799E-02 -0.44758184942E-02 -0.21334601747E-01  0.10202622597E+01  0.10199877042E+01 0.  0.
     999903    2    3    3    0    0  0.83083812299E-01 -0.20518174625E-02  0.94926344473E-01  0.12782625075E+00  0.20528265536E-01 0.  0.
         14    1    1    2    0    0  0.92175781799E-02  0.44758184942E-02  0.21334601747E-01  0.23667740290E-01  0.00000000000E+00 0. -1.
     999901    1    3    3    0    0 -0.92301390479E-01 -0.24240010317E-02 -0.11626094622E+00  0.89243600896E+00  0.88000000000E+00 0.  1.
        -11    1    4    4    0    0  0.33092731488E-01 -0.10185616454E-01  0.44098563069E-01  0.56069778362E-01  0.51100000000E-03 0. -1.
         11    1    4    4    0    0  0.49991080811E-01  0.81337989915E-02  0.50827781404E-01  0.71756472392E-01  0.51100000000E-03 0.  1.
</event>
<event>
 8    1  0.1112958E+005  0.1043930E+01  0.7957747E-01            NaN
         13   -1    0    0    0    0  0.00000000000E+00  0.00000000000E+00  0.74505805969E-08  0.10566000000E+00  0.10566000000E+00 0. -1.
     999900   -1    0    0    0    0 -0.00000000000E+00 -0.00000000000E+00 -0.74505805969E-08  0.93827000000E+00  0.93827000000E+00 0.  1.
     999902    2    1    2    0    0  0.24392673493E-01  0.17753555713E-01 -0.28219707989E-02  0.10136289310E+01  0.10131759250E+01 0.  0.
     999903    2    3    3    0    0  0.31643571015E-03  0.94824477145E-01 -0.81417966702E-01  0.12644410096E+00  0.19168822841E-01 0.  0.
         14    1    1    2    0    0 -0.24392673493E-01 -0.17753555713E-01  0.28219707989E-02  0.30301068954E-01  0.00000000000E+00 0. -1.
     999901    1    3    3    0    0  0.24076237783E-01 -0.77070921432E-01  0.78595995903E-01  0.88718483008E+00  0.88000000000E+00 0. -1.
        -11    1    4    4    0    0  0.58785270778E-02  0.70997607046E-01 -0.52134133290E-01  0.88280497630E-01  0.51100000000E-03 0. -1.
         11    1    4    4    0    0 -0.55620913677E-02  0.23826870099E-01 -0.29283833412E-01  0.38163603334E-01  0.51100000000E-03 0.  1.
</event>
<event>
 8    1  0.1112958E+005  0.1043930E+01  0.7957747E-01            NaN
         13   -1    0    0    0    0  0.00000000000E+00  0.00000000000E+00  0.74505805969E-08  0.10566000000E+00  0.10566000000E+00 0. -1.
     999900   -1    0    0    0    0 -0.00000000000E+00 -0.00000000000E+00 -0.74505805969E-08  0.93827000000E+00  0.93827000000E+00 0. -1.
     999902    2    1    2    0    0  0.21377849401E-01 -0.54207102663E-02  0.83589926186E-02  0.10203446380E+01  0.10200720126E+01 0.  0.
     999903    2    3    3    0    0  0.70832718405E-02  0.12740732890E+00 -0.17139787365E-01  0.12989654250E+00  0.17220314923E-01 0.  0.
         14    1    1    2    0    0 -0.21377849401E-01  0.54207102663E-02 -0.83589926186E-02  0.23585362037E-01  0.00000000000E+00 0. -1.
     999901    1    3    3    0    0  0.14294577560E-01 -0.13282803916E+00  0.25498779984E-01  0.89044809546E+00  0.88000000000E+00 0. -1.
        -11    1    4    4    0    0  0.76569630114E-02  0.79891231622E-01 -0.29989377053E-02  0.80314959510E-01  0.51100000000E-03 0. -1.
         11    1    4    4    0    0 -0.57369117086E-03  0.47516097273E-01 -0.14140849660E-01  0.49581582989E-01  0.51100000000E-03 0.  1.
</event>
<event>
 8    1  0.1112958E+005  0.1043930E+01  0.7957747E-01            NaN
         13   -1    0    0    0    0  0.00000000000E+00  0.00000000000E+00  0.74505805969E-08  0.10566000000E+00  0.10566000000E+00 0. -1.
     999900   -1    0    0    0    0 -0.00000000000E+00 -0.00000000000E+00 -0.74505805969E-08  0.93827000000E+00  0.93827000000E+00 0. -1.
     999902    2    1    2    0    0 -0.16769412981E-01 -0.36144776577E-02  0.16784332154E-01  0.10199301778E+01  0.10196477706E+01 0.  0.
     999903    2    3    3    0    0  0.10177654309E+00  0.44712418331E-01 -0.58801360015E-01  0.12746066602E+00  0.20759488566E-01 0.  0.
         14    1    1    2    0    0  0.16769412981E-01  0.36144776577E-02 -0.16784332154E-01  0.23999822214E-01  0.00000000000E+00 0. -1.
     999901    1    3    3    0    0 -0.11854595607E+00 -0.48326895989E-01  0.75585692169E-01  0.89246951177E+00  0.88000000000E+00 0. -1.
        -11    1    4    4    0    0  0.44222741008E-01  0.22247402861E-01 -0.37504267925E-01  0.62108203886E-01  0.51100000000E-03 0.  1.
         11    1    4    4    0    0  0.57553802082E-01  0.22465015470E-01 -0.21297092091E-01  0.65352462131E-01  0.51100000000E-03 0. -1.
</event>
<event>
 8    1  0.1112958E+005  0.1043930E+01  0.7957747E-01            NaN
         13   -1    0    0    0    0  0.00000000000E+00  0.00000000000E+00  0.74505805969E-08  0.10566000000E+00  0.10566000000E+00 0.  1.
     999900   -1    0    0    0    0 -0.00000000000E+00 -0.00000000000E+00 -0.74505805969E-08  0.93827000000E+00  0.93827000000E+00 0.  1.
     999902    2    1    2    0    0  0.10245189376E-01  0.20677908092E-01 -0.63288702605E-02  0.10200010555E+01  0.10197203336E+01 0.  0.
     999903    2    3    3    0    0  0.32031890827E-01  0.62883644816E-01 -0.11036246463E+00  0.13260093525E+00  0.20560632655E-01 0.  0.
         14    1    1    2    0    0 -0.10245189376E-01 -0.20677908092E-01  0.63288702605E-02  0.23928944549E-01  0.00000000000E+00 0. -1.
     999901    1    3    3    0    0 -0.21786701451E-01 -0.42205736724E-01  0.10403359437E+00  0.88740012020E+00  0.88000000000E+00 0. -1.
        -11    1    4    4    0    0  0.52924460310E-02  0.12299901605E-01 -0.88053270217E-02  0.16034103325E-01  0.51100000000E-03 0. -1.
         11    1    4    4    0    0  0.26739444796E-01  0.50583743211E-01 -0.10155713761E+00  0.11656683193E+00  0.51100000000E-03 0.  1.
</event>
<event>
 8    1  0.1112958E+005  0.1043930E+01  0.7957747E-01            NaN
         13   -1    0    0    0    0  0.00000000000E+00  0.00000000000E+00  0.74505805969E-08  0.10566000000E+00  0.10566000000E+00 0.  1.
     999900   -1    0    0    0    0 -0.00000000000E+00 -0.00000000000E+00 -0.74505805969E-08  0.93827000000E+00  0.93827000000E+00 0.  1.
     999902    2    1    2    0    0 -0.12183457970E-01 -0.19725694465E-01  0.49856791679E-02  0.10202150961E+01  0.10199394323E+01 0.  0.
     999903    2    3    3    0    0  0.69583869561E-01  0.35887765092E-01 -0.99805069794E-01  0.12849773404E+00  0.20512657305E-01 0.  0.
         14    1    1    2    0    0  0.12183457970E-01  0.19725694465E-01 -0.49856791679E-02  0.23714903900E-01  0.00000000000E+00 0. -1.
     999901    1    3    3    0    0 -0.81767327531E-01 -0.55613459557E-01  0.10479074896E+00  0.89171736206E+00  0.88000000000E+00 0. -1.
        -11    1    4    4    0    0  0.45925822916E-01  0.34100251265E-01 -0.70850741539E-01  0.91060952358E-01  0.51100000000E-03 0. -1.
         11    1    4    4    0    0  0.23658046645E-01  0.17875138269E-02 -0.28954328256E-01  0.37436781679E-01  0.51100000000E-03 0.  1.
</event>
<event>
 8    1  0.1112958E+005  0.1043930E+01  0.7957747E-01            NaN
         13   -1    0    0    0    0  0.00000000000E+00  0.00000000000E+00  0.74505805969E-08  0.10566000000E+00  0.10566000000E+00 0.  1.
     999900   -1    0    0    0    0 -0.00000000000E+00 -0.00000000000E+00 -0.74505805969E-08  0.93827000000E+00  0.93827000000E+00 0. -1.
     999902    2    1    2    0    0  0.10096740824E-01  0.22839468843E-01 -0.85518468592E-02  0.10175345535E+01  0.10171921391E+01 0.  0.
     999903    2    3    3    0    0 -0.38673902523E-01 -0.76599228946E-02 -0.12005475328E+00  0.12863541033E+00  0.24074464689E-01 0.  0.
         14    1    1    2    0    0 -0.10096740824E-01 -0.22839468843E-01  0.85518468592E-02  0.26395446521E-01  0.00000000000E+00 0. -1.
     999901    1    3    3    0    0  0.48770643348E-01  0.30499391738E-01  0.11150290642E+00  0.88889914315E+00  0.88000000000E+00 0.  1.
        -11    1    4    4    0    0 -0.29143034441E-01 -0.13465679767E-02 -0.10856992844E+00  0.11242250746E+00  0.51100000000E-03 0. -1.
         11    1    4    4    0    0 -0.95308680824E-02 -0.63133549179E-02 -0.11484824841E-01  0.16212902866E-01  0.51100000000E-03 0.  1.
</event>
<event>
 8    1  0.1112958E+005  0.1043930E+01  0.7957747E-01            NaN
         13   -1    0    0    0    0  0.00000000000E+00  0.00000000000E+00  0.74505805969E-08  0.10566000000E+00  0.10566000000E+00 0.  1.
     999900   -1    0    0    0    0 -0.00000000000E+00 -0.00000000000E+00 -0.74505805969E-08  0.93827000000E+00  0.93827000000E+00 0.  1.
     999902    2    1    2    0    0  0.22398787409E-02  0.19023465212E-01 -0.11983739532E-01  0.10213353259E+01  0.10210853679E+01 0.  0.
     999903    2    3    3    0    0  0.97153554557E-02 -0.34609737871E-01  0.12275411908E+00  0.12943471832E+00  0.19812886431E-01 0.  0.
         14    1    1    2    0    0 -0.22398787409E-02 -0.19023465212E-01  0.11983739532E-01  0.22594674121E-01  0.00000000000E+00 0.  1.
     999901    1    3    3    0    0 -0.74754767148E-02  0.53633203083E-01 -0.13473785861E+00  0.89190060756E+00  0.88000000000E+00 0.  1.
        -11    1    4    4    0    0  0.82888643004E-02 -0.52679634220E-02  0.50257976406E-01  0.51211151358E-01  0.51100000000E-03 0.  1.
         11    1    4    4    0    0  0.14264911553E-02 -0.29341774449E-01  0.72496142671E-01  0.78223566960E-01  0.51100000000E-03 0. -1.
</event>
<event>
 8    1  0.1112958E+005  0.1043930E+01  0.7957747E-01            NaN
         13   -1    0    0    0    0  0.00000000000E+00  0.00000000000E+00  0.74505805969E-08  0.10566000000E+00  0.10566000000E+00 0.  1.
     999900   -1    0    0    0    0 -0.00000000000E+00 -0.00000000000E+00 -0.74505805969E-08  0.93827000000E+00  0.93827000000E+00 0. -1.
     999902    2    1    2    0    0  0.20331723016E-01  0.12769980778E-01  0.22538173870E-02  0.10198150448E+01  0.10195298890E+01 0.  0.
     999903    2    3    3    0    0  0.76794380556E-01 -0.29761822649E-01  0.10053155168E+00  0.13152708530E+00  0.20239523505E-01 0.  0.
         14    1    1    2    0    0 -0.20331723016E-01 -0.12769980778E-01 -0.22538173870E-02  0.24114955167E-01  0.00000000000E+00 0.  1.
     999901    1    3    3    0    0 -0.56462657540E-01  0.42531803427E-01 -0.98277734290E-01  0.88828795954E+00  0.88000000000E+00 0. -1.
        -11    1    4    4    0    0  0.58671875443E-01 -0.13643220216E-01  0.76615231950E-01  0.97461178496E-01  0.51100000000E-03 0.  1.
         11    1    4    4    0    0  0.18122505113E-01 -0.16118602432E-01  0.23916319727E-01  0.34065906802E-01  0.51100000000E-03 0. -1.
</event>
<event>
 8    1  0.1112958E+005  0.1043930E+01  0.7957747E-01            NaN
         13   -1    0    0    0    0  0.00000000000E+00  0.00000000000E+00  0.74505805969E-08  0.10566000000E+00  0.10566000000E+00 0.  1.
     999900   -1    0    0    0    0 -0.00000000000E+00 -0.00000000000E+00 -0.74505805969E-08  0.93827000000E+00  0.93827000000E+00 0. -1.
     999902    2    1    2    0    0 -0.66970907466E-02  0.17056532360E-01 -0.14326433628E-01  0.10206700984E+01  0.10204050308E+01 0.  0.
     999903    2    3    3    0    0  0.89308619941E-02  0.52996266284E-01 -0.12039525864E+00  0.13343478972E+00  0.20529497502E-01 0.  0.
         14    1    1    2    0    0  0.66970907466E-02 -0.17056532360E-01  0.14326433628E-01  0.23259901571E-01  0.00000000000E+00 0.  1.
     999901    1    3    3    0    0 -0.15627952741E-01 -0.35939733924E-01  0.10606882502E+00  0.88723530871E+00  0.88000000000E+00 0.  1.
        -11    1    4    4    0    0  0.84677043461E-02  0.36207264860E-01 -0.10176205462E+00  0.10834410426E+00  0.51100000000E-03 0. -1.
         11    1    4    4    0    0  0.46315764794E-03  0.16789001424E-01 -0.18633204020E-01  0.25090685461E-01  0.51100000000E-03 0.  1.
</event>
<event>
 8    1  0.1112958E+005  0.1043930E+01  0.7957747E-01            NaN
         13   -1    0    0    0    0  0.00000000000E+00  0.00000000000E+00  0.74505805969E-08  0.10566000000E+00  0.10566000000E+00 0.  1.
     999900   -1    0    0    0    0 -0.00000000000E+00 -0.00000000000E+00 -0.74505805969E-08  0.93827000000E+00  0.93827000000E+00 0.  1.
     999902    2    1    2    0    0  0.16568485389E-01 -0.16878951122E-01 -0.91346206431E-03  0.10202604391E+01  0.10199858408E+01 0.  0.
     999903    2    3    3    0    0  0.63697702039E-01  0.33841419942E-01  0.10738446614E+00  0.13092239296E+00  0.20164584348E-01 0.  0.
         14    1    1    2    0    0 -0.16568485389E-01  0.16878951122E-01  0.91346206431E-03  0.23669560875E-01  0.00000000000E+00 0.  1.
     999901    1    3    3    0    0 -0.47129216650E-01 -0.50720371064E-01 -0.10829792820E+00  0.88933804616E+00  0.88000000000E+00 0.  1.
        -11    1    4    4    0    0  0.31019145108E-01  0.16698574214E-01  0.70130908387E-01  0.78483343304E-01  0.51100000000E-03 0. -1.
         11    1    4    4    0    0  0.32678556930E-01  0.17142845728E-01  0.37253557752E-01  0.52439049656E-01  0.51100000000E-03 0.  1.
</event>
<event>
 8    1  0.1112958E+005  0.1043930E+01  0.7957747E-01            NaN
         13   -1    0    0    0    0  0.00000000000E+00  0.00000000000E+00  0.74505805969E-08  0.10566000000E+00  0.10566000000E+00 0.  1.
     999900   -1    0    0    0    0 -0.00000000000E+00 -0.00000000000E+00 -0.74505805969E-08  0.93827000000E+00  0.93827000000E+00 0. -1.
     999902    2    1    2    0    0  0.11270310610E-02 -0.65146400827E-02  0.23393555643E-01  0.10196201423E+01  0.10193303024E+01 0.  0.
     999903    2    3    3    0    0 -0.62577747212E-01 -0.25106220902E-02 -0.10863005372E+00  0.12748530702E+00  0.23016021957E-01 0.  0.
         14    1    1    2    0    0 -0.11270310610E-02  0.65146400827E-02 -0.23393555643E-01  0.24309857672E-01  0.00000000000E+00 0. -1.
     999901    1    3    3    0    0  0.63704778273E-01 -0.40040179925E-02  0.13202360936E+00  0.89213483530E+00  0.88000000000E+00 0.  1.
        -11    1    4    4    0    0 -0.17946799514E-01 -0.91072093108E-02 -0.46774022301E-01  0.50922481847E-01  0.51100000000E-03 0.  1.
         11    1    4    4    0    0 -0.44630947698E-01  0.65965872206E-02 -0.61856031416E-01  0.76562825177E-01  0.51100000000E-03 0. -1.
</event>
<event>
 8    1  0.1112958E+005  0.1043930E+01  0.7957747E-01            NaN
         13   -1    0    0    0    0  0.00000000000E+00  0.00000000000E+00  0.74505805969E-08  0.10566000000E+00  0.10566000000E+00 0.  1.
     999900   -1    0    0    0    0 -0.00000000000E+00 -0.00000000000E+00 -0.74505805969E-08  0.93827000000E+00  0.93827000000E+00 0. -1.
     999902    2    1    2    0    0  0.16809157668E-01  0.68749671322E-02  0.15513718687E-01  0.10200451005E+01  0.10197654234E+01 0.  0.
     999903    2    3    3    0    0  0.10720441413E-01  0.12660785270E+00 -0.24839033156E-01  0.13099989307E+00  0.19987951011E-01 0.  0.
         14    1    1    2    0    0 -0.16809157668E-01 -0.68749671322E-02 -0.15513718687E-01  0.23884899457E-01  0.00000000000E+00 0. -1.
     999901    1    3    3    0    0  0.60887162551E-02 -0.11973288557E+00  0.40352751843E-01  0.88904520747E+00  0.88000000000E+00 0. -1.
        -11    1    4    4    0    0  0.13829682227E-01  0.48199994726E-01 -0.91256886037E-02  0.50970961494E-01  0.51100000000E-03 0.  1.
         11    1    4    4    0    0 -0.31092408137E-02  0.78407857976E-01 -0.15713344553E-01  0.80028931574E-01  0.51100000000E-03 0. -1.
</event>
<event>
 8    1  0.1112958E+005  0.1043930E+01  0.7957747E-01            NaN
         13   -1    0    0    0    0  0.00000000000E+00  0.00000000000E+00  0.74505805969E-08  0.10566000000E+00  0.10566000000E+00 0. -1.
     999900   -1    0    0    0    0 -0.00000000000E+00 -0.00000000000E+00 -0.74505805969E-08  0.93827000000E+00  0.93827000000E+00 0. -1.
     999902    2    1    2    0    0 -0.20781954353E-01 -0.40655250099E-02  0.97776562240E-02  0.10206057491E+01  0.10203391957E+01 0.  0.
     999903    2    3    3    0    0 -0.12282544243E-02  0.12818346953E+00  0.12771378786E-01  0.13050400988E+00  0.20872901272E-01 0.  0.
         14    1    1    2    0    0  0.20781954353E-01  0.40655250099E-02 -0.97776562240E-02  0.23324250932E-01  0.00000000000E+00 0.  1.
     999901    1    3    3    0    0 -0.19553699928E-01 -0.13224899454E+00 -0.29937225616E-02  0.89010173919E+00  0.88000000000E+00 0. -1.
        -11    1    4    4    0    0  0.39407058589E-03  0.59217852368E-02 -0.38695112853E-02  0.71033140578E-02  0.51100000000E-03 0. -1.
         11    1    4    4    0    0 -0.16223250102E-02  0.12226168429E+00  0.16640890071E-01  0.12340069582E+00  0.51100000000E-03 0.  1.
</event>
<event>
 8    1  0.1112958E+005  0.1043930E+01  0.7957747E-01            NaN
         13   -1    0    0    0    0  0.00000000000E+00  0.00000000000E+00  0.74505805969E-08  0.10566000000E+00  0.10566000000E+00 0. -1.
     999900   -1    0    0    0    0 -0.00000000000E+00 -0.00000000000E+00 -0.74505805969E-08  0.93827000000E+00  0.93827000000E+00 0.  1.
     999902    2    1    2    0    0  0.50885980099E-02 -0.17620563625E-01 -0.15081743062E-01  0.10201847465E+01  0.10199083684E+01 0.  0.
     999903    2    3    3    0    0  0.54946845362E-01 -0.11432001565E+00 -0.35496726414E-01  0.13324991210E+00  0.20181667280E-01 0.  0.
         14    1    1    2    0    0 -0.50885980099E-02  0.17620563625E-01  0.15081743062E-01  0.23745253545E-01  0.00000000000E+00 0.  1.
     999901    1    3    3    0    0 -0.49858247352E-01  0.96699452026E-01  0.20414983352E-01  0.88693483436E+00  0.88000000000E+00 0. -1.
        -11    1    4    4    0    0  0.15009732481E-01 -0.36908283975E-01 -0.20670122012E-01  0.44889069494E-01  0.51100000000E-03 0.  1.
         11    1    4    4    0    0  0.39937112881E-01 -0.77411731676E-01 -0.14826604402E-01  0.88360842603E-01  0.51100000000E-03 0. -1.
</event>
<event>
 8    1  0.1112958E+005  0.1043930E+01  0.7957747E-01            NaN
         13   -1    0    0    0    0  0.00000000000E+00  0.00000000000E+00  0.74505805969E-08  0.10566000000E+00  0.10566000000E+00 0. -1.
     999900   -1    0    0    0    0 -0.00000000000E+00 -0.00000000000E+00 -0.74505805969E-08  0.93827000000E+00  0.93827000000E+00 0.  1.
     999902    2    1    2    0    0 -0.12072912464E-01  0.38871836605E-02 -0.18836617456E-01  0.10212213327E+01  0.10209688178E+01 0.  0.
     999903    2    3    3    0    0  0.89570369494E-01  0.70627778554E-01 -0.62865094872E-01  0.13176972044E+00  0.20002621744E-01 0.  0.
         14    1    1    2    0    0  0.12072912464E-01 -0.38871836605E-02  0.18836617456E-01  0.22708667275E-01  0.00000000000E+00 0. -1.
     999901    1    3    3    0    0 -0.10164328196E+00 -0.66740594894E-01  0.44028477415E-01  0.88945161229E+00  0.88000000000E+00 0. -1.
        -11    1    4    4    0    0  0.57817388907E-01  0.33782019447E-01 -0.40208352077E-01  0.78109205576E-01  0.51100000000E-03 0. -1.
         11    1    4    4    0    0  0.31752980587E-01  0.36845759107E-01 -0.22656742794E-01  0.53660514863E-01  0.51100000000E-03 0.  1.
</event>
<event>
 8    1  0.1112958E+005  0.1043930E+01  0.7957747E-01            NaN
         13   -1    0    0    0    0  0.00000000000E+00  0.00000000000E+00  0.74505805969E-08  0.10566000000E+00  0.10566000000E+00 0. -1.
     999900   -1    0    0    0    0 -0.00000000000E+00 -0.00000000000E+00 -0.74505805969E-08  0.93827000000E+00  0.93827000000E+00 0.  1.
     999902    2    1    2    0    0 -0.14531837217E-01 -0.18347397551E-01  0.26845231394E-02  0.10203713932E+01  0.10200993933E+01 0.  0.
     999903    2    3    3    0    0 -0.29468778412E-02  0.30305962263E-01  0.12535763913E+00  0.13045563646E+00  0.19416486803E-01 0.  0.
         14    1    1    2    0    0  0.14531837217E-01  0.18347397551E-01 -0.26845231394E-02  0.23558606798E-01  0.00000000000E+00 0. -1.
     999901    1    3    3    0    0 -0.11584959376E-01 -0.48653359814E-01 -0.12267311599E+00  0.88991575674E+00  0.88000000000E+00 0.  1.
        -11    1    4    4    0    0  0.45352405770E-02  0.27791896066E-01  0.95287934692E-01  0.99363018840E-01  0.51100000000E-03 0. -1.
         11    1    4    4    0    0 -0.74821184182E-02  0.25140661968E-02  0.30069704435E-01  0.31092617624E-01  0.51100000000E-03 0.  1.
</event>
<event>
 7    1  0.1112958E+005  0.1043930E+01  0.7957747E-01            NaN
         13   -1    0    0    0    0  0.00000000000E+00  0.00000000000E+00  0.74505805969E-08  0.10566000000E+00  0.10566000000E+00 0. -1.
     999900   -1    0    0    0    0 -0.00000000000E+00 -0.00000000000E+00 -0.74505805969E-08  0.93827000000E+00  0.93827000000E+00 0. -1.
     999903    2    1    2    0    0  0.71599450772E-01 -0.75338226898E-01  0.34995422921E-01  0.11158236961E+00  0.20581928925E-01 0.  0.
         14    1    1    2    0    0 -0.41616686428E-01 -0.32590459997E-02 -0.24237976811E-01  0.48270586178E-01  0.00000000000E+00 0.  1.
     999901    1    1    2    0    0 -0.29982764344E-01  0.78597272898E-01 -0.10757446110E-01  0.88407704422E+00  0.88000000000E+00 0. -1.
        -11    1    3    3    0    0  0.42817317071E-01 -0.30388423940E-01  0.15362404522E-01  0.54708715434E-01  0.51100000000E-03 0.  1.
         11    1    3    3    0    0  0.28782133701E-01 -0.44949802958E-01  0.19633018399E-01  0.56873654172E-01  0.51100000000E-03 0. -1.
</event>
<event>
 8    1  0.1112958E+005  0.1043930E+01  0.7957747E-01            NaN
         13   -1    0    0    0    0  0.00000000000E+00  0.00000000000E+00  0.74505805969E-08  0.10566000000E+00  0.10566000000E+00 0.  1.
     999900   -1    0    0    0    0 -0.00000000000E+00 -0.00000000000E+00 -0.74505805969E-08  0.93827000000E+00  0.93827000000E+00 0. -1.
     999902    2    1    2    0    0  0.18779954234E-01  0.10951154618E-01  0.28699308826E-02  0.10220016856E+01  0.10217664089E+01 0.  0.
     999903    2    3    3    0    0  0.39945815367E-01  0.81741669672E-01  0.96658915220E-01  0.13393881381E+00  0.17868722021E-01 0.  0.
         14    1    1    2    0    0 -0.18779954234E-01 -0.10951154618E-01 -0.28699308826E-02  0.21928314385E-01  0.00000000000E+00 0.  1.
     999901    1    3    3    0    0 -0.21165861133E-01 -0.70790515054E-01 -0.93788984338E-01  0.88806287181E+00  0.88000000000E+00 0. -1.
        -11    1    4    4    0    0  0.21101386095E-01  0.47002254306E-01  0.67015878257E-01  0.84533244730E-01  0.51100000000E-03 0.  1.
         11    1    4    4    0    0  0.18844429272E-01  0.34739415365E-01  0.29643036963E-01  0.49405569078E-01  0.51100000000E-03 0. -1.
</event>
<event>
 8    1  0.1112958E+005  0.1043930E+01  0.7957747E-01            NaN
         13   -1    0    0    0    0  0.00000000000E+00  0.00000000000E+00  0.74505805969E-08  0.10566000000E+00  0.10566000000E+00 0. -1.
     999900   -1    0    0    0    0 -0.00000000000E+00 -0.00000000000E+00 -0.74505805969E-08  0.93827000000E+00  0.93827000000E+00 0. -1.
     999902    2    1    2    0    0  0.21741298389E-01 -0.34443637364E-02 -0.78050600065E-02  0.10205747723E+01  0.10203075023E+01 0.  0.
     999903    2    3    3    0    0 -0.11513181912E-01  0.10088215849E+00  0.78198340320E-01  0.12962782187E+00  0.19458379021E-01 0.  0.
         14    1    1    2    0    0 -0.21741298389E-01  0.34443637364E-02  0.78050600065E-02  0.23355227657E-01  0.00000000000E+00 0. -1.
     999901    1    3    3    0    0  0.33254480301E-01 -0.10432652222E+00 -0.86003400326E-01  0.89094695048E+00  0.88000000000E+00 0. -1.
        -11    1    4    4    0    0  0.27274863020E-02  0.60261670694E-01  0.44670886315E-01  0.75064354667E-01  0.51100000000E-03 0. -1.
         11    1    4    4    0    0 -0.14240668214E-01  0.40620487792E-01  0.33527454004E-01  0.54563467198E-01  0.51100000000E-03 0.  1.
</event>
<event>
 8    1  0.1112958E+005  0.1043930E+01  0.7957747E-01            NaN
         13   -1    0    0    0    0  0.00000000000E+00  0.00000000000E+00  0.74505805969E-08  0.10566000000E+00  0.10566000000E+00 0.  1.
     999900   -1    0    0    0    0 -0.00000000000E+00 -0.00000000000E+00 -0.74505805969E-08  0.93827000000E+00  0.93827000000E+00 0.  1.
     999902    2    1    2    0    0  0.15271358738E-01 -0.17037740423E-01  0.85485887578E-02  0.10195050667E+01  0.10192124429E+01 0.  0.
     999903    2    3    3    0    0 -0.54229462490E-03 -0.12805508521E+00 -0.20065918025E-01  0.13192762644E+00  0.24573534959E-01 0.  0.
         14    1    1    2    0    0 -0.15271358738E-01  0.17037740423E-01 -0.85485887578E-02  0.24424933289E-01  0.00000000000E+00 0.  1.
     999901    1    3    3    0    0  0.15813653362E-01  0.11101734479E+00  0.28614506783E-01  0.88757744027E+00  0.88000000000E+00 0. -1.
        -11    1    4    4    0    0  0.75532541843E-02 -0.64445748986E-01 -0.52200001388E-03  0.64890984090E-01  0.51100000000E-03 0.  1.
         11    1    4    4    0    0 -0.80955488092E-02 -0.63609336226E-01 -0.19543918011E-01  0.67036642352E-01  0.51100000000E-03 0. -1.
</event>
<event>
 8    1  0.1112958E+005  0.1043930E+01  0.7957747E-01            NaN
         13   -1    0    0    0    0  0.00000000000E+00  0.00000000000E+00  0.74505805969E-08  0.10566000000E+00  0.10566000000E+00 0. -1.
     999900   -1    0    0    0    0 -0.00000000000E+00 -0.00000000000E+00 -0.74505805969E-08  0.93827000000E+00  0.93827000000E+00 0. -1.
     999902    2    1    2    0    0 -0.90457384722E-03 -0.20360586904E-01  0.12264268822E-01  0.10201437846E+01  0.10198664409E+01 0.  0.
     999903    2    3    3    0    0 -0.58706173302E-01 -0.57363293999E-01  0.10254122613E+00  0.13286696520E+00  0.20049067403E-01 0.  0.
         14    1    1    2    0    0  0.90457384722E-03  0.20360586904E-01 -0.12264268822E-01  0.23786215392E-01  0.00000000000E+00 0.  1.
     999901    1    3    3    0    0  0.57801599455E-01  0.37002707094E-01 -0.90276957310E-01  0.88727681940E+00  0.88000000000E+00 0. -1.
        -11    1    4    4    0    0 -0.32013769120E-01 -0.31109747205E-01  0.39829984199E-01  0.59827974617E-01  0.51100000000E-03 0. -1.
         11    1    4    4    0    0 -0.26692404182E-01 -0.26253546794E-01  0.62711241932E-01  0.73038990587E-01  0.51100000000E-03 0.  1.
</event>
<event>
 8    1  0.1112958E+005  0.1043930E+01  0.7957747E-01            NaN
         13   -1    0    0    0    0  0.00000000000E+00  0.00000000000E+00  0.74505805969E-08  0.10566000000E+00  0.10566000000E+00 0.  1.
     999900   -1    0    0    0    0 -0.00000000000E+00 -0.00000000000E+00 -0.74505805969E-08  0.93827000000E+00  0.93827000000E+00 0.  1.
     999902    2    1    2    0    0  0.14727568059E-01  0.14401677687E-01 -0.11828401507E-01  0.10201766705E+01  0.10199001021E+01 0.  0.
     999903    2    3    3    0    0  0.99516847810E-01 -0.63904655032E-01 -0.54150389653E-01  0.13163164946E+00  0.20179655747E-01 0.  0.
         14    1    1    2    0    0 -0.14727568059E-01 -0.14401677687E-01  0.11828401507E-01  0.23753329521E-01  0.00000000000E+00 0.  1.
     999901    1    3    3    0    0 -0.84789279751E-01  0.78306332719E-01  0.42321988146E-01  0.88854502102E+00  0.88000000000E+00 0.  1.
        -11    1    4    4    0    0  0.25324833415E-01 -0.20019060345E-01 -0.24298472442E-01  0.40407757283E-01  0.51100000000E-03 0.  1.
         11    1    4    4    0    0  0.74192014395E-01 -0.43885594687E-01 -0.29851917211E-01  0.91223892173E-01  0.51100000000E-03 0. -1.
</event>
<event>
 8    1  0.1112958E+005  0.1043930E+01  0.7957747E-01            NaN
         13   -1    0    0    0    0  0.00000000000E+00  0.00000000000E+00  0.74505805969E-08  0.10566000000E+00  0.10566000000E+00 0. -1.
     999900   -1    0    0    0    0 -0.00000000000E+00 -0.00000000000E+00 -0.74505805969E-08  0.93827000000E+00  0.93827000000E+00 0. -1.
     999902    2    1    2    0    0  0.24390459102E-01  0.91777120581E-02 -0.53750416633E-02  0.10173214306E+01  0.10169733906E+01 0.  0.
     999903    2    3    3    0    0 -0.39009178527E-01  0.84781030156E-01  0.84257417363E-01  0.12728246881E+00  0.19798368650E-01 0.  0.
         14    1    1    2    0    0 -0.24390459102E-01 -0.91777120581E-02  0.53750416633E-02  0.26608569422E-01  0.00000000000E+00 0. -1.
     999901    1    3    3    0    0  0.63399637629E-01 -0.75603318097E-01 -0.89632459027E-01  0.89003896177E+00  0.88000000000E+00 0. -1.
        -11    1    4    4    0    0 -0.35558488835E-01  0.61560621780E-01  0.55727492615E-01  0.90332335496E-01  0.51100000000E-03 0.  1.
         11    1    4    4    0    0 -0.34506896924E-02  0.23220408376E-01  0.28529924749E-01  0.36950133311E-01  0.51100000000E-03 0. -1.
</event>
<event>
 8    1  0.1112958E+005  0.1043930E+01  0.7957747E-01            NaN
         13   -1    0    0    0    0  0.00000000000E+00  0.00000000000E+00  0.74505805969E-08  0.10566000000E+00  0.10566000000E+00 0.  1.
     999900   -1    0    0    0    0 -0.00000000000E+00 -0.00000000000E+00 -0.74505805969E-08  0.93827000000E+00  0.93827000000E+00 0. -1.
     999902    2    1    2    0    0  0.12310550129E-01  0.11335375237E-01  0.15875009056E-01  0.10208636546E+01  0.10206030301E+01 0.  0.
     999903    2    3    3    0    0 -0.10521685432E+00 -0.55440486242E-01 -0.41755338744E-01  0.12867927713E+00  0.25896217864E-01 0.  0.
         14    1    1    2    0    0 -0.12310550129E-01 -0.11335375237E-01 -0.15875009056E-01  0.23066345371E-01  0.00000000000E+00 0. -1.
     999901    1    3    3    0    0  0.11752740445E+00  0.66775861478E-01  0.57630347800E-01  0.89218437750E+00  0.88000000000E+00 0. -1.
        -11    1    4    4    0    0 -0.12029404008E-01 -0.13387837820E-01 -0.13807471863E-01  0.22690265810E-01  0.51100000000E-03 0.  1.
         11    1    4    4    0    0 -0.93187450315E-01 -0.42052648422E-01 -0.27947866881E-01  0.10598901132E+00  0.51100000000E-03 0. -1.
</event>
<event>
 8    1  0.1112958E+005  0.1043930E+01  0.7957747E-01            NaN
         13   -1    0    0    0    0  0.00000000000E+00  0.00000000000E+00  0.74505805969E-08  0.10566000000E+00  0.10566000000E+00 0. -1.
     999900   -1    0    0    0    0 -0.00000000000E+00 -0.00000000000E+00 -0.74505805969E-08  0.93827000000E+00  0.93827000000E+00 0.  1.
     999902    2    1    2    0    0 -0.31960307734E-02 -0.68280367428E-02  0.10982715325E-01  0.10306087112E+01  0.10305226145E+01 0.  0.
     999903    2    3    3    0    0 -0.15314958383E-01  0.70901475235E-01  0.11872553920E+00  0.14055407160E+00  0.19953101119E-01 0.  0.
         14    1    1    2    0    0  0.31960307734E-02  0.68280367428E-02 -0.10982715325E-01  0.13321288766E-01  0.00000000000E+00 0.  1.
     999901    1    3    3    0    0  0.12118927609E-01 -0.77729511978E-01 -0.10774282387E+00  0.89005463963E+00  0.88000000000E+00 0.  1.
        -11    1    4    4    0    0 -0.17355014310E-01  0.33870714246E-01  0.56910084097E-01  0.68464885877E-01  0.51100000000E-03 0.  1.
         11    1    4    4    0    0  0.20400559275E-02  0.37030760990E-01  0.61815455102E-01  0.72089185722E-01  0.51100000000E-03 0. -1.
</event>
<event>
 8    1  0.1112958E+005  0.1043930E+01  0.7957747E-01            NaN
         13   -1    0    0    0    0  0.00000000000E+00  0.00000000000E+00  0.74505805969E-08  0.10566000000E+00  0.10566000000E+00 0.  1.
     999900   -1    0    0    0    0 -0.00000000000E+00 -0.00000000000E+00 -0.74505805969E-08  0.93827000000E+00  0.93827000000E+00 0. -1.
     999902    2    1    2    0    0 -0.12440582490E-01  0.90190961589E-02  0.19666556039E-01  0.10189723235E+01  0.10186666336E+01 0.  0.
     999903    2    3    3    0    0  0.10411876307E+00  0.69634969997E-01  0.24796622104E-01  0.12920455452E+00  0.19728116280E-01 0.  0.
         14    1    1    2    0    0  0.12440582490E-01 -0.90190961589E-02 -0.19666556039E-01  0.24957676467E-01  0.00000000000E+00 0. -1.
     999901    1    3    3    0    0 -0.11655934556E+00 -0.60615873838E-01 -0.51300660653E-02  0.88976776901E+00  0.88000000000E+00 0. -1.
        -11    1    4    4    0    0  0.28350430005E-01  0.29469047934E-01  0.10951009387E-01  0.42336242100E-01  0.51100000000E-03 0. -1.
         11    1    4    4    0    0  0.75768333061E-01  0.40165922063E-01  0.13845612717E-01  0.86868312419E-01  0.51100000000E-03 0.  1.
</event>
<event>
 8    1  0.1112958E+005  0.1043930E+01  0.7957747E-01            NaN
         13   -1    0    0    0    0  0.00000000000E+00  0.00000000000E+00  0.74505805969E-08  0.10566000000E+00  0.10566000000E+00 0.  1.
     999900   -1    0    0    0    0 -0.00000000000E+00 -0.00000000000E+00 -0.74505805969E-08  0.93827000000E+00  0.93827000000E+00 0.  1.
     999902    2    1    2    0    0  0.15475693008E-01  0.16730208081E-01  0.79329783643E-02  0.10197985044E+01  0.10195129525E+01 0.  0.
     999903    2    3    3    0    0  0.90111010754E-01  0.63116914370E-01  0.72059789622E-01  0.13309990556E+00  0.20475166451E-01 0.  0.
         14    1    1    2    0    0 -0.15475693008E-01 -0.16730208081E-01 -0.79329783643E-02  0.24131495649E-01  0.00000000000E+00 0. -1.
     999901    1    3    3    0    0 -0.74635317746E-01 -0.46386706289E-01 -0.64126811258E-01  0.88669859879E+00  0.88000000000E+00 0.  1.
        -11    1    4    4    0    0  0.33350562762E-01  0.13616348472E-01  0.17192871804E-01  0.39918929646E-01  0.51100000000E-03 0.  1.
         11    1    4    4    0    0  0.56760447992E-01  0.49500565898E-01  0.54866917818E-01  0.93180975914E-01  0.51100000000E-03 0. -1.
</event>
<event>
 8    1  0.1112958E+005  0.1043930E+01  0.7957747E-01            NaN
         13   -1    0    0    0    0  0.00000000000E+00  0.00000000000E+00  0.74505805969E-08  0.10566000000E+00  0.10566000000E+00 0. -1.
     999900   -1    0    0    0    0 -0.00000000000E+00 -0.00000000000E+00 -0.74505805969E-08  0.93827000000E+00  0.93827000000E+00 0. -1.
     999902    2    1    2    0    0 -0.35065907508E-02 -0.13242283861E-01 -0.20898975279E-01  0.10189415741E+01  0.10186351211E+01 0.  0.
     999903    2    3    3    0    0 -0.31070065192E-01  0.10143033008E+00  0.66318413689E-01  0.12680009069E+00  0.20655996562E-01 0.  0.
         14    1    1    2    0    0  0.35065907508E-02  0.13242283861E-01  0.20898975279E-01  0.24988425886E-01  0.00000000000E+00 0. -1.
     999901    1    3    3    0    0  0.27563474441E-01 -0.11467261394E+00 -0.87217388968E-01  0.89214148343E+00  0.88000000000E+00 0. -1.
        -11    1    4    4    0    0 -0.62969779712E-02  0.39311699892E-02  0.37650999281E-02  0.83392522160E-02  0.51100000000E-03 0.  1.
         11    1    4    4    0    0 -0.24773087221E-01  0.97499160087E-01  0.62553313761E-01  0.11846083847E+00  0.51100000000E-03 0. -1.
</event>
<event>
 8    1  0.1112958E+005  0.1043930E+01  0.7957747E-01            NaN
         13   -1    0    0    0    0  0.00000000000E+00  0.00000000000E+00  0.74505805969E-08  0.10566000000E+00  0.10566000000E+00 0.  1.
     999900   -1    0    0    0    0 -0.00000000000E+00 -0.00000000000E+00 -0.74505805969E-08  0.93827000000E+00  0.93827000000E+00 0. -1.
     999902    2    1    2    0    0 -0.23780246291E-02 -0.13464813376E-01 -0.19525893080E-01  0.10200927036E+01  0.10198141533E+01 0.  0.
     999903    2    3    3    0    0  0.28203815623E-01  0.66638909646E-01 -0.10875850653E+00  0.13143398691E+00  0.14501057829E-01 0.  0.
         14    1    1    2    0    0  0.23780246291E-02  0.13464813376E-01  0.19525893080E-01  0.23837296427E-01  0.00000000000E+00 0.  1.
     999901    1    3    3    0    0 -0.30581840252E-01 -0.80103723022E-01  0.89232613450E-01  0.88865871666E+00  0.88000000000E+00 0.  1.
        -11    1    4    4    0    0  0.53455944546E-02  0.99570882008E-02 -0.27653645385E-01  0.29878156061E-01  0.51100000000E-03 0.  1.
         11    1    4    4    0    0  0.22858221168E-01  0.56681821445E-01 -0.81104861145E-01  0.10155583085E+00  0.51100000000E-03 0. -1.
</event>
<event>
 8    1  0.1112958E+005  0.1043930E+01  0.7957747E-01            NaN
         13   -1    0    0    0    0  0.00000000000E+00  0.00000000000E+00  0.74505805969E-08  0.10566000000E+00  0.10566000000E+00 0. -1.
     999900   -1    0    0    0    0 -0.00000000000E+00 -0.00000000000E+00 -0.74505805969E-08  0.93827000000E+00  0.93827000000E+00 0.  1.
     999902    2    1    2    0    0 -0.13581215498E-01  0.81840194500E-02  0.21143828146E-01  0.10175010564E+01  0.10171577610E+01 0.  0.
     999903    2    3    3    0    0 -0.92358866868E-01 -0.20699184077E-01 -0.82949823414E-01  0.12740238433E+00  0.19800954993E-01 0.  0.
         14    1    1    2    0    0  0.13581215498E-01 -0.81840194500E-02 -0.21143828146E-01  0.26428943555E-01  0.00000000000E+00 0.  1.
     999901    1    3    3    0    0  0.78777651370E-01  0.28883203527E-01  0.10409365156E+00  0.89009867211E+00  0.88000000000E+00 0. -1.
        -11    1    4    4    0    0 -0.54305943943E-01 -0.19559026005E-01 -0.41322514394E-01  0.70989452475E-01  0.51100000000E-03 0. -1.
         11    1    4    4    0    0 -0.38052922925E-01 -0.11401580720E-02 -0.41627309020E-01  0.56412931858E-01  0.51100000000E-03 0.  1.
</event>
<event>
 8    1  0.1112958E+005  0.1043930E+01  0.7957747E-01            NaN
         13   -1    0    0    0    0  0.00000000000E+00  0.00000000000E+00  0.74505805969E-08  0.10566000000E+00  0.10566000000E+00 0. -1.
     999900   -1    0    0    0    0 -0.00000000000E+00 -0.00000000000E+00 -0.74505805969E-08  0.93827000000E+00  0.93827000000E+00 0.  1.
     999902    2    1    2    0    0  0.19036915398E-01 -0.10572292224E-01  0.81049659660E-02  0.10206949406E+01  0.10204304454E+01 0.  0.
     999903    2    3    3    0    0  0.47993440904E-01 -0.93256991032E-02  0.12204112735E+00  0.13287655648E+00  0.19282205892E-01 0.  0.
         14    1    1    2    0    0 -0.19036915398E-01  0.10572292224E-01 -0.81049659660E-02  0.23235059373E-01  0.00000000000E+00 0. -1.
     999901    1    3    3    0    0 -0.28956525506E-01 -0.12465931209E-02 -0.11393616138E+00  0.88781838415E+00  0.88000000000E+00 0.  1.
        -11    1    4    4    0    0  0.20898854854E-01  0.12243340129E-02  0.31888385429E-01  0.38149592059E-01  0.51100000000E-03 0. -1.
         11    1    4    4    0    0  0.27094586050E-01 -0.10550033116E-01  0.90152741916E-01  0.94726964419E-01  0.51100000000E-03 0.  1.
</event>
<event>
 8    1  0.1112958E+005  0.1043930E+01  0.7957747E-01            NaN
         13   -1    0    0    0    0  0.00000000000E+00  0.00000000000E+00  0.74505805969E-08  0.10566000000E+00  0.10566000000E+00 0. -1.
     999900   -1    0    0    0    0 -0.00000000000E+00 -0.00000000000E+00 -0.74505805969E-08  0.93827000000E+00  0.93827000000E+00 0. -1.
     999902    2    1    2    0    0  0.23781683478E-01 -0.10860486331E-02 -0.65929589745E-02  0.10192274682E+01  0.10189280724E+01 0.  0.
     999903    2    3    3    0    0  0.71902531260E-01  0.96562075123E-01  0.47553340682E-01  0.13086797234E+00  0.19258702482E-01 0.  0.
         14    1    1    2    0    0 -0.23781683478E-01  0.10860486331E-02  0.65929589745E-02  0.24702531828E-01  0.00000000000E+00 0. -1.
     999901    1    3    3    0    0 -0.48120847782E-01 -0.97648123756E-01 -0.54146299656E-01  0.88835949583E+00  0.88000000000E+00 0. -1.
        -11    1    4    4    0    0  0.14965073843E-01  0.16726697860E-01  0.14117402164E-02  0.22494221210E-01  0.51100000000E-03 0. -1.
         11    1    4    4    0    0  0.56937457416E-01  0.79835377263E-01  0.46141600465E-01  0.10837375113E+00  0.51100000000E-03 0.  1.
</event>
<event>
 8    1  0.1112958E+005  0.1043930E+01  0.7957747E-01            NaN
         13   -1    0    0    0    0  0.00000000000E+00  0.00000000000E+00  0.74505805969E-08  0.10566000000E+00  0.10566000000E+00 0. -1.
     999900   -1    0    0    0    0 -0.00000000000E+00 -0.00000000000E+00 -0.74505805969E-08  0.93827000000E+00  0.93827000000E+00 0. -1.
     999902    2    1    2    0    0 -0.11371174019E-01  0.19674687771E-01 -0.11960057702E-01  0.10182504377E+01  0.10179265760E+01 0.  0.
     999903    2    3    3    0    0 -0.10995209925E+00 -0.27422842338E-01 -0.60805473437E-01  0.13015007697E+00  0.20006512033E-01 0.  0.
         14    1    1    2    0    0  0.11371174019E-01 -0.19674687771E-01  0.11960057702E-01  0.25679562257E-01  0.00000000000E+00 0.  1.
     999901    1    3    3    0    0  0.98580925235E-01  0.47097530109E-01  0.48845415735E-01  0.88810036077E+00  0.88000000000E+00 0. -1.
        -11    1    4    4    0    0 -0.74061721180E-01 -0.87740653748E-02 -0.37740049720E-01  0.83586453695E-01  0.51100000000E-03 0.  1.
         11    1    4    4    0    0 -0.35890378074E-01 -0.18648776963E-01 -0.23065423717E-01  0.46563623277E-01  0.51100000000E-03 0. -1.
</event>
<event>
 8    1  0.1112958E+005  0.1043930E+01  0.7957747E-01            NaN
         13   -1    0    0    0    0  0.00000000000E+00  0.00000000000E+00  0.74505805969E-08  0.10566000000E+00  0.10566000000E+00 0. -1.
     999900   -1    0    0    0    0 -0.00000000000E+00 -0.00000000000E+00 -0.74505805969E-08  0.93827000000E+00  0.93827000000E+00 0.  1.
     999902    2    1    2    0    0  0.20810378592E-01 -0.42195237245E-02 -0.98949845260E-02  0.10205037977E+01  0.10202348818E+01 0.  0.
     999903    2    3    3    0    0 -0.11955017016E+00 -0.39129837244E-01  0.15478064752E-01  0.12833587329E+00  0.20177674213E-01 0.  0.
         14    1    1    2    0    0 -0.20810378592E-01  0.42195237245E-02  0.98949845260E-02  0.23426202347E-01  0.00000000000E+00 0. -1.
     999901    1    3    3    0    0  0.14036054875E+00  0.34910313519E-01 -0.25373049278E-01  0.89216792436E+00  0.88000000000E+00 0.  1.
        -11    1    4    4    0    0 -0.12225072023E-01 -0.10534330259E-01 -0.31138267792E-03  0.16148764044E-01  0.51100000000E-03 0. -1.
         11    1    4    4    0    0 -0.10732509814E+00 -0.28595506985E-01  0.15789447430E-01  0.11218710924E+00  0.51100000000E-03 0.  1.
</event>
<event>
 8    1  0.1112958E+005  0.1043930E+01  0.7957747E-01            NaN
         13   -1    0    0    0    0  0.00000000000E+00  0.00000000000E+00  0.74505805969E-08  0.10566000000E+00  0.10566000000E+00 0.  1.
     999900   -1    0    0    0    0 -0.00000000000E+00 -0.00000000000E+00 -0.74505805969E-08  0.93827000000E+00  0.93827000000E+00 0. -1.
     999902    2    1    2    0    0 -0.15623432679E-01  0.16298616444E-01  0.43859130579E-02  0.10209305917E+01  0.10206714948E+01 0.  0.
     999903    2    3    3    0    0 -0.51631184598E-01  0.26810892465E-01 -0.11661918800E+00  0.13185843459E+00  0.20050151764E-01 0.  0.
         14    1    1    2    0    0  0.15623432679E-01 -0.16298616444E-01 -0.43859130579E-02  0.22999408254E-01  0.00000000000E+00 0.  1.
     999901    1    3    3    0    0  0.36007751919E-01 -0.10512276021E-01  0.12100510106E+00  0.88907215715E+00  0.88000000000E+00 0.  1.
        -11    1    4    4    0    0 -0.42828972912E-02  0.94448330697E-02 -0.13179999874E-01  0.16778605383E-01  0.51100000000E-03 0.  1.
         11    1    4    4    0    0 -0.47348287307E-01  0.17366059395E-01 -0.10343918812E+00  0.11507982921E+00  0.51100000000E-03 0. -1.
</event>
<event>
 7    1  0.1112958E+005  0.1043930E+01  0.7957747E-01            NaN
         13   -1    0    0    0    0  0.00000000000E+00  0.00000000000E+00  0.74505805969E-08  0.10566000000E+00  0.10566000000E+00 0. -1.
     999900   -1    0    0    0    0 -0.00000000000E+00 -0.00000000000E+00 -0.74505805969E-08  0.93827000000E+00  0.93827000000E+00 0.  1.
     999903    2    1    2    0    0 -0.12485254258E-01 -0.26975880860E-01 -0.93041828121E-01  0.99760887471E-01  0.20294658583E-01 0.  0.
         14    1    1    2    0    0  0.22908200778E-01  0.76163885491E-02 -0.46987677662E-01  0.52826479056E-01  0.00000000000E+00 0.  1.
     999901    1    1    2    0    0 -0.10422946520E-01  0.19359492311E-01  0.14002950578E+00  0.89134263347E+00  0.88000000000E+00 0. -1.
        -11    1    3    3    0    0 -0.76408652284E-02  0.81690860412E-03 -0.22696427266E-01  0.23967459038E-01  0.51100000000E-03 0.  1.
         11    1    3    3    0    0 -0.48443890293E-02 -0.27792789465E-01 -0.70345400855E-01  0.75793428433E-01  0.51100000000E-03 0. -1.
</event>
<event>
 8    1  0.1112958E+005  0.1043930E+01  0.7957747E-01            NaN
         13   -1    0    0    0    0  0.00000000000E+00  0.00000000000E+00  0.74505805969E-08  0.10566000000E+00  0.10566000000E+00 0. -1.
     999900   -1    0    0    0    0 -0.00000000000E+00 -0.00000000000E+00 -0.74505805969E-08  0.93827000000E+00  0.93827000000E+00 0.  1.
     999902    2    1    2    0    0 -0.17991637744E-02 -0.38257438491E-02  0.25407530302E-01  0.10181731387E+01  0.10178472992E+01 0.  0.
     999903    2    3    3    0    0 -0.35734633738E-01 -0.11883499685E+00 -0.26780773323E-01  0.12850895297E+00  0.19965486401E-01 0.  0.
         14    1    1    2    0    0  0.17991637744E-02  0.38257438491E-02 -0.25407530302E-01  0.25756861267E-01  0.00000000000E+00 0.  1.
     999901    1    3    3    0    0  0.33935469964E-01  0.11500925301E+00  0.52188303625E-01  0.88966418577E+00  0.88000000000E+00 0. -1.
        -11    1    4    4    0    0 -0.31159495424E-01 -0.72527611727E-01 -0.13228912243E-01  0.80040201512E-01  0.51100000000E-03 0.  1.
         11    1    4    4    0    0 -0.45751383137E-02 -0.46307385127E-01 -0.13551861080E-01  0.48468751455E-01  0.51100000000E-03 0. -1.
</event>
<event>
 8    1  0.1112958E+005  0.1043930E+01  0.7957747E-01            NaN
         13   -1    0    0    0    0  0.00000000000E+00  0.00000000000E+00  0.74505805969E-08  0.10566000000E+00  0.10566000000E+00 0. -1.
     999900   -1    0    0    0    0 -0.00000000000E+00 -0.00000000000E+00 -0.74505805969E-08  0.93827000000E+00  0.93827000000E+00 0. -1.
     999902    2    1    2    0    0 -0.44446948347E-02  0.11943121879E-01  0.19732785003E-01  0.10204400814E+01  0.10201696836E+01 0.  0.
     999903    2    3    3    0    0  0.12753278148E+00  0.11630305618E-01 -0.11698348518E-01  0.13004350218E+00  0.19354243450E-01 0.  0.
         14    1    1    2    0    0  0.44446948347E-02 -0.11943121879E-01 -0.19732785003E-01  0.23489918611E-01  0.00000000000E+00 0.  1.
     999901    1    3    3    0    0 -0.13197747632E+00  0.31281626070E-03  0.31431133521E-01  0.89039657921E+00  0.88000000000E+00 0.  1.
        -11    1    4    4    0    0  0.73027269713E-01 -0.29607552559E-02 -0.67049468376E-02  0.73395951023E-01  0.51100000000E-03 0.  1.
         11    1    4    4    0    0  0.54505511772E-01  0.14591060874E-01 -0.49934016800E-02  0.56647551159E-01  0.51100000000E-03 0. -1.
</event>
<event>
 8    1  0.1112958E+005  0.1043930E+01  0.7957747E-01            NaN
         13   -1    0    0    0    0  0.00000000000E+00  0.00000000000E+00  0.74505805969E-08  0.10566000000E+00  0.10566000000E+00 0.  1.
     999900   -1    0    0    0    0 -0.00000000000E+00 -0.00000000000E+00 -0.74505805969E-08  0.93827000000E+00  0.93827000000E+00 0. -1.
     999902    2    1    2    0    0  0.19801140619E-01 -0.88719259621E-02 -0.95817713435E-02  0.10202106707E+01  0.10199349028E+01 0.  0.
     999903    2    3    3    0    0 -0.11684302450E+00 -0.44545439433E-01  0.21512493883E-01  0.12840851734E+00  0.19732495644E-01 0.  0.
         14    1    1    2    0    0 -0.19801140619E-01  0.88719259621E-02  0.95817713435E-02  0.23719329294E-01  0.00000000000E+00 0.  1.
     999901    1    3    3    0    0  0.13664416511E+00  0.35673513471E-01 -0.31094265226E-01  0.89180215337E+00  0.88000000000E+00 0.  1.
        -11    1    4    4    0    0 -0.92059510938E-01 -0.40994954280E-01  0.11464224506E-01  0.10142597988E+00  0.51100000000E-03 0.  1.
         11    1    4    4    0    0 -0.24783513557E-01 -0.35504851526E-02  0.10048269376E-01  0.26982537455E-01  0.51100000000E-03 0. -1.
</event>
<event>
 8    1  0.1112958E+005  0.1043930E+01  0.7957747E-01            NaN
         13   -1    0    0    0    0  0.00000000000E+00  0.00000000000E+00  0.74505805969E-08  0.10566000000E+00  0.10566000000E+00 0. -1.
     999900   -1    0    0    0    0 -0.00000000000E+00 -0.00000000000E+00 -0.74505805969E-08  0.93827000000E+00  0.93827000000E+00 0.  1.
     999902    2    1    2    0    0 -0.19056408739E-01 -0.11844955338E-01  0.67060771596E-02  0.10205116065E+01  0.10202428720E+01 0.  0.
     999903    2    3    3    0    0  0.23125367167E-01  0.12463044196E+00 -0.92131093307E-02  0.12885121336E+00  0.21218485558E-01 0.  0.
         14    1    1    2    0    0  0.19056408739E-01  0.11844955338E-01 -0.67060771596E-02  0.23418393451E-01  0.00000000000E+00 0.  1.
     999901    1    3    3    0    0 -0.42181775906E-01 -0.13647539730E+00  0.15919186490E-01  0.89166039319E+00  0.88000000000E+00 0. -1.
        -11    1    4    4    0    0  0.37193044708E-02  0.75778270069E-01 -0.77074339710E-02  0.76261688283E-01  0.51100000000E-03 0. -1.
         11    1    4    4    0    0  0.19406062696E-01  0.48852171895E-01 -0.15056753597E-02  0.52589525074E-01  0.51100000000E-03 0.  1.
</event>
<event>
 8    1  0.1112958E+005  0.1043930E+01  0.7957747E-01            NaN
         13   -1    0    0    0    0  0.00000000000E+00  0.00000000000E+00  0.74505805969E-08  0.10566000000E+00  0.10566000000E+00 0. -1.
     999900   -1    0    0    0    0 -0.00000000000E+00 -0.00000000000E+00 -0.74505805969E-08  0.93827000000E+00  0.93827000000E+00 0.  1.
     999902    2    1    2    0    0 -0.11579391095E-01 -0.36809829988E-02  0.17155174502E-01  0.10229078225E+01  0.10226917822E+01 0.  0.
     999903    2    3    3    0    0 -0.20132684793E-01 -0.47107357208E-01  0.12366987311E+00  0.13538070190E+00  0.20230393768E-01 0.  0.
         14    1    1    2    0    0  0.11579391095E-01  0.36809829988E-02 -0.17155174502E-01  0.21022177483E-01  0.00000000000E+00 0.  1.
     999901    1    3    3    0    0  0.85532936981E-02  0.43426374209E-01 -0.10651469861E+00  0.88752712062E+00  0.88000000000E+00 0.  1.
        -11    1    4    4    0    0 -0.67883504262E-03 -0.27199689715E-01  0.63239866201E-01  0.68846392322E-01  0.51100000000E-03 0.  1.
         11    1    4    4    0    0 -0.19453849750E-01 -0.19907667493E-01  0.60430006908E-01  0.66534309578E-01  0.51100000000E-03 0. -1.
</event>
<event>
 8    1  0.1112958E+005  0.1043930E+01  0.7957747E-01            NaN
         13   -1    0    0    0    0  0.00000000000E+00  0.00000000000E+00  0.74505805969E-08  0.10566000000E+00  0.10566000000E+00 0. -1.
     999900   -1    0    0    0    0 -0.00000000000E+00 -0.00000000000E+00 -0.74505805969E-08  0.93827000000E+00  0.93827000000E+00 0.  1.
     999902    2    1    2    0    0 -0.72284313613E-02 -0.22957337084E-01 -0.37070861993E-03  0.10198587107E+01  0.10195745989E+01 0.  0.
     999903    2    3    3    0    0 -0.11027251770E+00 -0.65295007418E-02  0.67456722958E-01  0.13110198465E+00  0.20848462034E-01 0.  0.
         14    1    1    2    0    0  0.72284313613E-02  0.22957337084E-01  0.37070861993E-03  0.24071289346E-01  0.00000000000E+00 0. -1.
     999901    1    3    3    0    0  0.10304408633E+00 -0.16427836342E-01 -0.67827431578E-01  0.88875672600E+00  0.88000000000E+00 0.  1.
        -11    1    4    4    0    0 -0.54833284873E-01  0.28966816417E-02  0.43146642031E-01  0.69835332991E-01  0.51100000000E-03 0. -1.
         11    1    4    4    0    0 -0.55439232822E-01 -0.94261823835E-02  0.24310080928E-01  0.61266651663E-01  0.51100000000E-03 0.  1.
</event>
<event>
 8    1  0.1112958E+005  0.1043930E+01  0.7957747E-01            NaN
         13   -1    0    0    0    0  0.00000000000E+00  0.00000000000E+00  0.74505805969E-08  0.10566000000E+00  0.10566000000E+00 0. -1.
     999900   -1    0    0    0    0 -0.00000000000E+00 -0.00000000000E+00 -0.74505805969E-08  0.93827000000E+00  0.93827000000E+00 0. -1.
     999902    2    1    2    0    0  0.23563690534E-01 -0.42484738540E-02 -0.17520506401E-03  0.10199857368E+01  0.10197046512E+01 0.  0.
     999903    2    3    3    0    0  0.58573191211E-01  0.52460452810E-01 -0.10292887330E+00  0.13150395096E+00  0.22716036620E-01 0.  0.
         14    1    1    2    0    0 -0.23563690534E-01  0.42484738540E-02  0.17520506401E-03  0.23944263164E-01  0.00000000000E+00 0. -1.
     999901    1    3    3    0    0 -0.35009500677E-01 -0.56708926664E-01  0.10275366824E+00  0.88848178588E+00  0.88000000000E+00 0.  1.
        -11    1    4    4    0    0  0.16937906652E-01  0.26639872989E-01 -0.29364337517E-01  0.43117292974E-01  0.51100000000E-03 0.  1.
         11    1    4    4    0    0  0.41635284560E-01  0.25820579821E-01 -0.73564535788E-01  0.88386657983E-01  0.51100000000E-03 0. -1.
</event>
<event>
 8    1  0.1112958E+005  0.1043930E+01  0.7957747E-01            NaN
         13   -1    0    0    0    0  0.00000000000E+00  0.00000000000E+00  0.74505805969E-08  0.10566000000E+00  0.10566000000E+00 0.  1.
     999900   -1    0    0    0    0 -0.00000000000E+00 -0.00000000000E+00 -0.74505805969E-08  0.93827000000E+00  0.93827000000E+00 0.  1.
     999902    2    1    2    0    0 -0.99222605238E-02  0.85403119617E-02 -0.17542379927E-01  0.10220411152E+01  0.10218066931E+01 0.  0.
     999903    2    3    3    0    0  0.55001872975E-01  0.58729137982E-01 -0.10500813512E+00  0.13390581041E+00  0.20730169807E-01 0.  0.
         14    1    1    2    0    0  0.99222605238E-02 -0.85403119617E-02  0.17542379927E-01  0.21888884755E-01  0.00000000000E+00 0.  1.
     999901    1    3    3    0    0 -0.64924133499E-01 -0.50188826021E-01  0.87465755194E-01  0.88813530484E+00  0.88000000000E+00 0. -1.
        -11    1    4    4    0    0  0.11880446714E-01  0.34852027883E-02 -0.22176876407E-01  0.25404067012E-01  0.51100000000E-03 0. -1.
         11    1    4    4    0    0  0.43121426261E-01  0.55243935194E-01 -0.82831258714E-01  0.10850174339E+00  0.51100000000E-03 0.  1.
</event>
<event>
 8    1  0.1112958E+005  0.1043930E+01  0.7957747E-01            NaN
         13   -1    0    0    0    0  0.00000000000E+00  0.00000000000E+00  0.74505805969E-08  0.10566000000E+00  0.10566000000E+00 0. -1.
     999900   -1    0    0    0    0 -0.00000000000E+00 -0.00000000000E+00 -0.74505805969E-08  0.93827000000E+00  0.93827000000E+00 0.  1.
     999902    2    1    2    0    0 -0.13368819557E-02 -0.10620126034E-01 -0.21041319634E-01  0.10203225549E+01  0.10200494129E+01 0.  0.
     999903    2    3    3    0    0 -0.12880155886E+00 -0.85713882318E-02  0.48898000279E-02  0.13075869318E+00  0.20263648126E-01 0.  0.
         14    1    1    2    0    0  0.13368819557E-02  0.10620126034E-01  0.21041319634E-01  0.23607445060E-01  0.00000000000E+00 0. -1.
     999901    1    3    3    0    0  0.12746467691E+00 -0.20487378019E-02 -0.25931119662E-01  0.88956386176E+00  0.88000000000E+00 0.  1.
        -11    1    4    4    0    0 -0.10992105080E+00 -0.86039094013E-02  0.11245767164E-01  0.11083046994E+00  0.51100000000E-03 0. -1.
         11    1    4    4    0    0 -0.18880508062E-01  0.32521169428E-04 -0.63559671363E-02  0.19928223241E-01  0.51100000000E-03 0.  1.
</event>
<event>
 8    1  0.1112958E+005  0.1043930E+01  0.7957747E-01            NaN
         13   -1    0    0    0    0  0.00000000000E+00  0.00000000000E+00  0.74505805969E-08  0.10566000000E+00  0.10566000000E+00 0.  1.
     999900   -1    0    0    0    0 -0.00000000000E+00 -0.00000000000E+00 -0.74505805969E-08  0.93827000000E+00  0.93827000000E+00 0. -1.
     999902    2    1    2    0    0 -0.12941841267E-01  0.17725935525E-01 -0.38171684431E-02  0.10216528633E+01  0.10214099580E+01 0.  0.
     999903    2    3    3    0    0 -0.60364204101E-01 -0.11341070682E+00 -0.12300224033E-01  0.13063229017E+00  0.20190942716E-01 0.  0.
         14    1    1    2    0    0  0.12941841267E-01 -0.17725935525E-01  0.38171684431E-02  0.22277136722E-01  0.00000000000E+00 0. -1.
     999901    1    3    3    0    0  0.47422362835E-01  0.13113664234E+00  0.84830555903E-02  0.89102057310E+00  0.88000000000E+00 0.  1.
        -11    1    4    4    0    0 -0.34057662846E-01 -0.72247088443E-01 -0.16629563601E-01  0.81586577901E-01  0.51100000000E-03 0. -1.
         11    1    4    4    0    0 -0.26306541255E-01 -0.41163618372E-01  0.43293395673E-02  0.49045712273E-01  0.51100000000E-03 0.  1.
</event>
<event>
 8    1  0.1112958E+005  0.1043930E+01  0.7957747E-01            NaN
         13   -1    0    0    0    0  0.00000000000E+00  0.00000000000E+00  0.74505805969E-08  0.10566000000E+00  0.10566000000E+00 0.  1.
     999900   -1    0    0    0    0 -0.00000000000E+00 -0.00000000000E+00 -0.74505805969E-08  0.93827000000E+00  0.93827000000E+00 0.  1.
     999902    2    1    2    0    0 -0.67341521676E-02  0.18295589565E-01 -0.13344947349E-01  0.10203044837E+01  0.10200309183E+01 0.  0.
     999903    2    3    3    0    0  0.39106923641E-01  0.11226616945E+00 -0.56226730123E-01  0.13307806305E+00  0.20378454426E-01 0.  0.
         14    1    1    2    0    0  0.67341521676E-02 -0.18295589565E-01  0.13344947349E-01  0.23625516348E-01  0.00000000000E+00 0. -1.
     999901    1    3    3    0    0 -0.45841075808E-01 -0.93970579889E-01  0.42881782774E-01  0.88722642060E+00  0.88000000000E+00 0. -1.
        -11    1    4    4    0    0  0.17649075122E-01  0.64807044356E-01 -0.41475118757E-01  0.78942317218E-01  0.51100000000E-03 0. -1.
         11    1    4    4    0    0  0.21457848519E-01  0.47459125099E-01 -0.14751611366E-01  0.54135745835E-01  0.51100000000E-03 0.  1.
</event>
<event>
 8    1  0.1112958E+005  0.1043930E+01  0.7957747E-01            NaN
         13   -1    0    0    0    0  0.00000000000E+00  0.00000000000E+00  0.74505805969E-08  0.10566000000E+00  0.10566000000E+00 0. -1.
     999900   -1    0    0    0    0 -0.00000000000E+00 -0.00000000000E+00 -0.74505805969E-08  0.93827000000E+00  0.93827000000E+00 0.  1.
     999902    2    1    2    0    0  0.12896599642E-01 -0.17077120086E-01 -0.86882094345E-02  0.10208337818E+01  0.10205724740E+01 0.  0.
     999903    2    3    3    0    0 -0.45166667756E-01  0.25423898518E-01  0.11651949942E+00  0.12906326760E+00  0.19852727991E-01 0.  0.
         14    1    1    2    0    0 -0.12896599642E-01  0.17077120086E-01  0.86882094345E-02  0.23096218217E-01  0.00000000000E+00 0.  1.
     999901    1    3    3    0    0  0.58063267397E-01 -0.42501018604E-01 -0.12520770885E+00  0.89177051418E+00  0.88000000000E+00 0.  1.
        -11    1    4    4    0    0 -0.27894727467E-01  0.13179732735E-01  0.89895568592E-01  0.95043650756E-01  0.51100000000E-03 0. -1.
         11    1    4    4    0    0 -0.17271940289E-01  0.12244165783E-01  0.26623930823E-01  0.34019616849E-01  0.51100000000E-03 0.  1.
</event>
<event>
 8    1  0.1112958E+005  0.1043930E+01  0.7957747E-01            NaN
         13   -1    0    0    0    0  0.00000000000E+00  0.00000000000E+00  0.74505805969E-08  0.10566000000E+00  0.10566000000E+00 0. -1.
     999900   -1    0    0    0    0 -0.00000000000E+00 -0.00000000000E+00 -0.74505805969E-08  0.93827000000E+00  0.93827000000E+00 0.  1.
     999902    2    1    2    0    0 -0.22334139440E-01 -0.27837410235E-02  0.86912055038E-02  0.10198032503E+01  0.10195178121E+01 0.  0.
     999903    2    3    3    0    0  0.11436003374E-01 -0.10336115990E+00 -0.74770517016E-01  0.12950998464E+00  0.19180572413E-01 0.  0.
         14    1    1    2    0    0  0.22334139440E-01  0.27837410235E-02 -0.86912055038E-02  0.24126749713E-01  0.00000000000E+00 0.  1.
     999901    1    3    3    0    0 -0.33770142814E-01  0.10057741887E+00  0.83461722520E-01  0.89029326565E+00  0.88000000000E+00 0. -1.
        -11    1    4    4    0    0 -0.33061085432E-02 -0.51288836670E-01 -0.40661887602E-01  0.65537205807E-01  0.51100000000E-03 0.  1.
         11    1    4    4    0    0  0.14742111917E-01 -0.52072323226E-01 -0.34108629414E-01  0.63972778831E-01  0.51100000000E-03 0. -1.
</event>
<event>
 8    1  0.1112958E+005  0.1043930E+01  0.7957747E-01            NaN
         13   -1    0    0    0    0  0.00000000000E+00  0.00000000000E+00  0.74505805969E-08  0.10566000000E+00  0.10566000000E+00 0.  1.
     999900   -1    0    0    0    0 -0.00000000000E+00 -0.00000000000E+00 -0.74505805969E-08  0.93827000000E+00  0.93827000000E+00 0. -1.
     999902    2    1    2    0    0  0.22124837828E-01  0.83888434740E-02  0.73681717455E-03  0.10202567230E+01  0.10199820375E+01 0.  0.
     999903    2    3    3    0    0  0.54597922263E-01 -0.79921306425E-01 -0.85938721766E-01  0.13100657101E+00  0.20221508669E-01 0.  0.
         14    1    1    2    0    0 -0.22124837828E-01 -0.83888434740E-02 -0.73681717455E-03  0.23673276987E-01  0.00000000000E+00 0.  1.
     999901    1    3    3    0    0 -0.32473084435E-01  0.88310149899E-01  0.86675538940E-01  0.88925015200E+00  0.88000000000E+00 0.  1.
        -11    1    4    4    0    0  0.15365690533E-01 -0.34885265703E-01 -0.24487613785E-01  0.45309938850E-01  0.51100000000E-03 0.  1.
         11    1    4    4    0    0  0.39232231730E-01 -0.45036040722E-01 -0.61451107981E-01  0.85696632159E-01  0.51100000000E-03 0. -1.
</event>
<event>
 8    1  0.1112958E+005  0.1043930E+01  0.7957747E-01            NaN
         13   -1    0    0    0    0  0.00000000000E+00  0.00000000000E+00  0.74505805969E-08  0.10566000000E+00  0.10566000000E+00 0.  1.
     999900   -1    0    0    0    0 -0.00000000000E+00 -0.00000000000E+00 -0.74505805969E-08  0.93827000000E+00  0.93827000000E+00 0. -1.
     999902    2    1    2    0    0  0.10864293947E-01 -0.11587201582E-01 -0.17294154979E-01  0.10204484345E+01  0.10201782312E+01 0.  0.
     999903    2    3    3    0    0  0.39073775980E-01 -0.88730429071E-01  0.85727062245E-01  0.13063934055E+00  0.17822993150E-01 0.  0.
         14    1    1    2    0    0 -0.10864293947E-01  0.11587201582E-01  0.17294154979E-01  0.23481565534E-01  0.00000000000E+00 0. -1.
     999901    1    3    3    0    0 -0.28209482033E-01  0.77143227489E-01 -0.10302121722E+00  0.88980909392E+00  0.88000000000E+00 0. -1.
        -11    1    4    4    0    0  0.24771531480E-01 -0.70089035606E-01  0.71631933670E-01  0.10323515257E+00  0.51100000000E-03 0.  1.
         11    1    4    4    0    0  0.14302244500E-01 -0.18641393465E-01  0.14095128575E-01  0.27404187976E-01  0.51100000000E-03 0. -1.
</event>
<event>
 8    1  0.1112958E+005  0.1043930E+01  0.7957747E-01            NaN
         13   -1    0    0    0    0  0.00000000000E+00  0.00000000000E+00  0.74505805969E-08  0.10566000000E+00  0.10566000000E+00 0.  1.
     999900   -1    0    0    0    0 -0.00000000000E+00 -0.00000000000E+00 -0.74505805969E-08  0.93827000000E+00  0.93827000000E+00 0.  1.
     999902    2    1    2    0    0 -0.18027037209E-01 -0.15254309801E-01 -0.11361560926E-02  0.10202876886E+01  0.10200137296E+01 0.  0.
     999903    2    3    3    0    0 -0.11048873210E-01 -0.12752501126E+00 -0.28207490870E-01  0.13271444522E+00  0.20802772267E-01 0.  0.
         14    1    1    2    0    0  0.18027037209E-01  0.15254309801E-01  0.11361560926E-02  0.23642311408E-01  0.00000000000E+00 0.  1.
     999901    1    3    3    0    0 -0.69781639985E-02  0.11227070146E+00  0.27071334778E-01  0.88757324337E+00  0.88000000000E+00 0. -1.
        -11    1    4    4    0    0 -0.25539779105E-02 -0.73443237981E-01 -0.63430882698E-02  0.73762645682E-01  0.51100000000E-03 0. -1.
         11    1    4    4    0    0 -0.84948952999E-02 -0.54081773277E-01 -0.21864402601E-01  0.58951799540E-01  0.51100000000E-03 0.  1.
</event>
<event>
 8    1  0.1112958E+005  0.1043930E+01  0.7957747E-01            NaN
         13   -1    0    0    0    0  0.00000000000E+00  0.00000000000E+00  0.74505805969E-08  0.10566000000E+00  0.10566000000E+00 0. -1.
     999900   -1    0    0    0    0 -0.00000000000E+00 -0.00000000000E+00 -0.74505805969E-08  0.93827000000E+00  0.93827000000E+00 0.  1.
     999902    2    1    2    0    0  0.24076340809E-01  0.69294435862E-04 -0.28599947743E-02  0.10196842878E+01  0.10193959939E+01 0.  0.
     999903    2    3    3    0    0  0.67492453625E-01 -0.99681946312E-01  0.48869037273E-01  0.13147757673E+00  0.20160571985E-01 0.  0.
         14    1    1    2    0    0 -0.24076340809E-01 -0.69294435862E-04  0.28599947743E-02  0.24245712169E-01  0.00000000000E+00 0. -1.
     999901    1    3    3    0    0 -0.43416112815E-01  0.99751240748E-01 -0.51729032047E-01  0.88820671110E+00  0.88000000000E+00 0. -1.
        -11    1    4    4    0    0  0.68005237154E-01 -0.94821859666E-01  0.44445867456E-01  0.12486630292E+00  0.51100000000E-03 0.  1.
         11    1    4    4    0    0 -0.51278352953E-03 -0.48600866457E-02  0.44231698163E-02  0.66112738088E-02  0.51100000000E-03 0. -1.
</event>
<event>
 8    1  0.1112958E+005  0.1043930E+01  0.7957747E-01            NaN
         13   -1    0    0    0    0  0.00000000000E+00  0.00000000000E+00  0.74505805969E-08  0.10566000000E+00  0.10566000000E+00 0. -1.
     999900   -1    0    0    0    0 -0.00000000000E+00 -0.00000000000E+00 -0.74505805969E-08  0.93827000000E+00  0.93827000000E+00 0.  1.
     999902    2    1    2    0    0 -0.19548434205E-01 -0.62591644936E-03 -0.14576186161E-01  0.10195374139E+01  0.10192455740E+01 0.  0.
     999903    2    3    3    0    0 -0.11407591996E+00 -0.93471415599E-02 -0.63308784885E-01  0.13309149258E+00  0.24589806513E-01 0.  0.
         14    1    1    2    0    0  0.19548434205E-01  0.62591644936E-03  0.14576186161E-01  0.24392586052E-01  0.00000000000E+00 0. -1.
     999901    1    3    3    0    0  0.94527485753E-01  0.87212251105E-02  0.48732598723E-01  0.88644592137E+00  0.88000000000E+00 0.  1.
        -11    1    4    4    0    0 -0.74132803411E-01 -0.14774843726E-01 -0.50023610723E-01  0.90645415215E-01  0.51100000000E-03 0.  1.
         11    1    4    4    0    0 -0.39943116547E-01  0.54277021665E-02 -0.13285174162E-01  0.42446077366E-01  0.51100000000E-03 0. -1.
</event>
<event>
 8    1  0.1112958E+005  0.1043930E+01  0.7957747E-01            NaN
         13   -1    0    0    0    0  0.00000000000E+00  0.00000000000E+00  0.74505805969E-08  0.10566000000E+00  0.10566000000E+00 0.  1.
     999900   -1    0    0    0    0 -0.00000000000E+00 -0.00000000000E+00 -0.74505805969E-08  0.93827000000E+00  0.93827000000E+00 0. -1.
     999902    2    1    2    0    0 -0.70369360307E-02  0.18755379382E-01 -0.12359982895E-01  0.10203916929E+01  0.10201201669E+01 0.  0.
     999903    2    3    3    0    0  0.20354590728E-01 -0.84983841328E-01  0.91215975592E-01  0.12784471887E+00  0.19681343696E-01 0.  0.
         14    1    1    2    0    0  0.70369360307E-02 -0.18755379382E-01  0.12359982895E-01  0.23538307111E-01  0.00000000000E+00 0.  1.
     999901    1    3    3    0    0 -0.27391526759E-01  0.10373922071E+00 -0.10357595849E+00  0.89254697402E+00  0.88000000000E+00 0. -1.
        -11    1    4    4    0    0  0.21556608589E-01 -0.48780486236E-01  0.55491483693E-01  0.76966155515E-01  0.51100000000E-03 0.  1.
         11    1    4    4    0    0 -0.12020178605E-02 -0.36203355092E-01  0.35724491899E-01  0.50878563357E-01  0.51100000000E-03 0. -1.
</event>
<event>
 8    1  0.1112958E+005  0.1043930E+01  0.7957747E-01            NaN
         13   -1    0    0    0    0  0.00000000000E+00  0.00000000000E+00  0.74505805969E-08  0.10566000000E+00  0.10566000000E+00 0.  1.
     999900   -1    0    0    0    0 -0.00000000000E+00 -0.00000000000E+00 -0.74505805969E-08  0.93827000000E+00  0.93827000000E+00 0.  1.
     999902    2    1    2    0    0 -0.17439352452E-01 -0.10773263680E-01  0.10162909945E-01  0.10210503374E+01  0.10207939618E+01 0.  0.
     999903    2    3    3    0    0 -0.67211126918E-01 -0.37307574373E-01  0.10764262270E+00  0.13387301935E+00  0.20636385358E-01 0.  0.
         14    1    1    2    0    0  0.17439352452E-01  0.10773263680E-01 -0.10162909945E-01  0.22879662646E-01  0.00000000000E+00 0.  1.
     999901    1    3    3    0    0  0.49771774466E-01  0.26534310693E-01 -0.97479712759E-01  0.88717731800E+00  0.88000000000E+00 0.  1.
        -11    1    4    4    0    0 -0.49851869486E-01 -0.24393826479E-01  0.61103414764E-01  0.82547901720E-01  0.51100000000E-03 0.  1.
         11    1    4    4    0    0 -0.17359257432E-01 -0.12913747895E-01  0.46539207939E-01  0.51325117632E-01  0.51100000000E-03 0. -1.
</event>
<event>
 8    1  0.1112958E+005  0.1043930E+01  0.7957747E-01            NaN
         13   -1    0    0    0    0  0.00000000000E+00  0.00000000000E+00  0.74505805969E-08  0.10566000000E+00  0.10566000000E+00 0. -1.
     999900   -1    0    0    0    0 -0.00000000000E+00 -0.00000000000E+00 -0.74505805969E-08  0.93827000000E+00  0.93827000000E+00 0.  1.
     999902    2    1    2    0    0  0.14884293905E-01  0.91156049229E-03 -0.13402151752E-01  0.10238802913E+01  0.10236839649E+01 0.  0.
     999903    2    3    3    0    0 -0.10331659922E+00  0.11203331160E-01  0.77462370294E-01  0.13128086656E+00  0.20842572038E-01 0.  0.
         14    1    1    2    0    0 -0.14884293905E-01 -0.91156049229E-03  0.13402151752E-01  0.20049708706E-01  0.00000000000E+00 0. -1.
     999901    1    3    3    0    0  0.11820089312E+00 -0.10291770668E-01 -0.90864522046E-01  0.89259942474E+00  0.88000000000E+00 0.  1.
        -11    1    4    4    0    0 -0.75741707211E-01  0.17261126908E-01  0.54689446992E-01  0.95004996956E-01  0.51100000000E-03 0.  1.
         11    1    4    4    0    0 -0.27574892005E-01 -0.60577957477E-02  0.22772923302E-01  0.36275869599E-01  0.51100000000E-03 0. -1.
</event>
<event>
 8    1  0.1112958E+005  0.1043930E+01  0.7957747E-01            NaN
         13   -1    0    0    0    0  0.00000000000E+00  0.00000000000E+00  0.74505805969E-08  0.10566000000E+00  0.10566000000E+00 0.  1.
     999900   -1    0    0    0    0 -0.00000000000E+00 -0.00000000000E+00 -0.74505805969E-08  0.93827000000E+00  0.93827000000E+00 0.  1.
     999902    2    1    2    0    0 -0.24592914094E-02 -0.18951280040E-01 -0.27220864983E-03  0.10248178775E+01  0.10246396483E+01 0.  0.
     999903    2    3    3    0    0 -0.91160745033E-01  0.25351126306E-01  0.93461441256E-01  0.13430305548E+00  0.18689801250E-01 0.  0.
         14    1    1    2    0    0  0.24592914094E-02  0.18951280040E-01  0.27220864983E-03  0.19112122513E-01  0.00000000000E+00 0.  1.
     999901    1    3    3    0    0  0.88701453624E-01 -0.44302406346E-01 -0.93733649905E-01  0.89051482200E+00  0.88000000000E+00 0.  1.
        -11    1    4    4    0    0 -0.61755283458E-01  0.11587401722E-01  0.71047317063E-01  0.94847062667E-01  0.51100000000E-03 0.  1.
         11    1    4    4    0    0 -0.29405461575E-01  0.13763724585E-01  0.22414124192E-01  0.39455992817E-01  0.51100000000E-03 0. -1.
</event>
<event>
 8    1  0.1112958E+005  0.1043930E+01  0.7957747E-01            NaN
         13   -1    0    0    0    0  0.00000000000E+00  0.00000000000E+00  0.74505805969E-08  0.10566000000E+00  0.10566000000E+00 0. -1.
     999900   -1    0    0    0    0 -0.00000000000E+00 -0.00000000000E+00 -0.74505805969E-08  0.93827000000E+00  0.93827000000E+00 0. -1.
     999902    2    1    2    0    0 -0.12971855656E-01  0.18593474678E-01  0.94836797684E-02  0.10193550835E+01  0.10190588107E+01 0.  0.
     999903    2    3    3    0    0  0.11429824760E+00  0.11645033009E-01 -0.52945733009E-01  0.12798344853E+00  0.19411755583E-01 0.  0.
         14    1    1    2    0    0  0.12971855656E-01 -0.18593474678E-01 -0.94836797684E-02  0.24574916515E-01  0.00000000000E+00 0.  1.
     999901    1    3    3    0    0 -0.12727010326E+00  0.69484416693E-02  0.62429412777E-01  0.89137163496E+00  0.88000000000E+00 0.  1.
        -11    1    4    4    0    0  0.71747984866E-01  0.11433388219E-01 -0.23993260579E-01  0.76514269079E-01  0.51100000000E-03 0.  1.
         11    1    4    4    0    0  0.42550262735E-01  0.21164479008E-03 -0.28952472430E-01  0.51469179449E-01  0.51100000000E-03 0. -1.
</event>
<event>
 8    1  0.1112958E+005  0.1043930E+01  0.7957747E-01            NaN
         13   -1    0    0    0    0  0.00000000000E+00  0.00000000000E+00  0.74505805969E-08  0.10566000000E+00  0.10566000000E+00 0.  1.
     999900   -1    0    0    0    0 -0.00000000000E+00 -0.00000000000E+00 -0.74505805969E-08  0.93827000000E+00  0.93827000000E+00 0.  1.
     999902    2    1    2    0    0  0.84561340019E-02  0.12247205911E-01  0.50533028635E-02  0.10282126171E+01  0.10280924812E+01 0.  0.
     999903    2    3    3    0    0 -0.78013546439E-01 -0.13424421272E-03  0.11150130550E+00  0.13750420063E+00  0.19716303200E-01 0.  0.
         14    1    1    2    0    0 -0.84561340019E-02 -0.12247205911E-01 -0.50533028635E-02  0.15717382884E-01  0.00000000000E+00 0. -1.
     999901    1    3    3    0    0  0.86469680441E-01  0.12381450124E-01 -0.10644800264E+00  0.89070841649E+00  0.88000000000E+00 0.  1.
        -11    1    4    4    0    0 -0.48866116817E-01  0.85412170205E-02  0.61991299647E-01  0.79397935199E-01  0.51100000000E-03 0.  1.
         11    1    4    4    0    0 -0.29147429621E-01 -0.86754612332E-02  0.49510005854E-01  0.58106265426E-01  0.51100000000E-03 0. -1.
</event>
<event>
 8    1  0.1112958E+005  0.1043930E+01  0.7957747E-01            NaN
         13   -1    0    0    0    0  0.00000000000E+00  0.00000000000E+00  0.74505805969E-08  0.10566000000E+00  0.10566000000E+00 0. -1.
     999900   -1    0    0    0    0 -0.00000000000E+00 -0.00000000000E+00 -0.74505805969E-08  0.93827000000E+00  0.93827000000E+00 0. -1.
     999902    2    1    2    0    0  0.55888397307E-02 -0.72834793817E-02 -0.20816101317E-01  0.10211793016E+01  0.10209258405E+01 0.  0.
     999903    2    3    3    0    0 -0.85826714059E-01 -0.88854409871E-01  0.38640631922E-01  0.13070430295E+00  0.18143466459E-01 0.  0.
         14    1    1    2    0    0 -0.55888397307E-02  0.72834793817E-02  0.20816101317E-01  0.22750698351E-01  0.00000000000E+00 0.  1.
     999901    1    3    3    0    0  0.91415553790E-01  0.81570930490E-01 -0.59456733238E-01  0.89047499870E+00  0.88000000000E+00 0. -1.
        -11    1    4    4    0    0 -0.45006452657E-01 -0.33642231283E-01  0.16891532687E-01  0.58676788460E-01  0.51100000000E-03 0.  1.
         11    1    4    4    0    0 -0.40820261402E-01 -0.55212178588E-01  0.21749099235E-01  0.72027514492E-01  0.51100000000E-03 0. -1.
</event>
<event>
 8    1  0.1112958E+005  0.1043930E+01  0.7957747E-01            NaN
         13   -1    0    0    0    0  0.00000000000E+00  0.00000000000E+00  0.74505805969E-08  0.10566000000E+00  0.10566000000E+00 0.  1.
     999900   -1    0    0    0    0 -0.00000000000E+00 -0.00000000000E+00 -0.74505805969E-08  0.93827000000E+00  0.93827000000E+00 0.  1.
     999902    2    1    2    0    0  0.20016482320E-01  0.88499091627E-02  0.59562627146E-02  0.10212483439E+01  0.10209964361E+01 0.  0.
     999903    2    3    3    0    0  0.54713487013E-01 -0.79284958072E-01 -0.87101174574E-01  0.13128692702E+00  0.19234665459E-01 0.  0.
         14    1    1    2    0    0 -0.20016482320E-01 -0.88499091627E-02 -0.59562627146E-02  0.22681656072E-01  0.00000000000E+00 0.  1.
     999901    1    3    3    0    0 -0.34697004693E-01  0.88134867235E-01  0.93057437289E-01  0.88996141691E+00  0.88000000000E+00 0. -1.
        -11    1    4    4    0    0  0.25789471132E-01 -0.24011033625E-01 -0.38585057681E-01  0.52256046102E-01  0.51100000000E-03 0. -1.
         11    1    4    4    0    0  0.28924015881E-01 -0.55273924448E-01 -0.48516116894E-01  0.79030880913E-01  0.51100000000E-03 0.  1.
</event>
<event>
 8    1  0.1112958E+005  0.1043930E+01  0.7957747E-01            NaN
         13   -1    0    0    0    0  0.00000000000E+00  0.00000000000E+00  0.74505805969E-08  0.10566000000E+00  0.10566000000E+00 0. -1.
     999900   -1    0    0    0    0 -0.00000000000E+00 -0.00000000000E+00 -0.74505805969E-08  0.93827000000E+00  0.93827000000E+00 0.  1.
     999902    2    1    2    0    0  0.17783084743E-01 -0.80846234844E-02 -0.13010787434E-01  0.10204591707E+01  0.10201892173E+01 0.  0.
     999903    2    3    3    0    0 -0.10267616665E+00 -0.39357295225E-02  0.73736366213E-01  0.12801717634E+00  0.19835840578E-01 0.  0.
         14    1    1    2    0    0 -0.17783084743E-01  0.80846234844E-02  0.13010787434E-01  0.23470829331E-01  0.00000000000E+00 0. -1.
     999901    1    3    3    0    0  0.12045925140E+00 -0.41488939619E-02 -0.86747153647E-01  0.89244199432E+00  0.88000000000E+00 0.  1.
        -11    1    4    4    0    0 -0.67433363444E-01  0.10449051016E-02  0.58565059233E-01  0.89322324287E-01  0.51100000000E-03 0. -1.
         11    1    4    4    0    0 -0.35242803208E-01 -0.49806346241E-02  0.15171306981E-01  0.38694852058E-01  0.51100000000E-03 0.  1.
</event>
<event>
 8    1  0.1112958E+005  0.1043930E+01  0.7957747E-01            NaN
         13   -1    0    0    0    0  0.00000000000E+00  0.00000000000E+00  0.74505805969E-08  0.10566000000E+00  0.10566000000E+00 0. -1.
     999900   -1    0    0    0    0 -0.00000000000E+00 -0.00000000000E+00 -0.74505805969E-08  0.93827000000E+00  0.93827000000E+00 0.  1.
     999902    2    1    2    0    0 -0.32682515633E-02  0.14106934066E-01 -0.18366925336E-01  0.10205413061E+01  0.10202732607E+01 0.  0.
     999903    2    3    3    0    0 -0.64617083826E-01 -0.71003174716E-01 -0.87473551675E-01  0.13161884847E+00  0.21332620282E-01 0.  0.
         14    1    1    2    0    0  0.32682515633E-02 -0.14106934066E-01  0.18366925336E-01  0.23388693921E-01  0.00000000000E+00 0. -1.
     999901    1    3    3    0    0  0.61348832262E-01  0.85110108782E-01  0.69106626340E-01  0.88892245761E+00  0.88000000000E+00 0.  1.
        -11    1    4    4    0    0 -0.46239376417E-01 -0.37186523484E-01 -0.59534200222E-01  0.84056526084E-01  0.51100000000E-03 0. -1.
         11    1    4    4    0    0 -0.18377707409E-01 -0.33816651232E-01 -0.27939351454E-01  0.47562322386E-01  0.51100000000E-03 0.  1.
</event>
<event>
 8    1  0.1112958E+005  0.1043930E+01  0.7957747E-01            NaN
         13   -1    0    0    0    0  0.00000000000E+00  0.00000000000E+00  0.74505805969E-08  0.10566000000E+00  0.10566000000E+00 0.  1.
     999900   -1    0    0    0    0 -0.00000000000E+00 -0.00000000000E+00 -0.74505805969E-08  0.93827000000E+00  0.93827000000E+00 0.  1.
     999902    2    1    2    0    0 -0.14660323397E-01  0.12694758842E-01 -0.13477538360E-01  0.10203137762E+01  0.10200404286E+01 0.  0.
     999903    2    3    3    0    0  0.88571532366E-01  0.66341324079E-01 -0.67196208483E-01  0.13103290637E+00  0.20204071153E-01 0.  0.
         14    1    1    2    0    0  0.14660323397E-01 -0.12694758842E-01  0.13477538360E-01  0.23616223754E-01  0.00000000000E+00 0.  1.
     999901    1    3    3    0    0 -0.10323185576E+00 -0.53646565236E-01  0.53718670123E-01  0.88928086988E+00  0.88000000000E+00 0. -1.
        -11    1    4    4    0    0  0.34964708189E-01  0.18169929936E-01 -0.15541090062E-01  0.42361111576E-01  0.51100000000E-03 0. -1.
         11    1    4    4    0    0  0.53606824178E-01  0.48171394143E-01 -0.51655118421E-01  0.88671794795E-01  0.51100000000E-03 0.  1.
</event>
<event>
 8    1  0.1112958E+005  0.1043930E+01  0.7957747E-01            NaN
         13   -1    0    0    0    0  0.00000000000E+00  0.00000000000E+00  0.74505805969E-08  0.10566000000E+00  0.10566000000E+00 0. -1.
     999900   -1    0    0    0    0 -0.00000000000E+00 -0.00000000000E+00 -0.74505805969E-08  0.93827000000E+00  0.93827000000E+00 0. -1.
     999902    2    1    2    0    0 -0.18215566950E-01 -0.79291661313E-02  0.12023698684E-01  0.10207082885E+01  0.10204441005E+01 0.  0.
     999903    2    3    3    0    0  0.10487558739E-01  0.44824323214E-01  0.12208174457E+00  0.13182158395E+00  0.18808742612E-01 0.  0.
         14    1    1    2    0    0  0.18215566950E-01  0.79291661313E-02 -0.12023698684E-01  0.23221711498E-01  0.00000000000E+00 0.  1.
     999901    1    3    3    0    0 -0.28703125689E-01 -0.52753489346E-01 -0.11005804588E+00  0.88888670455E+00  0.88000000000E+00 0. -1.
        -11    1    4    4    0    0  0.19115279637E-02 -0.54745096617E-03  0.15914987017E-01  0.16046855595E-01  0.51100000000E-03 0.  1.
         11    1    4    4    0    0  0.85760307749E-02  0.45371774181E-01  0.10616675755E+00  0.11577472836E+00  0.51100000000E-03 0. -1.
</event>
<event>
 8    1  0.1112958E+005  0.1043930E+01  0.7957747E-01            NaN
         13   -1    0    0    0    0  0.00000000000E+00  0.00000000000E+00  0.74505805969E-08  0.10566000000E+00  0.10566000000E+00 0.  1.
     999900   -1    0    0    0    0 -0.00000000000E+00 -0.00000000000E+00 -0.74505805969E-08  0.93827000000E+00  0.93827000000E+00 0.  1.
     999902    2    1    2    0    0 -0.14488099202E-01  0.13734605881E-01 -0.33591551232E-02  0.10236857825E+01  0.10234855901E+01 0.  0.
     999903    2    3    3    0    0 -0.11732639825E+00  0.10193907179E-02 -0.64874762512E-01  0.13547321655E+00  0.19435398277E-01 0.  0.
         14    1    1    2    0    0  0.14488099202E-01 -0.13734605881E-01  0.33591551232E-02  0.20244217454E-01  0.00000000000E+00 0.  1.
     999901    1    3    3    0    0  0.10283829905E+00  0.12715215163E-01  0.61515607389E-01  0.88821256600E+00  0.88000000000E+00 0. -1.
        -11    1    4    4    0    0 -0.10114724045E+00  0.54398319651E-03 -0.47585503125E-01  0.11178417328E+00  0.51100000000E-03 0. -1.
         11    1    4    4    0    0 -0.16179157804E-01  0.47540752139E-03 -0.17289259387E-01  0.23689043263E-01  0.51100000000E-03 0.  1.
</event>
<event>
 8    1  0.1112958E+005  0.1043930E+01  0.7957747E-01            NaN
         13   -1    0    0    0    0  0.00000000000E+00  0.00000000000E+00  0.74505805969E-08  0.10566000000E+00  0.10566000000E+00 0. -1.
     999900   -1    0    0    0    0 -0.00000000000E+00 -0.00000000000E+00 -0.74505805969E-08  0.93827000000E+00  0.93827000000E+00 0.  1.
     999902    2    1    2    0    0 -0.15300846275E-01 -0.69124402902E-02  0.20043373863E-01  0.10177835937E+01  0.10174476935E+01 0.  0.
     999903    2    3    3    0    0 -0.63998171735E-01  0.10509126847E+00 -0.29083743550E-01  0.12799163263E+00  0.19901085175E-01 0.  0.
         14    1    1    2    0    0  0.15300846275E-01  0.69124402902E-02 -0.20043373863E-01  0.26146406317E-01  0.00000000000E+00 0. -1.
     999901    1    3    3    0    0  0.48697325459E-01 -0.11200370876E+00  0.49127117412E-01  0.88979196105E+00  0.88000000000E+00 0.  1.
        -11    1    4    4    0    0 -0.50500752975E-02  0.19025128219E-01  0.12514846382E-04  0.19690607962E-01  0.51100000000E-03 0.  1.
         11    1    4    4    0    0 -0.58948096437E-01  0.86066140251E-01 -0.29096258396E-01  0.10830102467E+00  0.51100000000E-03 0. -1.
</event>
<event>
 8    1  0.1112958E+005  0.1043930E+01  0.7957747E-01            NaN
         13   -1    0    0    0    0  0.00000000000E+00  0.00000000000E+00  0.74505805969E-08  0.10566000000E+00  0.10566000000E+00 0. -1.
     999900   -1    0    0    0    0 -0.00000000000E+00 -0.00000000000E+00 -0.74505805969E-08  0.93827000000E+00  0.93827000000E+00 0. -1.
     999902    2    1    2    0    0  0.12523284838E-01  0.11503729445E-01  0.19193621111E-01  0.10182869981E+01  0.10179640696E+01 0.  0.
     999903    2    3    3    0    0  0.78755497733E-01 -0.21293773904E-01 -0.96040740491E-01  0.12770216760E+00  0.20692185613E-01 0.  0.
         14    1    1    2    0    0 -0.12523284838E-01 -0.11503729445E-01 -0.19193621111E-01  0.25643001884E-01  0.00000000000E+00 0.  1.
     999901    1    3    3    0    0 -0.66232212896E-01  0.32797503349E-01  0.11523436160E+00  0.89058483052E+00  0.88000000000E+00 0. -1.
        -11    1    4    4    0    0  0.12081086590E-01  0.21557216479E-02 -0.22930243454E-01  0.26012631064E-01  0.51100000000E-03 0.  1.
         11    1    4    4    0    0  0.66674411143E-01 -0.23449495552E-01 -0.73110497037E-01  0.10168953654E+00  0.51100000000E-03 0. -1.
</event>
<event>
 8    1  0.1112958E+005  0.1043930E+01  0.7957747E-01            NaN
         13   -1    0    0    0    0  0.00000000000E+00  0.00000000000E+00  0.74505805969E-08  0.10566000000E+00  0.10566000000E+00 0. -1.
     999900   -1    0    0    0    0 -0.00000000000E+00 -0.00000000000E+00 -0.74505805969E-08  0.93827000000E+00  0.93827000000E+00 0. -1.
     999902    2    1    2    0    0 -0.12995912228E-01  0.11928442074E-01  0.16731807051E-01  0.10196167355E+01  0.10193268134E+01 0.  0.
     999903    2    3    3    0    0  0.12010060597E+00 -0.18073538928E-01 -0.33721311815E-01  0.12767485439E+00  0.20320758078E-01 0.  0.
         14    1    1    2    0    0  0.12995912228E-01 -0.11928442074E-01 -0.16731807051E-01  0.24313264531E-01  0.00000000000E+00 0.  1.
     999901    1    3    3    0    0 -0.13309651820E+00  0.30001981002E-01  0.50453118866E-01  0.89194188108E+00  0.88000000000E+00 0.  1.
        -11    1    4    4    0    0  0.39786969134E-01 -0.16494894182E-02 -0.19974183171E-01  0.44552809592E-01  0.51100000000E-03 0. -1.
         11    1    4    4    0    0  0.80313636837E-01 -0.16424049509E-01 -0.13747128643E-01  0.83122044797E-01  0.51100000000E-03 0.  1.
</event>
<event>
 8    1  0.1112958E+005  0.1043930E+01  0.7957747E-01            NaN
         13   -1    0    0    0    0  0.00000000000E+00  0.00000000000E+00  0.74505805969E-08  0.10566000000E+00  0.10566000000E+00 0. -1.
     999900   -1    0    0    0    0 -0.00000000000E+00 -0.00000000000E+00 -0.74505805969E-08  0.93827000000E+00  0.93827000000E+00 0. -1.
     999902    2    1    2    0    0  0.21740153845E-01  0.67258649708E-03  0.32748748860E-04  0.10221794199E+01  0.10219479824E+01 0.  0.
     999903    2    3    3    0    0  0.33841786909E-01 -0.12665690691E+00 -0.77987328018E-02  0.13289848482E+00  0.20345722489E-01 0.  0.
         14    1    1    2    0    0 -0.21740153845E-01 -0.67258649708E-03 -0.32748748860E-04  0.21750580090E-01  0.00000000000E+00 0.  1.
     999901    1    3    3    0    0 -0.12101633065E-01  0.12732949341E+00  0.78314815507E-02  0.88928093509E+00  0.88000000000E+00 0.  1.
        -11    1    4    4    0    0  0.60329618370E-02 -0.60563554383E-01 -0.61106424753E-02  0.61171413426E-01  0.51100000000E-03 0. -1.
         11    1    4    4    0    0  0.27808825072E-01 -0.66093352529E-01 -0.16880903265E-02  0.71727071392E-01  0.51100000000E-03 0.  1.
</event>
<event>
 8    1  0.1112958E+005  0.1043930E+01  0.7957747E-01            NaN
         13   -1    0    0    0    0  0.00000000000E+00  0.00000000000E+00  0.74505805969E-08  0.10566000000E+00  0.10566000000E+00 0. -1.
     999900   -1    0    0    0    0 -0.00000000000E+00 -0.00000000000E+00 -0.74505805969E-08  0.93827000000E+00  0.93827000000E+00 0. -1.
     999902    2    1    2    0    0 -0.10766399224E-01  0.75902948623E-02 -0.20282171913E-01  0.10197454093E+01  0.10194585845E+01 0.  0.
     999903    2    3    3    0    0  0.82778553965E-01  0.55632797094E-01 -0.82837803094E-01  0.13127934511E+00  0.20612319634E-01 0.  0.
         14    1    1    2    0    0  0.10766399224E-01 -0.75902948623E-02  0.20282171913E-01  0.24184590669E-01  0.00000000000E+00 0. -1.
     999901    1    3    3    0    0 -0.93544953189E-01 -0.48042502232E-01  0.62555631181E-01  0.88846606423E+00  0.88000000000E+00 0. -1.
        -11    1    4    4    0    0  0.18202950058E-01  0.93404658899E-02 -0.28227072380E-01  0.34865748666E-01  0.51100000000E-03 0. -1.
         11    1    4    4    0    0  0.64575603907E-01  0.46292331204E-01 -0.54610730713E-01  0.96413596439E-01  0.51100000000E-03 0.  1.
</event>
<event>
 8    1  0.1112958E+005  0.1043930E+01  0.7957747E-01            NaN
         13   -1    0    0    0    0  0.00000000000E+00  0.00000000000E+00  0.74505805969E-08  0.10566000000E+00  0.10566000000E+00 0. -1.
     999900   -1    0    0    0    0 -0.00000000000E+00 -0.00000000000E+00 -0.74505805969E-08  0.93827000000E+00  0.93827000000E+00 0.  1.
     999902    2    1    2    0    0 -0.66773599093E-02 -0.22744915055E-01 -0.96399502232E-03  0.10202055910E+01  0.10199297036E+01 0.  0.
     999903    2    3    3    0    0 -0.54872919205E-01  0.22925668968E-01 -0.11418904001E+00  0.13047050402E+00  0.21137454926E-01 0.  0.
         14    1    1    2    0    0  0.66773599093E-02  0.22744915055E-01  0.96399502232E-03  0.23724409004E-01  0.00000000000E+00 0.  1.
     999901    1    3    3    0    0  0.48195559296E-01 -0.45670584022E-01  0.11322504499E+00  0.88973508697E+00  0.88000000000E+00 0. -1.
        -11    1    4    4    0    0 -0.26842359484E-01  0.18855299986E-02 -0.62151852916E-01  0.67728734138E-01  0.51100000000E-03 0.  1.
         11    1    4    4    0    0 -0.28030559721E-01  0.21040138969E-01 -0.52037187097E-01  0.62741769883E-01  0.51100000000E-03 0. -1.
</event>
<event>
 8    1  0.1112958E+005  0.1043930E+01  0.7957747E-01            NaN
         13   -1    0    0    0    0  0.00000000000E+00  0.00000000000E+00  0.74505805969E-08  0.10566000000E+00  0.10566000000E+00 0.  1.
     999900   -1    0    0    0    0 -0.00000000000E+00 -0.00000000000E+00 -0.74505805969E-08  0.93827000000E+00  0.93827000000E+00 0. -1.
     999902    2    1    2    0    0  0.11677127982E-01  0.16260952403E-01 -0.11372094312E-01  0.10209061337E+01  0.10206464791E+01 0.  0.
     999903    2    3    3    0    0  0.83484053697E-01  0.48917314434E-01 -0.88631451284E-01  0.13400609377E+00  0.27195737500E-01 0.  0.
         14    1    1    2    0    0 -0.11677127982E-01 -0.16260952403E-01  0.11372094312E-01  0.23023866313E-01  0.00000000000E+00 0.  1.
     999901    1    3    3    0    0 -0.71806925715E-01 -0.32656362032E-01  0.77259356972E-01  0.88690003992E+00  0.88000000000E+00 0.  1.
        -11    1    4    4    0    0  0.71261867590E-01  0.34084256511E-01 -0.81495672335E-01  0.11349800018E+00  0.51100000000E-03 0. -1.
         11    1    4    4    0    0  0.12222186106E-01  0.14833057924E-01 -0.71357789491E-02  0.20508093593E-01  0.51100000000E-03 0.  1.
</event>
<event>
 8    1  0.1112958E+005  0.1043930E+01  0.7957747E-01            NaN
         13   -1    0    0    0    0  0.00000000000E+00  0.00000000000E+00  0.74505805969E-08  0.10566000000E+00  0.10566000000E+00 0.  1.
     999900   -1    0    0    0    0 -0.00000000000E+00 -0.00000000000E+00 -0.74505805969E-08  0.93827000000E+00  0.93827000000E+00 0.  1.
     999902    2    1    2    0    0 -0.98227192962E-02  0.20138737934E-01 -0.10174842290E-01  0.10193214243E+01  0.10190243295E+01 0.  0.
     999903    2    3    3    0    0 -0.74276119623E-01 -0.51066232150E-01  0.89291040136E-01  0.12852523534E+00  0.20521799619E-01 0.  0.
         14    1    1    2    0    0  0.98227192962E-02 -0.20138737934E-01  0.10174842290E-01  0.24608575651E-01  0.00000000000E+00 0.  1.
     999901    1    3    3    0    0  0.64453400327E-01  0.71204970083E-01 -0.99465882426E-01  0.89079618900E+00  0.88000000000E+00 0.  1.
        -11    1    4    4    0    0 -0.27017216513E-01 -0.72201789428E-02  0.27668740362E-01  0.39343122478E-01  0.51100000000E-03 0. -1.
         11    1    4    4    0    0 -0.47258903110E-01 -0.43846053207E-01  0.61622299773E-01  0.89182112866E-01  0.51100000000E-03 0.  1.
</event>
<event>
 8    1  0.1112958E+005  0.1043930E+01  0.7957747E-01            NaN
         13   -1    0    0    0    0  0.00000000000E+00  0.00000000000E+00  0.74505805969E-08  0.10566000000E+00  0.10566000000E+00 0.  1.
     999900   -1    0    0    0    0 -0.00000000000E+00 -0.00000000000E+00 -0.74505805969E-08  0.93827000000E+00  0.93827000000E+00 0. -1.
     999902    2    1    2    0    0  0.13758582197E-01  0.82810768681E-02  0.16509772336E-01  0.10208985563E+01  0.10206387288E+01 0.  0.
     999903    2    3    3    0    0 -0.10419499651E+00 -0.71529205696E-02  0.76335736040E-01  0.13088147724E+00  0.19875988504E-01 0.  0.
         14    1    1    2    0    0 -0.13758582197E-01 -0.82810768681E-02 -0.16509772336E-01  0.23031443740E-01  0.00000000000E+00 0. -1.
     999901    1    3    3    0    0  0.11795357871E+00  0.15433997438E-01 -0.59825963704E-01  0.89001707902E+00  0.88000000000E+00 0. -1.
        -11    1    4    4    0    0 -0.86983177012E-01  0.15956995711E-02  0.62684638448E-01  0.10722986691E+00  0.51100000000E-03 0. -1.
         11    1    4    4    0    0 -0.17211819496E-01 -0.87486201407E-02  0.13651097592E-01  0.23651610330E-01  0.51100000000E-03 0.  1.
</event>
<event>
 8    1  0.1112958E+005  0.1043930E+01  0.7957747E-01            NaN
         13   -1    0    0    0    0  0.00000000000E+00  0.00000000000E+00  0.74505805969E-08  0.10566000000E+00  0.10566000000E+00 0. -1.
     999900   -1    0    0    0    0 -0.00000000000E+00 -0.00000000000E+00 -0.74505805969E-08  0.93827000000E+00  0.93827000000E+00 0.  1.
     999902    2    1    2    0    0  0.14668645372E-01  0.11741927791E-01  0.14519726650E-01  0.10201841691E+01  0.10199077774E+01 0.  0.
     999903    2    3    3    0    0 -0.63371487469E-01 -0.99949497040E-01 -0.43604959405E-01  0.12780324375E+00  0.20650163343E-01 0.  0.
         14    1    1    2    0    0 -0.14668645372E-01 -0.11741927791E-01 -0.14519726650E-01  0.23745830946E-01  0.00000000000E+00 0.  1.
     999901    1    3    3    0    0  0.78040132841E-01  0.11169142483E+00  0.58124686055E-01  0.89238092530E+00  0.88000000000E+00 0.  1.
        -11    1    4    4    0    0 -0.31566339974E-01 -0.68260707335E-01 -0.26000634577E-01  0.79575449132E-01  0.51100000000E-03 0.  1.
         11    1    4    4    0    0 -0.31805147495E-01 -0.31688789705E-01 -0.17604324828E-01  0.48227794619E-01  0.51100000000E-03 0. -1.
</event>
<event>
 8    1  0.1112958E+005  0.1043930E+01  0.7957747E-01            NaN
         13   -1    0    0    0    0  0.00000000000E+00  0.00000000000E+00  0.74505805969E-08  0.10566000000E+00  0.10566000000E+00 0.  1.
     999900   -1    0    0    0    0 -0.00000000000E+00 -0.00000000000E+00 -0.74505805969E-08  0.93827000000E+00  0.93827000000E+00 0. -1.
     999902    2    1    2    0    0 -0.14198892928E-01 -0.12525244708E-01 -0.26445319637E-01  0.10114054670E+01  0.10108823737E+01 0.  0.
     999903    2    3    3    0    0  0.43996343300E-01 -0.10995300653E+00  0.24407672244E-01  0.12266203886E+00  0.20613089146E-01 0.  0.
         14    1    1    2    0    0  0.14198892928E-01  0.12525244708E-01  0.26445319637E-01  0.32524532988E-01  0.00000000000E+00 0.  1.
     999901    1    3    3    0    0 -0.58195236229E-01  0.97427761825E-01 -0.50852991881E-01  0.88874342815E+00  0.88000000000E+00 0. -1.
        -11    1    4    4    0    0  0.72922449717E-02 -0.11958042478E-01  0.95695177238E-02  0.16970810443E-01  0.51100000000E-03 0. -1.
         11    1    4    4    0    0  0.36704098329E-01 -0.97994964055E-01  0.14838154520E-01  0.10569122842E+00  0.51100000000E-03 0.  1.
</event>
<event>
 8    1  0.1112958E+005  0.1043930E+01  0.7957747E-01            NaN
         13   -1    0    0    0    0  0.00000000000E+00  0.00000000000E+00  0.74505805969E-08  0.10566000000E+00  0.10566000000E+00 0. -1.
     999900   -1    0    0    0    0 -0.00000000000E+00 -0.00000000000E+00 -0.74505805969E-08  0.93827000000E+00  0.93827000000E+00 0. -1.
     999902    2    1    2    0    0  0.66851110104E-03  0.24399658373E-01  0.23799429850E-02  0.10194054335E+01  0.10191103882E+01 0.  0.
     999903    2    3    3    0    0  0.11478224024E+00  0.58034558014E-01  0.16341817931E-01  0.13129047265E+00  0.20667863856E-01 0.  0.
         14    1    1    2    0    0 -0.66851110104E-03 -0.24399658373E-01 -0.23799429850E-02  0.24524566549E-01  0.00000000000E+00 0.  1.
     999901    1    3    3    0    0 -0.11411372914E+00 -0.33634899641E-01 -0.13961874946E-01  0.88811496080E+00  0.88000000000E+00 0. -1.
        -11    1    4    4    0    0  0.72609954261E-01  0.41129992753E-01  0.14118689086E-02  0.83463382728E-01  0.51100000000E-03 0. -1.
         11    1    4    4    0    0  0.42172285978E-01  0.16904565262E-01  0.14929949022E-01  0.47827089919E-01  0.51100000000E-03 0.  1.
</event>
<event>
 8    1  0.1112958E+005  0.1043930E+01  0.7957747E-01            NaN
         13   -1    0    0    0    0  0.00000000000E+00  0.00000000000E+00  0.74505805969E-08  0.10566000000E+00  0.10566000000E+00 0.  1.
     999900   -1    0    0    0    0 -0.00000000000E+00 -0.00000000000E+00 -0.74505805969E-08  0.93827000000E+00  0.93827000000E+00 0.  1.
     999902    2    1    2    0    0  0.12696548209E-01  0.74856778673E-02 -0.18768967575E-01  0.10200655525E+01  0.10197863598E+01 0.  0.
     999903    2    3    3    0    0  0.84543659034E-01  0.55594665670E-01 -0.84589104123E-01  0.13338140785E+00  0.19922005161E-01 0.  0.
         14    1    1    2    0    0 -0.12696548209E-01 -0.74856778673E-02  0.18768967575E-01  0.23864447477E-01  0.00000000000E+00 0.  1.
     999901    1    3    3    0    0 -0.71847110824E-01 -0.48108987802E-01  0.65820136548E-01  0.88668414467E+00  0.88000000000E+00 0. -1.
        -11    1    4    4    0    0  0.52938352525E-01  0.43809104445E-01 -0.49376403239E-01  0.84616766177E-01  0.51100000000E-03 0. -1.
         11    1    4    4    0    0  0.31605306508E-01  0.11785561225E-01 -0.35212700884E-01  0.48764641672E-01  0.51100000000E-03 0.  1.
</event>
<event>
 8    1  0.1112958E+005  0.1043930E+01  0.7957747E-01            NaN
         13   -1    0    0    0    0  0.00000000000E+00  0.00000000000E+00  0.74505805969E-08  0.10566000000E+00  0.10566000000E+00 0. -1.
     999900   -1    0    0    0    0 -0.00000000000E+00 -0.00000000000E+00 -0.74505805969E-08  0.93827000000E+00  0.93827000000E+00 0.  1.
     999902    2    1    2    0    0 -0.32825544097E-02 -0.14885213086E-01 -0.16907490576E-01  0.10211658183E+01  0.10209120532E+01 0.  0.
     999903    2    3    3    0    0  0.71261922652E-01 -0.10224696947E+00 -0.43243252532E-01  0.13331305576E+00  0.19227260913E-01 0.  0.
         14    1    1    2    0    0  0.32825544097E-02  0.14885213086E-01  0.16907490576E-01  0.22764181725E-01  0.00000000000E+00 0. -1.
     999901    1    3    3    0    0 -0.74544477061E-01  0.87361756383E-01  0.26335761957E-01  0.88785276251E+00  0.88000000000E+00 0.  1.
        -11    1    4    4    0    0  0.63641884315E-01 -0.92569175249E-01 -0.44690514635E-01  0.12090014419E+00  0.51100000000E-03 0. -1.
         11    1    4    4    0    0  0.76200383372E-02 -0.96777942199E-02  0.14472621022E-02  0.12412911577E-01  0.51100000000E-03 0.  1.
</event>
<event>
 8    1  0.1112958E+005  0.1043930E+01  0.7957747E-01            NaN
         13   -1    0    0    0    0  0.00000000000E+00  0.00000000000E+00  0.74505805969E-08  0.10566000000E+00  0.10566000000E+00 0.  1.
     999900   -1    0    0    0    0 -0.00000000000E+00 -0.00000000000E+00 -0.74505805969E-08  0.93827000000E+00  0.93827000000E+00 0. -1.
     999902    2    1    2    0    0 -0.22046732898E-01  0.53030598287E-02 -0.14062977017E-02  0.10212108770E+01  0.10209581269E+01 0.  0.
     999903    2    3    3    0    0 -0.74324191253E-01  0.93854434414E-01  0.55040247305E-01  0.13342684303E+00  0.20989362854E-01 0.  0.
         14    1    1    2    0    0  0.22046732898E-01 -0.53030598287E-02  0.14062977017E-02  0.22719122964E-01  0.00000000000E+00 0.  1.
     999901    1    3    3    0    0  0.52277458355E-01 -0.88551374585E-01 -0.56446545007E-01  0.88778403401E+00  0.88000000000E+00 0. -1.
        -11    1    4    4    0    0 -0.12423122757E-01  0.25886300421E-01  0.64104342421E-02  0.29424298066E-01  0.51100000000E-03 0. -1.
         11    1    4    4    0    0 -0.61901068496E-01  0.67968133993E-01  0.48629813063E-01  0.10400254496E+00  0.51100000000E-03 0.  1.
</event>
<event>
 8    1  0.1112958E+005  0.1043930E+01  0.7957747E-01            NaN
         13   -1    0    0    0    0  0.00000000000E+00  0.00000000000E+00  0.74505805969E-08  0.10566000000E+00  0.10566000000E+00 0.  1.
     999900   -1    0    0    0    0 -0.00000000000E+00 -0.00000000000E+00 -0.74505805969E-08  0.93827000000E+00  0.93827000000E+00 0. -1.
     999902    2    1    2    0    0 -0.83335132980E-02  0.24058535786E-01  0.70957760906E-02  0.10174987566E+01  0.10171554007E+01 0.  0.
     999903    2    3    3    0    0  0.17494462258E-01  0.24286297008E-01  0.12435364347E+00  0.12934531061E+00  0.19248384399E-01 0.  0.
         14    1    1    2    0    0  0.83335132980E-02 -0.24058535786E-01 -0.70957760906E-02  0.26431243376E-01  0.00000000000E+00 0.  1.
     999901    1    3    3    0    0 -0.25827975556E-01 -0.22776122211E-03 -0.11725786738E+00  0.88815344601E+00  0.88000000000E+00 0. -1.
        -11    1    4    4    0    0  0.11616142691E-01  0.26027775526E-01  0.88805521123E-01  0.93268759897E-01  0.51100000000E-03 0.  1.
         11    1    4    4    0    0  0.58783195662E-02 -0.17414785176E-02  0.35548122346E-01  0.36076550717E-01  0.51100000000E-03 0. -1.
</event>
<event>
 8    1  0.1112958E+005  0.1043930E+01  0.7957747E-01            NaN
         13   -1    0    0    0    0  0.00000000000E+00  0.00000000000E+00  0.74505805969E-08  0.10566000000E+00  0.10566000000E+00 0.  1.
     999900   -1    0    0    0    0 -0.00000000000E+00 -0.00000000000E+00 -0.74505805969E-08  0.93827000000E+00  0.93827000000E+00 0. -1.
     999902    2    1    2    0    0  0.18466973674E-01 -0.11788533275E-01  0.84563500619E-02  0.10204457821E+01  0.10201755171E+01 0.  0.
     999903    2    3    3    0    0  0.11845015052E+00  0.21091821772E-01  0.53290251599E-01  0.13304067049E+00  0.19612903570E-01 0.  0.
         14    1    1    2    0    0 -0.18466973674E-01  0.11788533275E-01 -0.84563500619E-02  0.23484217888E-01  0.00000000000E+00 0.  1.
     999901    1    3    3    0    0 -0.99983176844E-01 -0.32880355047E-01 -0.44833901537E-01  0.88740511162E+00  0.88000000000E+00 0. -1.
        -11    1    4    4    0    0  0.44685642461E-01  0.42270608583E-02  0.29522036530E-01  0.53726031377E-01  0.51100000000E-03 0.  1.
         11    1    4    4    0    0  0.73764508057E-01  0.16864760914E-01  0.23768215069E-01  0.79314639117E-01  0.51100000000E-03 0. -1.
</event>
<event>
 8    1  0.1112958E+005  0.1043930E+01  0.7957747E-01            NaN
         13   -1    0    0    0    0  0.00000000000E+00  0.00000000000E+00  0.74505805969E-08  0.10566000000E+00  0.10566000000E+00 0. -1.
     999900   -1    0    0    0    0 -0.00000000000E+00 -0.00000000000E+00 -0.74505805969E-08  0.93827000000E+00  0.93827000000E+00 0.  1.
     999902    2    1    2    0    0 -0.50875081183E-02  0.20707335114E-01 -0.71028958057E-02  0.10214549562E+01  0.10212076674E+01 0.  0.
     999903    2    3    3    0    0  0.15029270458E-01  0.13189167666E+00  0.19968574922E-02  0.13418416994E+00  0.19496427334E-01 0.  0.
         14    1    1    2    0    0  0.50875081183E-02 -0.20707335114E-01  0.71028958057E-02  0.22475043831E-01  0.00000000000E+00 0. -1.
     999901    1    3    3    0    0 -0.20116778577E-01 -0.11118434155E+00 -0.90997532980E-02  0.88727078623E+00  0.88000000000E+00 0.  1.
        -11    1    4    4    0    0  0.66101453804E-02  0.32955642560E-01 -0.74799061249E-02  0.34438038782E-01  0.51100000000E-03 0. -1.
         11    1    4    4    0    0  0.84191250781E-02  0.98936034104E-01  0.94767636172E-02  0.99746131158E-01  0.51100000000E-03 0.  1.
</event>
<event>
 8    1  0.1112958E+005  0.1043930E+01  0.7957747E-01            NaN
         13   -1    0    0    0    0  0.00000000000E+00  0.00000000000E+00  0.74505805969E-08  0.10566000000E+00  0.10566000000E+00 0. -1.
     999900   -1    0    0    0    0 -0.00000000000E+00 -0.00000000000E+00 -0.74505805969E-08  0.93827000000E+00  0.93827000000E+00 0.  1.
     999902    2    1    2    0    0  0.51788392312E-03 -0.19553732988E-01 -0.13666637402E-01  0.10200680291E+01  0.10197888950E+01 0.  0.
     999903    2    3    3    0    0 -0.43203460630E-01 -0.71341262596E-01  0.98225300194E-01  0.13039769134E+00  0.19980829521E-01 0.  0.
         14    1    1    2    0    0 -0.51788392312E-03  0.19553732988E-01  0.13666637402E-01  0.23861970903E-01  0.00000000000E+00 0. -1.
     999901    1    3    3    0    0  0.43721344553E-01  0.51787529609E-01 -0.11189193760E+00  0.88967033776E+00  0.88000000000E+00 0.  1.
        -11    1    4    4    0    0 -0.14231423815E-01 -0.41652355227E-01  0.45507308227E-01  0.63313729497E-01  0.51100000000E-03 0.  1.
         11    1    4    4    0    0 -0.28972036815E-01 -0.29688907370E-01  0.52717991967E-01  0.67083961839E-01  0.51100000000E-03 0. -1.
</event>
<event>
 8    1  0.1112958E+005  0.1043930E+01  0.7957747E-01            NaN
         13   -1    0    0    0    0  0.00000000000E+00  0.00000000000E+00  0.74505805969E-08  0.10566000000E+00  0.10566000000E+00 0. -1.
     999900   -1    0    0    0    0 -0.00000000000E+00 -0.00000000000E+00 -0.74505805969E-08  0.93827000000E+00  0.93827000000E+00 0. -1.
     999902    2    1    2    0    0 -0.66469604531E-02  0.24030485286E-01  0.98999145415E-02  0.10171036209E+01  0.10167497829E+01 0.  0.
     999903    2    3    3    0    0 -0.30787709229E-01  0.12325352942E+00 -0.22399833711E-01  0.13060981837E+00  0.20441539801E-01 0.  0.
         14    1    1    2    0    0  0.66469604531E-02 -0.24030485286E-01 -0.98999145415E-02  0.26826379075E-01  0.00000000000E+00 0.  1.
     999901    1    3    3    0    0  0.24140748775E-01 -0.99223044133E-01  0.32299748253E-01  0.88649380256E+00  0.88000000000E+00 0. -1.
        -11    1    4    4    0    0 -0.31156632303E-02  0.12997144748E-01 -0.90553224490E-02  0.16152186064E-01  0.51100000000E-03 0.  1.
         11    1    4    4    0    0 -0.27672045998E-01  0.11025638467E+00 -0.13344511262E-01  0.11445763230E+00  0.51100000000E-03 0. -1.
</event>
<event>
 8    1  0.1112958E+005  0.1043930E+01  0.7957747E-01            NaN
         13   -1    0    0    0    0  0.00000000000E+00  0.00000000000E+00  0.74505805969E-08  0.10566000000E+00  0.10566000000E+00 0. -1.
     999900   -1    0    0    0    0 -0.00000000000E+00 -0.00000000000E+00 -0.74505805969E-08  0.93827000000E+00  0.93827000000E+00 0.  1.
     999902    2    1    2    0    0 -0.65892901061E-02  0.14756587824E-01  0.14880061057E-01  0.10219620268E+01  0.10217258891E+01 0.  0.
     999903    2    3    3    0    0 -0.44170831372E-01  0.10479876411E+00 -0.65806506389E-01  0.13290056218E+00  0.19955446403E-01 0.  0.
         14    1    1    2    0    0  0.65892901061E-02 -0.14756587824E-01 -0.14880061057E-01  0.21967973174E-01  0.00000000000E+00 0.  1.
     999901    1    3    3    0    0  0.37581541266E-01 -0.90042176286E-01  0.80686567446E-01  0.88906146465E+00  0.88000000000E+00 0.  1.
        -11    1    4    4    0    0 -0.14310439447E-01  0.58900271438E-01 -0.37181420340E-01  0.71110827531E-01  0.51100000000E-03 0.  1.
         11    1    4    4    0    0 -0.29860391926E-01  0.45898492673E-01 -0.28625086049E-01  0.61789734648E-01  0.51100000000E-03 0. -1.
</event>
<event>
 8    1  0.1112958E+005  0.1043930E+01  0.7957747E-01            NaN
         13   -1    0    0    0    0  0.00000000000E+00  0.00000000000E+00  0.74505805969E-08  0.10566000000E+00  0.10566000000E+00 0. -1.
     999900   -1    0    0    0    0 -0.00000000000E+00 -0.00000000000E+00 -0.74505805969E-08  0.93827000000E+00  0.93827000000E+00 0. -1.
     999902    2    1    2    0    0 -0.21741109901E-01  0.59604824461E-02  0.79690319991E-02  0.10200195696E+01  0.10197392871E+01 0.  0.
     999903    2    3    3    0    0 -0.39836434433E-01 -0.21333544336E-01  0.12265606835E+00  0.13197366934E+00  0.18179017416E-01 0.  0.
         14    1    1    2    0    0  0.21741109901E-01 -0.59604824461E-02 -0.79690319991E-02  0.23910430396E-01  0.00000000000E+00 0.  1.
     999901    1    3    3    0    0  0.18095324532E-01  0.27294026782E-01 -0.11468703635E+00  0.88804590026E+00  0.88000000000E+00 0. -1.
        -11    1    4    4    0    0 -0.17681855999E-02 -0.52584142210E-02  0.30089604271E-01  0.30601026234E-01  0.51100000000E-03 0.  1.
         11    1    4    4    0    0 -0.38068248833E-01 -0.16075130115E-01  0.92566464079E-01  0.10137264311E+00  0.51100000000E-03 0. -1.
</event>
<event>
 8    1  0.1112958E+005  0.1043930E+01  0.7957747E-01            NaN
         13   -1    0    0    0    0  0.00000000000E+00  0.00000000000E+00  0.74505805969E-08  0.10566000000E+00  0.10566000000E+00 0. -1.
     999900   -1    0    0    0    0 -0.00000000000E+00 -0.00000000000E+00 -0.74505805969E-08  0.93827000000E+00  0.93827000000E+00 0. -1.
     999902    2    1    2    0    0 -0.19548825286E-01 -0.60813414738E-02  0.76134220316E-02  0.10220873015E+01  0.10218538782E+01 0.  0.
     999903    2    3    3    0    0 -0.12048244521E+00 -0.55472485564E-01  0.14893329505E-01  0.13491196491E+00  0.19652245497E-01 0.  0.
         14    1    1    2    0    0  0.19548825286E-01  0.60813414738E-02 -0.76134220316E-02  0.21842698533E-01  0.00000000000E+00 0.  1.
     999901    1    3    3    0    0  0.10093361992E+00  0.49391144090E-01 -0.72799074737E-02  0.88717533656E+00  0.88000000000E+00 0.  1.
        -11    1    4    4    0    0 -0.32005495578E-01 -0.95521426176E-02 -0.33475477058E-02  0.33571749618E-01  0.51100000000E-03 0. -1.
         11    1    4    4    0    0 -0.88476949632E-01 -0.45920342947E-01  0.18240877211E-01  0.10134021529E+00  0.51100000000E-03 0.  1.
</event>
<event>
 8    1  0.1112958E+005  0.1043930E+01  0.7957747E-01            NaN
         13   -1    0    0    0    0  0.00000000000E+00  0.00000000000E+00  0.74505805969E-08  0.10566000000E+00  0.10566000000E+00 0. -1.
     999900   -1    0    0    0    0 -0.00000000000E+00 -0.00000000000E+00 -0.74505805969E-08  0.93827000000E+00  0.93827000000E+00 0.  1.
     999902    2    1    2    0    0 -0.20498897259E-01 -0.11234656217E-01  0.58658164847E-02  0.10198295832E+01  0.10195447752E+01 0.  0.
     999903    2    3    3    0    0  0.81584098502E-01  0.84163315676E-01 -0.45491834163E-01  0.12732786363E+00  0.20086041119E-01 0.  0.
         14    1    1    2    0    0  0.20498897259E-01  0.11234656217E-01 -0.58658164847E-02  0.24100416847E-01  0.00000000000E+00 0. -1.
     999901    1    3    3    0    0 -0.10208299576E+00 -0.95397971894E-01  0.51357650648E-01  0.89250171952E+00  0.88000000000E+00 0. -1.
        -11    1    4    4    0    0  0.65644986745E-01  0.59252494137E-01 -0.40757322477E-01  0.97373213990E-01  0.51100000000E-03 0.  1.
         11    1    4    4    0    0  0.15939111758E-01  0.24910821539E-01 -0.47345116861E-02  0.29954649644E-01  0.51100000000E-03 0. -1.
</event>
<event>
 8    1  0.1112958E+005  0.1043930E+01  0.7957747E-01            NaN
         13   -1    0    0    0    0  0.00000000000E+00  0.00000000000E+00  0.74505805969E-08  0.10566000000E+00  0.10566000000E+00 0. -1.
     999900   -1    0    0    0    0 -0.00000000000E+00 -0.00000000000E+00 -0.74505805969E-08  0.93827000000E+00  0.93827000000E+00 0.  1.
     999902    2    1    2    0    0  0.46486578626E-02 -0.21631689523E-01  0.57971088626E-02  0.10210576044E+01  0.10208013935E+01 0.  0.
     999903    2    3    3    0    0  0.12702505107E+00 -0.20048761025E-01 -0.22724233258E-01  0.13213018649E+00  0.20116634550E-01 0.  0.
         14    1    1    2    0    0 -0.46486578626E-02  0.21631689523E-01 -0.57971088626E-02  0.22872395648E-01  0.00000000000E+00 0. -1.
     999901    1    3    3    0    0 -0.12237639321E+00 -0.15829284976E-02  0.28521342120E-01  0.88892741787E+00  0.88000000000E+00 0. -1.
        -11    1    4    4    0    0  0.48271133122E-01  0.19473140101E-02 -0.10663507973E-01  0.49475911796E-01  0.51100000000E-03 0.  1.
         11    1    4    4    0    0  0.78753917948E-01 -0.21996075035E-01 -0.12060725285E-01  0.82654274690E-01  0.51100000000E-03 0. -1.
</event>
<event>
 8    1  0.1112958E+005  0.1043930E+01  0.7957747E-01            NaN
         13   -1    0    0    0    0  0.00000000000E+00  0.00000000000E+00  0.74505805969E-08  0.10566000000E+00  0.10566000000E+00 0.  1.
     999900   -1    0    0    0    0 -0.00000000000E+00 -0.00000000000E+00 -0.74505805969E-08  0.93827000000E+00  0.93827000000E+00 0.  1.
     999902    2    1    2    0    0  0.76012957354E-02  0.10274254506E-01 -0.20402291739E-01  0.10198552516E+01  0.10195710572E+01 0.  0.
     999903    2    3    3    0    0 -0.17305350858E-01  0.63560078074E-01  0.10854880610E+00  0.12851462890E+00  0.19844592238E-01 0.  0.
         14    1    1    2    0    0 -0.76012957354E-02 -0.10274254506E-01  0.20402291739E-01  0.24074748404E-01  0.00000000000E+00 0.  1.
     999901    1    3    3    0    0  0.24906646593E-01 -0.53285823568E-01 -0.12895109784E+00  0.89134062270E+00  0.88000000000E+00 0.  1.
        -11    1    4    4    0    0 -0.64451767843E-02  0.34029330296E-01  0.38898872696E-01  0.52085689418E-01  0.51100000000E-03 0.  1.
         11    1    4    4    0    0 -0.10860174073E-01  0.29530747778E-01  0.69649933407E-01  0.76428939479E-01  0.51100000000E-03 0. -1.
</event>
<event>
 7    1  0.1112958E+005  0.1043930E+01  0.7957747E-01            NaN
         13   -1    0    0    0    0  0.00000000000E+00  0.00000000000E+00  0.74505805969E-08  0.10566000000E+00  0.10566000000E+00 0. -1.
     999900   -1    0    0    0    0 -0.00000000000E+00 -0.00000000000E+00 -0.74505805969E-08  0.93827000000E+00  0.93827000000E+00 0.  1.
     999903    2    1    2    0    0 -0.11837140209E-01 -0.11553783621E-01 -0.34399766085E-01  0.42906384885E-01  0.19596074938E-01 0.  0.
         14    1    1    2    0    0 -0.54951674825E-01 -0.96327531930E-01  0.13077352260E-01  0.11166779803E+00  0.00000000000E+00 0. -1.
     999901    1    1    2    0    0  0.66788815034E-01  0.10788131555E+00  0.21322413825E-01  0.88935581709E+00  0.88000000000E+00 0.  1.
        -11    1    3    3    0    0 -0.21830574567E-03 -0.48978251516E-02 -0.27300554036E-01  0.27741984793E-01  0.51100000000E-03 0.  1.
         11    1    3    3    0    0 -0.11618834464E-01 -0.66559584693E-02 -0.70992120489E-02  0.15164400092E-01  0.51100000000E-03 0. -1.
</event>
<event>
 8    1  0.1112958E+005  0.1043930E+01  0.7957747E-01            NaN
         13   -1    0    0    0    0  0.00000000000E+00  0.00000000000E+00  0.74505805969E-08  0.10566000000E+00  0.10566000000E+00 0. -1.
     999900   -1    0    0    0    0 -0.00000000000E+00 -0.00000000000E+00 -0.74505805969E-08  0.93827000000E+00  0.93827000000E+00 0.  1.
     999902    2    1    2    0    0 -0.27726969947E-01  0.19521743650E-01 -0.20987844908E-02  0.10099551824E+01  0.10093835654E+01 0.  0.
     999903    2    3    3    0    0  0.57879553333E-01  0.83595959050E-02 -0.10318935451E+00  0.11997070288E+00  0.18027787653E-01 0.  0.
         14    1    1    2    0    0  0.27726969947E-01 -0.19521743650E-01  0.20987844908E-02  0.33974817643E-01  0.00000000000E+00 0.  1.
     999901    1    3    3    0    0 -0.85606523280E-01  0.11162147745E-01  0.10109057001E+00  0.88998447948E+00  0.88000000000E+00 0. -1.
        -11    1    4    4    0    0  0.34081306922E-01 -0.39001649663E-02 -0.61547886134E-01  0.70463821759E-01  0.51100000000E-03 0. -1.
         11    1    4    4    0    0  0.23798246411E-01  0.12259760871E-01 -0.41641468371E-01  0.49506881117E-01  0.51100000000E-03 0.  1.
</event>
<event>
 8    1  0.1112958E+005  0.1043930E+01  0.7957747E-01            NaN
         13   -1    0    0    0    0  0.00000000000E+00  0.00000000000E+00  0.74505805969E-08  0.10566000000E+00  0.10566000000E+00 0. -1.
     999900   -1    0    0    0    0 -0.00000000000E+00 -0.00000000000E+00 -0.74505805969E-08  0.93827000000E+00  0.93827000000E+00 0.  1.
     999902    2    1    2    0    0 -0.23296677345E-01  0.28642908385E-02  0.27720857578E-02  0.10202947764E+01  0.10200209835E+01 0.  0.
     999903    2    3    3    0    0 -0.10668566385E+00 -0.89301851644E-02 -0.75943796430E-01  0.13277631297E+00  0.20012745743E-01 0.  0.
         14    1    1    2    0    0  0.23296677345E-01 -0.28642908385E-02 -0.27720857578E-02  0.23635223646E-01  0.00000000000E+00 0. -1.
     999901    1    3    3    0    0  0.83388986505E-01  0.11794476003E-01  0.78715882188E-01  0.88751846338E+00  0.88000000000E+00 0. -1.
        -11    1    4    4    0    0 -0.53330563245E-01 -0.14271372845E-01 -0.35987266101E-01  0.65902697224E-01  0.51100000000E-03 0. -1.
         11    1    4    4    0    0 -0.53355100605E-01  0.53411876807E-02 -0.39956530329E-01  0.66873615749E-01  0.51100000000E-03 0.  1.
</event>
<event>
 8    1  0.1112958E+005  0.1043930E+01  0.7957747E-01            NaN
         13   -1    0    0    0    0  0.00000000000E+00  0.00000000000E+00  0.74505805969E-08  0.10566000000E+00  0.10566000000E+00 0. -1.
     999900   -1    0    0    0    0 -0.00000000000E+00 -0.00000000000E+00 -0.74505805969E-08  0.93827000000E+00  0.93827000000E+00 0.  1.
     999902    2    1    2    0    0  0.11445092198E-01  0.15858492796E-01 -0.12637849789E-01  0.10206448722E+01  0.10203792226E+01 0.  0.
     999903    2    3    3    0    0 -0.33011195482E-01  0.10299199316E+00 -0.74806048893E-01  0.13304502240E+00  0.20197607546E-01 0.  0.
         14    1    1    2    0    0 -0.11445092198E-01 -0.15858492796E-01  0.12637849789E-01  0.23285127796E-01  0.00000000000E+00 0. -1.
     999901    1    3    3    0    0  0.44456287679E-01 -0.87133500367E-01  0.62168199104E-01  0.88759984981E+00  0.88000000000E+00 0. -1.
        -11    1    4    4    0    0 -0.24214669856E-01  0.80310105666E-01 -0.67410457945E-01  0.10761270496E+00  0.51100000000E-03 0.  1.
         11    1    4    4    0    0 -0.87965256253E-02  0.22681887496E-01 -0.73955909486E-02  0.25432317432E-01  0.51100000000E-03 0. -1.
</event>
<event>
 8    1  0.1112958E+005  0.1043930E+01  0.7957747E-01            NaN
         13   -1    0    0    0    0  0.00000000000E+00  0.00000000000E+00  0.74505805969E-08  0.10566000000E+00  0.10566000000E+00 0.  1.
     999900   -1    0    0    0    0 -0.00000000000E+00 -0.00000000000E+00 -0.74505805969E-08  0.93827000000E+00  0.93827000000E+00 0.  1.
     999902    2    1    2    0    0 -0.16214854624E-01 -0.12870638143E-01  0.16591281193E-01  0.10173999143E+01  0.10170539514E+01 0.  0.
     999903    2    3    3    0    0 -0.33300637876E-01  0.81288560018E-01  0.88472776328E-01  0.12929810259E+00  0.34260833455E-01 0.  0.
         14    1    1    2    0    0  0.16214854624E-01  0.12870638143E-01 -0.16591281193E-01  0.26530085720E-01  0.00000000000E+00 0.  1.
     999901    1    3    3    0    0  0.17085783252E-01 -0.94159198161E-01 -0.71881495135E-01  0.88810181169E+00  0.88000000000E+00 0.  1.
        -11    1    4    4    0    0 -0.29670994739E-01  0.69207331768E-01  0.54214009895E-01  0.92787082556E-01  0.51100000000E-03 0.  1.
         11    1    4    4    0    0 -0.36296431367E-02  0.12081228250E-01  0.34258766433E-01  0.36511020033E-01  0.51100000000E-03 0. -1.
</event>
<event>
 8    1  0.1112958E+005  0.1043930E+01  0.7957747E-01            NaN
         13   -1    0    0    0    0  0.00000000000E+00  0.00000000000E+00  0.74505805969E-08  0.10566000000E+00  0.10566000000E+00 0.  1.
     999900   -1    0    0    0    0 -0.00000000000E+00 -0.00000000000E+00 -0.74505805969E-08  0.93827000000E+00  0.93827000000E+00 0.  1.
     999902    2    1    2    0    0  0.18710971605E-01  0.11401069679E-01 -0.80421134597E-02  0.10205898964E+01  0.10203229764E+01 0.  0.
     999903    2    3    3    0    0  0.49828093180E-01  0.68411678077E-01  0.99575834467E-01  0.13165789254E+00  0.15983031368E-01 0.  0.
         14    1    1    2    0    0 -0.18710971605E-01 -0.11401069679E-01  0.80421134597E-02  0.23340103623E-01  0.00000000000E+00 0.  1.
     999901    1    3    3    0    0 -0.31117121575E-01 -0.57010608398E-01 -0.10761794793E+00  0.88893200383E+00  0.88000000000E+00 0. -1.
        -11    1    4    4    0    0  0.38238634258E-01  0.41074407356E-01  0.70340561414E-01  0.89985308748E-01  0.51100000000E-03 0. -1.
         11    1    4    4    0    0  0.11589458922E-01  0.27337270722E-01  0.29235273054E-01  0.41672583795E-01  0.51100000000E-03 0.  1.
</event>
<event>
 8    1  0.1112958E+005  0.1043930E+01  0.7957747E-01            NaN
         13   -1    0    0    0    0  0.00000000000E+00  0.00000000000E+00  0.74505805969E-08  0.10566000000E+00  0.10566000000E+00 0.  1.
     999900   -1    0    0    0    0 -0.00000000000E+00 -0.00000000000E+00 -0.74505805969E-08  0.93827000000E+00  0.93827000000E+00 0.  1.
     999902    2    1    2    0    0 -0.17520706956E-01 -0.76668355619E-02 -0.14489981588E-01  0.10199359360E+01  0.10196536659E+01 0.  0.
     999903    2    3    3    0    0 -0.77383507691E-01  0.79584125023E-01 -0.68589012790E-01  0.13194776594E+00  0.19593877662E-01 0.  0.
         14    1    1    2    0    0  0.17520706956E-01  0.76668355619E-02  0.14489981588E-01  0.23994063978E-01  0.00000000000E+00 0.  1.
     999901    1    3    3    0    0  0.59862800735E-01 -0.87250960585E-01  0.54099031202E-01  0.88798817009E+00  0.88000000000E+00 0. -1.
        -11    1    4    4    0    0 -0.56669989215E-01  0.55460259146E-01 -0.38413101958E-01  0.88108771102E-01  0.51100000000E-03 0. -1.
         11    1    4    4    0    0 -0.20713518476E-01  0.24123865878E-01 -0.30175910831E-01  0.43838994834E-01  0.51100000000E-03 0.  1.
</event>
<event>
 8    1  0.1112958E+005  0.1043930E+01  0.7957747E-01            NaN
         13   -1    0    0    0    0  0.00000000000E+00  0.00000000000E+00  0.74505805969E-08  0.10566000000E+00  0.10566000000E+00 0.  1.
     999900   -1    0    0    0    0 -0.00000000000E+00 -0.00000000000E+00 -0.74505805969E-08  0.93827000000E+00  0.93827000000E+00 0. -1.
     999902    2    1    2    0    0  0.15377119379E-01  0.89980077040E-02 -0.16118114720E-01  0.10199047307E+01  0.10196217172E+01 0.  0.
     999903    2    3    3    0    0  0.33924574972E-01 -0.28835725552E-01  0.11894582126E+00  0.12860362204E+00  0.20209090818E-01 0.  0.
         14    1    1    2    0    0 -0.15377119379E-01 -0.89980077040E-02  0.16118114720E-01  0.24025269305E-01  0.00000000000E+00 0.  1.
     999901    1    3    3    0    0 -0.18547455593E-01  0.37833733256E-01 -0.13506393598E+00  0.89130110865E+00  0.88000000000E+00 0. -1.
        -11    1    4    4    0    0  0.55261638484E-02  0.28059986016E-02  0.18911499713E-01  0.19907738632E-01  0.51100000000E-03 0. -1.
         11    1    4    4    0    0  0.28398411124E-01 -0.31641724153E-01  0.10003432155E+00  0.10869588341E+00  0.51100000000E-03 0.  1.
</event>
<event>
 8    1  0.1112958E+005  0.1043930E+01  0.7957747E-01            NaN
         13   -1    0    0    0    0  0.00000000000E+00  0.00000000000E+00  0.74505805969E-08  0.10566000000E+00  0.10566000000E+00 0. -1.
     999900   -1    0    0    0    0 -0.00000000000E+00 -0.00000000000E+00 -0.74505805969E-08  0.93827000000E+00  0.93827000000E+00 0. -1.
     999902    2    1    2    0    0  0.15584566379E-01 -0.44337181177E-02  0.18287193814E-01  0.10194972756E+01  0.10192044627E+01 0.  0.
     999903    2    3    3    0    0  0.68268663137E-01 -0.94980143732E-01 -0.53947940535E-01  0.13034476678E+00  0.19938401896E-01 0.  0.
         14    1    1    2    0    0 -0.15584566379E-01  0.44337181177E-02 -0.18287193814E-01  0.24432724432E-01  0.00000000000E+00 0.  1.
     999901    1    3    3    0    0 -0.52684096757E-01  0.90546425614E-01  0.72235134350E-01  0.88915250878E+00  0.88000000000E+00 0.  1.
        -11    1    4    4    0    0  0.12401212496E-01 -0.27445159170E-01 -0.70412316049E-02  0.30933265213E-01  0.51100000000E-03 0. -1.
         11    1    4    4    0    0  0.55867450640E-01 -0.67534984562E-01 -0.46906708931E-01  0.99411501571E-01  0.51100000000E-03 0.  1.
</event>
<event>
 8    1  0.1112958E+005  0.1043930E+01  0.7957747E-01            NaN
         13   -1    0    0    0    0  0.00000000000E+00  0.00000000000E+00  0.74505805969E-08  0.10566000000E+00  0.10566000000E+00 0. -1.
     999900   -1    0    0    0    0 -0.00000000000E+00 -0.00000000000E+00 -0.74505805969E-08  0.93827000000E+00  0.93827000000E+00 0. -1.
     999902    2    1    2    0    0  0.18794933319E-01  0.10037576623E-02  0.14639765232E-01  0.10200850891E+01  0.10198063587E+01 0.  0.
     999903    2    3    3    0    0  0.30572791562E-01  0.10247414956E+00  0.74947143269E-01  0.13212566539E+00  0.20111445961E-01 0.  0.
         14    1    1    2    0    0 -0.18794933319E-01 -0.10037576623E-02 -0.14639765232E-01  0.23844910861E-01  0.00000000000E+00 0.  1.
     999901    1    3    3    0    0 -0.11777858243E-01 -0.10147039190E+00 -0.60307378036E-01  0.88795942375E+00  0.88000000000E+00 0. -1.
        -11    1    4    4    0    0  0.10740951615E-01  0.33425952141E-01  0.13598950145E-01  0.37654413874E-01  0.51100000000E-03 0.  1.
         11    1    4    4    0    0  0.19831839947E-01  0.69048197421E-01  0.61348193124E-01  0.94471251517E-01  0.51100000000E-03 0. -1.
</event>
<event>
 8    1  0.1112958E+005  0.1043930E+01  0.7957747E-01            NaN
         13   -1    0    0    0    0  0.00000000000E+00  0.00000000000E+00  0.74505805969E-08  0.10566000000E+00  0.10566000000E+00 0.  1.
     999900   -1    0    0    0    0 -0.00000000000E+00 -0.00000000000E+00 -0.74505805969E-08  0.93827000000E+00  0.93827000000E+00 0. -1.
     999902    2    1    2    0    0 -0.50483173143E-02 -0.19883012513E-01 -0.11850093562E-01  0.10202394025E+01  0.10199643101E+01 0.  0.
     999903    2    3    3    0    0  0.53011913737E-01  0.10588664349E+00  0.44459842278E-01  0.12762537295E+00  0.17009232153E-01 0.  0.
         14    1    1    2    0    0  0.50483173143E-02  0.19883012513E-01  0.11850093562E-01  0.23690597539E-01  0.00000000000E+00 0. -1.
     999901    1    3    3    0    0 -0.58060231051E-01 -0.12576965600E+00 -0.56309935840E-01  0.89261402951E+00  0.88000000000E+00 0. -1.
        -11    1    4    4    0    0  0.21156689894E-01  0.28786563254E-01  0.18634876313E-01  0.40296296200E-01  0.51100000000E-03 0.  1.
         11    1    4    4    0    0  0.31855223843E-01  0.77100080235E-01  0.25824965965E-01  0.87329076753E-01  0.51100000000E-03 0. -1.
</event>
<event>
 8    1  0.1112958E+005  0.1043930E+01  0.7957747E-01            NaN
         13   -1    0    0    0    0  0.00000000000E+00  0.00000000000E+00  0.74505805969E-08  0.10566000000E+00  0.10566000000E+00 0. -1.
     999900   -1    0    0    0    0 -0.00000000000E+00 -0.00000000000E+00 -0.74505805969E-08  0.93827000000E+00  0.93827000000E+00 0. -1.
     999902    2    1    2    0    0 -0.43524876416E-02 -0.82922804387E-02 -0.24624271805E-01  0.10175849658E+01  0.10172438753E+01 0.  0.
     999903    2    3    3    0    0  0.16887891080E-01  0.11256074100E+00 -0.56351495221E-01  0.12850497889E+00  0.19568272948E-01 0.  0.
         14    1    1    2    0    0  0.43524876416E-02  0.82922804387E-02  0.24624271805E-01  0.26345034171E-01  0.00000000000E+00 0. -1.
     999901    1    3    3    0    0 -0.21240378721E-01 -0.12085302143E+00  0.31727223417E-01  0.88907998694E+00  0.88000000000E+00 0.  1.
        -11    1    4    4    0    0  0.20140170251E-01  0.72773517777E-01 -0.34942101928E-01  0.83203503265E-01  0.51100000000E-03 0.  1.
         11    1    4    4    0    0 -0.32522791715E-02  0.39787223218E-01 -0.21409393293E-01  0.45301475621E-01  0.51100000000E-03 0. -1.
</event>
<event>
 8    1  0.1112958E+005  0.1043930E+01  0.7957747E-01            NaN
         13   -1    0    0    0    0  0.00000000000E+00  0.00000000000E+00  0.74505805969E-08  0.10566000000E+00  0.10566000000E+00 0. -1.
     999900   -1    0    0    0    0 -0.00000000000E+00 -0.00000000000E+00 -0.74505805969E-08  0.93827000000E+00  0.93827000000E+00 0.  1.
     999902    2    1    2    0    0  0.15395386444E-01 -0.17533291812E-01  0.29102670603E-02  0.10204160914E+01  0.10201451346E+01 0.  0.
     999903    2    3    3    0    0 -0.11089719577E+00  0.58662790294E-01  0.16858676825E-01  0.12803152325E+00  0.19192315323E-01 0.  0.
         14    1    1    2    0    0 -0.15395386444E-01  0.17533291812E-01 -0.29102670603E-02  0.23513908648E-01  0.00000000000E+00 0.  1.
     999901    1    3    3    0    0  0.12629258221E+00 -0.76196082106E-01 -0.13948409765E-01  0.89238456810E+00  0.88000000000E+00 0. -1.
        -11    1    4    4    0    0 -0.44732034105E-01  0.26453895046E-01  0.16202646078E-01  0.54438500156E-01  0.51100000000E-03 0.  1.
         11    1    4    4    0    0 -0.66165161663E-01  0.32208895248E-01  0.65603074677E-03  0.73593023096E-01  0.51100000000E-03 0. -1.
</event>
<event>
 8    1  0.1112958E+005  0.1043930E+01  0.7957747E-01            NaN
         13   -1    0    0    0    0  0.00000000000E+00  0.00000000000E+00  0.74505805969E-08  0.10566000000E+00  0.10566000000E+00 0. -1.
     999900   -1    0    0    0    0 -0.00000000000E+00 -0.00000000000E+00 -0.74505805969E-08  0.93827000000E+00  0.93827000000E+00 0.  1.
     999902    2    1    2    0    0  0.63208519416E-02  0.19162721069E-01  0.11939158928E-01  0.10204841781E+01  0.10202148064E+01 0.  0.
     999903    2    3    3    0    0 -0.60465191384E-01 -0.76694203917E-01  0.83290658967E-01  0.12990012132E+00  0.19966656331E-01 0.  0.
         14    1    1    2    0    0 -0.63208519416E-02 -0.19162721069E-01 -0.11939158928E-01  0.23445821887E-01  0.00000000000E+00 0.  1.
     999901    1    3    3    0    0  0.66786043326E-01  0.95856924986E-01 -0.71351500039E-01  0.89058405679E+00  0.88000000000E+00 0.  1.
        -11    1    4    4    0    0 -0.22536587176E-01 -0.36650086318E-01  0.25521085935E-01  0.50027128010E-01  0.51100000000E-03 0.  1.
         11    1    4    4    0    0 -0.37928604208E-01 -0.40044117599E-01  0.57769573032E-01  0.79872993313E-01  0.51100000000E-03 0. -1.
</event>
<event>
 8    1  0.1112958E+005  0.1043930E+01  0.7957747E-01            NaN
         13   -1    0    0    0    0  0.00000000000E+00  0.00000000000E+00  0.74505805969E-08  0.10566000000E+00  0.10566000000E+00 0.  1.
     999900   -1    0    0    0    0 -0.00000000000E+00 -0.00000000000E+00 -0.74505805969E-08  0.93827000000E+00  0.93827000000E+00 0. -1.
     999902    2    1    2    0    0 -0.15665748010E-01  0.11469084994E-01  0.13338289347E-01  0.10203744161E+01  0.10201024867E+01 0.  0.
     999903    2    3    3    0    0  0.93229075296E-01  0.57669998915E-01 -0.64985338370E-01  0.12901186489E+00  0.20086757452E-01 0.  0.
         14    1    1    2    0    0  0.15665748010E-01 -0.11469084994E-01 -0.13338289347E-01  0.23555583924E-01  0.00000000000E+00 0.  1.
     999901    1    3    3    0    0 -0.10889482331E+00 -0.46200913921E-01  0.78323627717E-01  0.89136255118E+00  0.88000000000E+00 0.  1.
        -11    1    4    4    0    0  0.35234308409E-01  0.20904780098E-01 -0.13337600598E-01  0.43088502303E-01  0.51100000000E-03 0.  1.
         11    1    4    4    0    0  0.57994766887E-01  0.36765218817E-01 -0.51647737773E-01  0.85923362591E-01  0.51100000000E-03 0. -1.
</event>
<event>
 8    1  0.1112958E+005  0.1043930E+01  0.7957747E-01            NaN
         13   -1    0    0    0    0  0.00000000000E+00  0.00000000000E+00  0.74505805969E-08  0.10566000000E+00  0.10566000000E+00 0.  1.
     999900   -1    0    0    0    0 -0.00000000000E+00 -0.00000000000E+00 -0.74505805969E-08  0.93827000000E+00  0.93827000000E+00 0.  1.
     999902    2    1    2    0    0  0.22910303795E-01 -0.51742624505E-02  0.54386040389E-02  0.10198212168E+01  0.10195362087E+01 0.  0.
     999903    2    3    3    0    0  0.13345404763E-01  0.95550656059E-01  0.85347518808E-01  0.13042679861E+00  0.20467611687E-01 0.  0.
         14    1    1    2    0    0 -0.22910303795E-01  0.51742624505E-02 -0.54386040389E-02  0.24108783167E-01  0.00000000000E+00 0. -1.
     999901    1    3    3    0    0  0.95648990316E-02 -0.10072491851E+00 -0.79908914769E-01  0.88939441822E+00  0.88000000000E+00 0.  1.
        -11    1    4    4    0    0  0.14573819911E-01  0.60009765537E-01  0.43668848556E-01  0.75635954689E-01  0.51100000000E-03 0.  1.
         11    1    4    4    0    0 -0.12284151474E-02  0.35540890522E-01  0.41678670252E-01  0.54790843924E-01  0.51100000000E-03 0. -1.
</event>
<event>
 7    1  0.1434888E+005  0.1043930E+01  0.7957747E-01            NaN
         13   -1    0    0    0    0  0.00000000000E+00  0.00000000000E+00  0.74505805969E-08  0.10566000000E+00  0.10566000000E+00 0.  1.
     999900   -1    0    0    0    0 -0.00000000000E+00 -0.00000000000E+00 -0.74505805969E-08  0.93827000000E+00  0.93827000000E+00 0.  1.
     999903    2    1    2    0    0 -0.86033228660E-02  0.25411909007E-01 -0.96382929631E-01  0.10066214392E+00  0.11109266859E-01 0.  0.
         14    1    1    2    0    0 -0.26048906336E-01  0.47980877749E-01  0.56466751557E-02  0.54887112250E-01  0.00000000000E+00 0. -1.
     999901    1    1    2    0    0  0.34652229202E-01 -0.73392786756E-01  0.90736254475E-01  0.88838074383E+00  0.88000000000E+00 0. -1.
        -11    1    3    3    0    0 -0.37837223457E-03  0.16494903320E-01 -0.47222798989E-01  0.50024782522E-01  0.51100000000E-03 0. -1.
         11    1    3    3    0    0 -0.82249506314E-02  0.89170056866E-02 -0.49160130642E-01  0.50637361395E-01  0.51100000000E-03 0.  1.
</event>
<event>
 8    1  0.1112958E+005  0.1043930E+01  0.7957747E-01            NaN
         13   -1    0    0    0    0  0.00000000000E+00  0.00000000000E+00  0.74505805969E-08  0.10566000000E+00  0.10566000000E+00 0. -1.
     999900   -1    0    0    0    0 -0.00000000000E+00 -0.00000000000E+00 -0.74505805969E-08  0.93827000000E+00  0.93827000000E+00 0. -1.
     999902    2    1    2    0    0  0.76526693308E-02  0.12276003905E-01 -0.18333160208E-01  0.10205768764E+01  0.10203096551E+01 0.  0.
     999903    2    3    3    0    0  0.30774442359E-01  0.11771975086E+00 -0.50314926519E-01  0.13340393183E+00  0.21447870566E-01 0.  0.
         14    1    1    2    0    0 -0.76526693308E-02 -0.12276003905E-01  0.18333160208E-01  0.23353123623E-01  0.00000000000E+00 0. -1.
     999901    1    3    3    0    0 -0.23121773028E-01 -0.10544374696E+00  0.31981766311E-01  0.88717294455E+00  0.88000000000E+00 0.  1.
        -11    1    4    4    0    0  0.33733796298E-01  0.10484087458E+00 -0.47163949399E-01  0.11980933703E+00  0.51100000000E-03 0.  1.
         11    1    4    4    0    0 -0.29593539391E-02  0.12878876280E-01 -0.31509771199E-02  0.13594594801E-01  0.51100000000E-03 0. -1.
</event>
<event>
 8    1  0.1112958E+005  0.1043930E+01  0.7957747E-01            NaN
         13   -1    0    0    0    0  0.00000000000E+00  0.00000000000E+00  0.74505805969E-08  0.10566000000E+00  0.10566000000E+00 0. -1.
     999900   -1    0    0    0    0 -0.00000000000E+00 -0.00000000000E+00 -0.74505805969E-08  0.93827000000E+00  0.93827000000E+00 0.  1.
     999902    2    1    2    0    0  0.51249517240E-02  0.13383558821E-01  0.15866908305E-01  0.10225490843E+01  0.10223255285E+01 0.  0.
     999903    2    3    3    0    0  0.72207739075E-01 -0.10731077230E+00 -0.10939282222E-01  0.13137806044E+00  0.20272331753E-01 0.  0.
         14    1    1    2    0    0 -0.51249517240E-02 -0.13383558821E-01 -0.15866908305E-01  0.21380915697E-01  0.00000000000E+00 0.  1.
     999901    1    3    3    0    0 -0.67082787351E-01  0.12069433112E+00  0.26806190526E-01  0.89117102386E+00  0.88000000000E+00 0. -1.
        -11    1    4    4    0    0  0.54943368614E-01 -0.90139579166E-01 -0.15195042056E-01  0.10665396341E+00  0.51100000000E-03 0. -1.
         11    1    4    4    0    0  0.17264370461E-01 -0.17171193136E-01  0.42557598346E-02  0.24724097029E-01  0.51100000000E-03 0.  1.
</event>
<event>
 8    1  0.1112958E+005  0.1043930E+01  0.7957747E-01            NaN
         13   -1    0    0    0    0  0.00000000000E+00  0.00000000000E+00  0.74505805969E-08  0.10566000000E+00  0.10566000000E+00 0. -1.
     999900   -1    0    0    0    0 -0.00000000000E+00 -0.00000000000E+00 -0.74505805969E-08  0.93827000000E+00  0.93827000000E+00 0. -1.
     999902    2    1    2    0    0 -0.22021649748E-01 -0.59773926161E-02  0.79596394006E-04  0.10211113976E+01  0.10208564040E+01 0.  0.
     999903    2    3    3    0    0 -0.78303032379E-01  0.10335959820E+00  0.16969935900E-01  0.13240027740E+00  0.20670832371E-01 0.  0.
         14    1    1    2    0    0  0.22021649748E-01  0.59773926161E-02 -0.79596394006E-04  0.22818602405E-01  0.00000000000E+00 0. -1.
     999901    1    3    3    0    0  0.56281382631E-01 -0.10933699082E+00 -0.16890339506E-01  0.88871112020E+00  0.88000000000E+00 0. -1.
        -11    1    4    4    0    0 -0.51100631651E-01  0.67082772441E-01  0.20908337146E-01  0.86883787882E-01  0.51100000000E-03 0. -1.
         11    1    4    4    0    0 -0.27202400728E-01  0.36276825760E-01 -0.39384012465E-02  0.45516489518E-01  0.51100000000E-03 0.  1.
</event>
<event>
 8    1  0.1112958E+005  0.1043930E+01  0.7957747E-01            NaN
         13   -1    0    0    0    0  0.00000000000E+00  0.00000000000E+00  0.74505805969E-08  0.10566000000E+00  0.10566000000E+00 0.  1.
     999900   -1    0    0    0    0 -0.00000000000E+00 -0.00000000000E+00 -0.74505805969E-08  0.93827000000E+00  0.93827000000E+00 0.  1.
     999902    2    1    2    0    0  0.12857761588E-01  0.18380571856E-01 -0.89757915177E-02  0.10197694477E+01  0.10194831995E+01 0.  0.
     999903    2    3    3    0    0  0.59111012129E-01  0.90546994738E-01  0.72659158154E-01  0.13184398866E+00  0.20263614463E-01 0.  0.
         14    1    1    2    0    0 -0.12857761588E-01 -0.18380571856E-01  0.89757915177E-02  0.24160552315E-01  0.00000000000E+00 0. -1.
     999901    1    3    3    0    0 -0.46253250540E-01 -0.72166422882E-01 -0.81634949672E-01  0.88792545903E+00  0.88000000000E+00 0.  1.
        -11    1    4    4    0    0  0.10529702943E-01  0.31499767417E-01  0.26805660390E-01  0.42683890888E-01  0.51100000000E-03 0. -1.
         11    1    4    4    0    0  0.48581309185E-01  0.59047227321E-01  0.45853497764E-01  0.89160097772E-01  0.51100000000E-03 0.  1.
</event>
<event>
 8    1  0.1112958E+005  0.1043930E+01  0.7957747E-01            NaN
         13   -1    0    0    0    0  0.00000000000E+00  0.00000000000E+00  0.74505805969E-08  0.10566000000E+00  0.10566000000E+00 0.  1.
     999900   -1    0    0    0    0 -0.00000000000E+00 -0.00000000000E+00 -0.74505805969E-08  0.93827000000E+00  0.93827000000E+00 0. -1.
     999902    2    1    2    0    0 -0.46080434857E-02  0.22869395534E-01  0.45035563347E-02  0.10201702581E+01  0.10198935386E+01 0.  0.
     999903    2    3    3    0    0  0.11531762304E+00 -0.44002930654E-01  0.32023502330E-01  0.12909707313E+00  0.20152853378E-01 0.  0.
         14    1    1    2    0    0  0.46080434857E-02 -0.22869395534E-01 -0.45035563347E-02  0.23759741929E-01  0.00000000000E+00 0.  1.
     999901    1    3    3    0    0 -0.11992566652E+00  0.66872326188E-01 -0.27519945995E-01  0.89107318495E+00  0.88000000000E+00 0. -1.
        -11    1    4    4    0    0  0.10879646837E+00 -0.36119378943E-01  0.31273321081E-01  0.11882576655E+00  0.51100000000E-03 0.  1.
         11    1    4    4    0    0  0.65211546678E-02 -0.78835517115E-02  0.75018124887E-03  0.10271306572E-01  0.51100000000E-03 0. -1.
</event>
<event>
 8    1  0.1112958E+005  0.1043930E+01  0.7957747E-01            NaN
         13   -1    0    0    0    0  0.00000000000E+00  0.00000000000E+00  0.74505805969E-08  0.10566000000E+00  0.10566000000E+00 0. -1.
     999900   -1    0    0    0    0 -0.00000000000E+00 -0.00000000000E+00 -0.74505805969E-08  0.93827000000E+00  0.93827000000E+00 0.  1.
     999902    2    1    2    0    0  0.11992955655E-01 -0.91445617994E-02 -0.17483034183E-01  0.10208408147E+01  0.10205796678E+01 0.  0.
     999903    2    3    3    0    0  0.39568923739E-01 -0.11744374903E+00 -0.46406397236E-01  0.13330168374E+00  0.16032818573E-01 0.  0.
         14    1    1    2    0    0 -0.11992955655E-01  0.91445617994E-02  0.17483034183E-01  0.23089185350E-01  0.00000000000E+00 0. -1.
     999901    1    3    3    0    0 -0.27575968084E-01  0.10829918723E+00  0.28923363053E-01  0.88753913091E+00  0.88000000000E+00 0. -1.
        -11    1    4    4    0    0  0.82232416937E-02 -0.25816009027E-01 -0.17417134736E-01  0.32213440199E-01  0.51100000000E-03 0.  1.
         11    1    4    4    0    0  0.31345682045E-01 -0.91627740001E-01 -0.28989262500E-01  0.10108824354E+00  0.51100000000E-03 0. -1.
</event>
<event>
 8    1  0.1112958E+005  0.1043930E+01  0.7957747E-01            NaN
         13   -1    0    0    0    0  0.00000000000E+00  0.00000000000E+00  0.74505805969E-08  0.10566000000E+00  0.10566000000E+00 0. -1.
     999900   -1    0    0    0    0 -0.00000000000E+00 -0.00000000000E+00 -0.74505805969E-08  0.93827000000E+00  0.93827000000E+00 0.  1.
     999902    2    1    2    0    0  0.16040977151E-01  0.92124910219E-02 -0.16716280549E-01  0.10189977523E+01  0.10186926928E+01 0.  0.
     999903    2    3    3    0    0 -0.10031463777E+00 -0.74168556062E-01 -0.16454955129E-01  0.12743109950E+00  0.20097719083E-01 0.  0.
         14    1    1    2    0    0 -0.16040977151E-01 -0.92124910219E-02  0.16716280549E-01  0.24932247676E-01  0.00000000000E+00 0. -1.
     999901    1    3    3    0    0  0.11635561492E+00  0.83381047084E-01 -0.26132542041E-03  0.89156665282E+00  0.88000000000E+00 0.  1.
        -11    1    4    4    0    0 -0.75145340450E-01 -0.65523513849E-01 -0.11595553094E-01  0.10037365706E+00  0.51100000000E-03 0.  1.
         11    1    4    4    0    0 -0.25169297319E-01 -0.86450422133E-02 -0.48594020353E-02  0.27057442443E-01  0.51100000000E-03 0. -1.
</event>
<event>
 8    1  0.1112958E+005  0.1043930E+01  0.7957747E-01            NaN
         13   -1    0    0    0    0  0.00000000000E+00  0.00000000000E+00  0.74505805969E-08  0.10566000000E+00  0.10566000000E+00 0. -1.
     999900   -1    0    0    0    0 -0.00000000000E+00 -0.00000000000E+00 -0.74505805969E-08  0.93827000000E+00  0.93827000000E+00 0.  1.
     999902    2    1    2    0    0 -0.23320503795E-01 -0.71877503978E-02 -0.55476560659E-02  0.10189042904E+01  0.10185969109E+01 0.  0.
     999903    2    3    3    0    0  0.28902930659E-02 -0.12826770648E+00  0.10730533771E-01  0.13007790629E+00  0.18551523614E-01 0.  0.
         14    1    1    2    0    0  0.23320503795E-01  0.71877503978E-02  0.55476560659E-02  0.25025709597E-01  0.00000000000E+00 0. -1.
     999901    1    3    3    0    0 -0.26210796861E-01  0.12107995608E+00 -0.16278189837E-01  0.88882638412E+00  0.88000000000E+00 0.  1.
        -11    1    4    4    0    0  0.73059295580E-02 -0.12010250096E+00  0.10420827266E-01  0.12077599971E+00  0.51100000000E-03 0. -1.
         11    1    4    4    0    0 -0.44156364922E-02 -0.81652055184E-02  0.30970650510E-03  0.93019065738E-02  0.51100000000E-03 0.  1.
</event>
<event>
 8    1  0.1112958E+005  0.1043930E+01  0.7957747E-01            NaN
         13   -1    0    0    0    0  0.00000000000E+00  0.00000000000E+00  0.74505805969E-08  0.10566000000E+00  0.10566000000E+00 0.  1.
     999900   -1    0    0    0    0 -0.00000000000E+00 -0.00000000000E+00 -0.74505805969E-08  0.93827000000E+00  0.93827000000E+00 0. -1.
     999902    2    1    2    0    0  0.71684878826E-02 -0.19721085530E-01 -0.11269028502E-01  0.10201119515E+01  0.10198338561E+01 0.  0.
     999903    2    3    3    0    0 -0.39770478799E-01 -0.11143531301E+00  0.56056368550E-01  0.13154711128E+00  0.12759547871E-01 0.  0.
         14    1    1    2    0    0 -0.71684878826E-02  0.19721085530E-01  0.11269028502E-01  0.23818048543E-01  0.00000000000E+00 0.  1.
     999901    1    3    3    0    0  0.46938966681E-01  0.91714227477E-01 -0.67325397052E-01  0.88856484018E+00  0.88000000000E+00 0. -1.
        -11    1    4    4    0    0 -0.29817952537E-01 -0.71286772759E-01  0.31549269292E-01  0.83465752125E-01  0.51100000000E-03 0. -1.
         11    1    4    4    0    0 -0.99525262616E-02 -0.40148540247E-01  0.24507099258E-01  0.48081359153E-01  0.51100000000E-03 0.  1.
</event>
<event>
 8    1  0.1112958E+005  0.1043930E+01  0.7957747E-01            NaN
         13   -1    0    0    0    0  0.00000000000E+00  0.00000000000E+00  0.74505805969E-08  0.10566000000E+00  0.10566000000E+00 0. -1.
     999900   -1    0    0    0    0 -0.00000000000E+00 -0.00000000000E+00 -0.74505805969E-08  0.93827000000E+00  0.93827000000E+00 0.  1.
     999902    2    1    2    0    0  0.11035032088E-01  0.55438575313E-02  0.20857481995E-01  0.10196907582E+01  0.10194026199E+01 0.  0.
     999903    2    3    3    0    0  0.93381348081E-01 -0.57477150358E-01  0.70743480073E-01  0.13219925060E+00  0.21173164722E-01 0.  0.
         14    1    1    2    0    0 -0.11035032088E-01 -0.55438575313E-02 -0.20857481995E-01  0.24239241834E-01  0.00000000000E+00 0.  1.
     999901    1    3    3    0    0 -0.82346315993E-01  0.63021007889E-01 -0.49885998078E-01  0.88749150756E+00  0.88000000000E+00 0.  1.
        -11    1    4    4    0    0  0.43221908682E-01 -0.34470330157E-01  0.25718597676E-01  0.60975769275E-01  0.51100000000E-03 0.  1.
         11    1    4    4    0    0  0.50159439399E-01 -0.23006820201E-01  0.45024882397E-01  0.71223481328E-01  0.51100000000E-03 0. -1.
</event>
<event>
 8    1  0.1112958E+005  0.1043930E+01  0.7957747E-01            NaN
         13   -1    0    0    0    0  0.00000000000E+00  0.00000000000E+00  0.74505805969E-08  0.10566000000E+00  0.10566000000E+00 0.  1.
     999900   -1    0    0    0    0 -0.00000000000E+00 -0.00000000000E+00 -0.74505805969E-08  0.93827000000E+00  0.93827000000E+00 0.  1.
     999902    2    1    2    0    0  0.15468251469E-01 -0.17369382303E-01 -0.31453250468E-02  0.10204596929E+01  0.10201897517E+01 0.  0.
     999903    2    3    3    0    0  0.12467869126E-01 -0.96757308237E-01  0.87192697982E-01  0.13227480029E+00  0.19407002677E-01 0.  0.
         14    1    1    2    0    0 -0.15468251469E-01  0.17369382303E-01  0.31453250468E-02  0.23470307086E-01  0.00000000000E+00 0. -1.
     999901    1    3    3    0    0  0.30003823421E-02  0.79387925934E-01 -0.90338023029E-01  0.88818489262E+00  0.88000000000E+00 0.  1.
        -11    1    4    4    0    0  0.17266972779E-01 -0.72401880025E-01  0.61607846029E-01  0.96622815077E-01  0.51100000000E-03 0. -1.
         11    1    4    4    0    0 -0.47991036522E-02 -0.24355428212E-01  0.25584851953E-01  0.35651985214E-01  0.51100000000E-03 0.  1.
</event>
<event>
 8    1  0.1112958E+005  0.1043930E+01  0.7957747E-01            NaN
         13   -1    0    0    0    0  0.00000000000E+00  0.00000000000E+00  0.74505805969E-08  0.10566000000E+00  0.10566000000E+00 0.  1.
     999900   -1    0    0    0    0 -0.00000000000E+00 -0.00000000000E+00 -0.74505805969E-08  0.93827000000E+00  0.93827000000E+00 0.  1.
     999902    2    1    2    0    0 -0.13068630322E-01 -0.96693200237E-02 -0.16642268576E-01  0.10206652208E+01  0.10204000407E+01 0.  0.
     999903    2    3    3    0    0  0.28643502080E-01  0.65492735532E-01 -0.10893747781E+00  0.13167273363E+00  0.18989104552E-01 0.  0.
         14    1    1    2    0    0  0.13068630322E-01  0.96693200237E-02  0.16642268576E-01  0.23264779208E-01  0.00000000000E+00 0.  1.
     999901    1    3    3    0    0 -0.41712132402E-01 -0.75162055555E-01  0.92295209231E-01  0.88899248716E+00  0.88000000000E+00 0. -1.
        -11    1    4    4    0    0  0.24264206032E-02  0.19275513240E-01 -0.41420612550E-01  0.45753264284E-01  0.51100000000E-03 0.  1.
         11    1    4    4    0    0  0.26217081477E-01  0.46217222292E-01 -0.67516865257E-01  0.85919469346E-01  0.51100000000E-03 0. -1.
</event>
<event>
 8    1  0.1112958E+005  0.1043930E+01  0.7957747E-01            NaN
         13   -1    0    0    0    0  0.00000000000E+00  0.00000000000E+00  0.74505805969E-08  0.10566000000E+00  0.10566000000E+00 0. -1.
     999900   -1    0    0    0    0 -0.00000000000E+00 -0.00000000000E+00 -0.74505805969E-08  0.93827000000E+00  0.93827000000E+00 0. -1.
     999902    2    1    2    0    0 -0.17080164307E-01  0.61677806079E-02 -0.13876989570E-01  0.10210751456E+01  0.10208193320E+01 0.  0.
     999903    2    3    3    0    0 -0.16917658925E-01 -0.12604386266E+00  0.21908105308E-01  0.13047954823E+00  0.19279131985E-01 0.  0.
         14    1    1    2    0    0  0.17080164307E-01 -0.61677806079E-02  0.13876989570E-01  0.22854854405E-01  0.00000000000E+00 0.  1.
     999901    1    3    3    0    0 -0.16250538155E-03  0.13221164327E+00 -0.35785094877E-01  0.89059559736E+00  0.88000000000E+00 0. -1.
        -11    1    4    4    0    0 -0.31117363955E-02 -0.55540010773E-01  0.18231750098E-01  0.58540870618E-01  0.51100000000E-03 0.  1.
         11    1    4    4    0    0 -0.13805922530E-01 -0.70503851891E-01  0.36763552097E-02  0.71938677615E-01  0.51100000000E-03 0. -1.
</event>
<event>
 8    1  0.1112958E+005  0.1043930E+01  0.7957747E-01            NaN
         13   -1    0    0    0    0  0.00000000000E+00  0.00000000000E+00  0.74505805969E-08  0.10566000000E+00  0.10566000000E+00 0. -1.
     999900   -1    0    0    0    0 -0.00000000000E+00 -0.00000000000E+00 -0.74505805969E-08  0.93827000000E+00  0.93827000000E+00 0. -1.
     999902    2    1    2    0    0 -0.76279867024E-02 -0.23454802483E-02 -0.22767328093E-01  0.10198045220E+01  0.10195191143E+01 0.  0.
     999903    2    3    3    0    0 -0.12840866492E+00 -0.61845038319E-02  0.14539668490E-01  0.13076317185E+00  0.18988729297E-01 0.  0.
         14    1    1    2    0    0  0.76279867024E-02  0.23454802483E-02  0.22767328093E-01  0.24125477969E-01  0.00000000000E+00 0. -1.
     999901    1    3    3    0    0  0.12078067821E+00  0.38390235836E-02 -0.37306996583E-01  0.88904135018E+00  0.88000000000E+00 0.  1.
        -11    1    4    4    0    0 -0.30436137914E-01  0.56766262821E-02  0.72659904435E-02  0.31806262201E-01  0.51100000000E-03 0.  1.
         11    1    4    4    0    0 -0.97972527002E-01 -0.11861130114E-01  0.72736780462E-02  0.98956909653E-01  0.51100000000E-03 0. -1.
</event>
<event>
 8    1  0.1112958E+005  0.1043930E+01  0.7957747E-01            NaN
         13   -1    0    0    0    0  0.00000000000E+00  0.00000000000E+00  0.74505805969E-08  0.10566000000E+00  0.10566000000E+00 0. -1.
     999900   -1    0    0    0    0 -0.00000000000E+00 -0.00000000000E+00 -0.74505805969E-08  0.93827000000E+00  0.93827000000E+00 0.  1.
     999902    2    1    2    0    0 -0.59050376695E-02 -0.12585409647E-01  0.19857748737E-01  0.10196896990E+01  0.10194015353E+01 0.  0.
     999903    2    3    3    0    0  0.52194135562E-01  0.66623554466E-01  0.97647616721E-01  0.13081353360E+00  0.20351848176E-01 0.  0.
         14    1    1    2    0    0  0.59050376695E-02  0.12585409647E-01 -0.19857748737E-01  0.24240300963E-01  0.00000000000E+00 0.  1.
     999901    1    3    3    0    0 -0.58099173231E-01 -0.79208964113E-01 -0.77789867984E-01  0.88887616544E+00  0.88000000000E+00 0.  1.
        -11    1    4    4    0    0  0.45088617103E-01  0.53115951476E-01  0.67451493709E-01  0.96975526903E-01  0.51100000000E-03 0. -1.
         11    1    4    4    0    0  0.71055184584E-02  0.13507602990E-01  0.30196123012E-01  0.33838006694E-01  0.51100000000E-03 0.  1.
</event>
<event>
 8    1  0.1112958E+005  0.1043930E+01  0.7957747E-01            NaN
         13   -1    0    0    0    0  0.00000000000E+00  0.00000000000E+00  0.74505805969E-08  0.10566000000E+00  0.10566000000E+00 0.  1.
     999900   -1    0    0    0    0 -0.00000000000E+00 -0.00000000000E+00 -0.74505805969E-08  0.93827000000E+00  0.93827000000E+00 0.  1.
     999902    2    1    2    0    0 -0.11125826844E-01  0.59696463363E-02  0.13725303527E-01  0.10252804784E+01  0.10251108499E+01 0.  0.
     999903    2    3    3    0    0  0.23197140407E-01  0.90586145330E-01 -0.93838575792E-01  0.13404088874E+00  0.20428521679E-01 0.  0.
         14    1    1    2    0    0  0.11125826844E-01 -0.59696463363E-02 -0.13725303527E-01  0.18649521636E-01  0.00000000000E+00 0. -1.
     999901    1    3    3    0    0 -0.34322967252E-01 -0.84616498994E-01  0.10756387932E+00  0.89123958963E+00  0.88000000000E+00 0. -1.
        -11    1    4    4    0    0 -0.18467229158E-02  0.16677772272E-01 -0.24177305871E-01  0.29434023063E-01  0.51100000000E-03 0.  1.
         11    1    4    4    0    0  0.25043863323E-01  0.73908373058E-01 -0.69661269921E-01  0.10460686567E+00  0.51100000000E-03 0. -1.
</event>
<event>
 8    1  0.1112958E+005  0.1043930E+01  0.7957747E-01            NaN
         13   -1    0    0    0    0  0.00000000000E+00  0.00000000000E+00  0.74505805969E-08  0.10566000000E+00  0.10566000000E+00 0. -1.
     999900   -1    0    0    0    0 -0.00000000000E+00 -0.00000000000E+00 -0.74505805969E-08  0.93827000000E+00  0.93827000000E+00 0. -1.
     999902    2    1    2    0    0  0.49918857781E-02 -0.10896293801E-01  0.19778324876E-01  0.10208036022E+01  0.10205416032E+01 0.  0.
     999903    2    3    3    0    0 -0.10044982641E+00 -0.82119603831E-01 -0.21851253211E-02  0.13138069504E+00  0.20550311350E-01 0.  0.
         14    1    1    2    0    0 -0.49918857781E-02  0.10896293801E-01 -0.19778324876E-01  0.23126397841E-01  0.00000000000E+00 0.  1.
     999901    1    3    3    0    0  0.10544171219E+00  0.71223310030E-01  0.21963450197E-01  0.88942290712E+00  0.88000000000E+00 0.  1.
        -11    1    4    4    0    0 -0.55986206070E-01 -0.32566350412E-01 -0.18085607840E-03  0.64771261213E-01  0.51100000000E-03 0. -1.
         11    1    4    4    0    0 -0.44463620345E-01 -0.49553253419E-01 -0.20042692427E-02  0.66609433828E-01  0.51100000000E-03 0.  1.
</event>
<event>
 8    1  0.1112958E+005  0.1043930E+01  0.7957747E-01            NaN
         13   -1    0    0    0    0  0.00000000000E+00  0.00000000000E+00  0.74505805969E-08  0.10566000000E+00  0.10566000000E+00 0. -1.
     999900   -1    0    0    0    0 -0.00000000000E+00 -0.00000000000E+00 -0.74505805969E-08  0.93827000000E+00  0.93827000000E+00 0.  1.
     999902    2    1    2    0    0 -0.57135349050E-02 -0.19951408241E-01  0.89348123614E-02  0.10213349996E+01  0.10210850343E+01 0.  0.
     999903    2    3    3    0    0 -0.11503872963E+00 -0.92700289766E-02 -0.60405699046E-01  0.13179905507E+00  0.20057409797E-01 0.  0.
         14    1    1    2    0    0  0.57135349050E-02  0.19951408241E-01 -0.89348123614E-02  0.22595000417E-01  0.00000000000E+00 0.  1.
     999901    1    3    3    0    0  0.10932519472E+00 -0.10681379265E-01  0.69340511407E-01  0.88953594452E+00  0.88000000000E+00 0.  1.
        -11    1    4    4    0    0 -0.10170455366E+00 -0.14641579290E-01 -0.53279343290E-01  0.11574602206E+00  0.51100000000E-03 0.  1.
         11    1    4    4    0    0 -0.13334175965E-01  0.53715503133E-02 -0.71263557554E-02  0.16053033009E-01  0.51100000000E-03 0. -1.
</event>
<event>
 8    1  0.1112958E+005  0.1043930E+01  0.7957747E-01            NaN
         13   -1    0    0    0    0  0.00000000000E+00  0.00000000000E+00  0.74505805969E-08  0.10566000000E+00  0.10566000000E+00 0. -1.
     999900   -1    0    0    0    0 -0.00000000000E+00 -0.00000000000E+00 -0.74505805969E-08  0.93827000000E+00  0.93827000000E+00 0. -1.
     999902    2    1    2    0    0  0.11035327824E-02 -0.39941642629E-02 -0.20900973495E-01  0.10226222121E+01  0.10224001990E+01 0.  0.
     999903    2    3    3    0    0  0.32029766364E-01 -0.94786097410E-01 -0.88132031785E-01  0.13486119568E+00  0.20247885776E-01 0.  0.
         14    1    1    2    0    0 -0.11035327824E-02  0.39941642629E-02  0.20900973495E-01  0.21307787915E-01  0.00000000000E+00 0. -1.
     999901    1    3    3    0    0 -0.30926233582E-01  0.90791933147E-01  0.67231058290E-01  0.88776101640E+00  0.88000000000E+00 0.  1.
        -11    1    4    4    0    0  0.19625164251E-01 -0.71149368893E-01 -0.74549394137E-01  0.10490592477E+00  0.51100000000E-03 0. -1.
         11    1    4    4    0    0  0.12404602113E-01 -0.23636728517E-01 -0.13582637649E-01  0.29955270906E-01  0.51100000000E-03 0.  1.
</event>
<event>
 8    1  0.1112958E+005  0.1043930E+01  0.7957747E-01            NaN
         13   -1    0    0    0    0  0.00000000000E+00  0.00000000000E+00  0.74505805969E-08  0.10566000000E+00  0.10566000000E+00 0.  1.
     999900   -1    0    0    0    0 -0.00000000000E+00 -0.00000000000E+00 -0.74505805969E-08  0.93827000000E+00  0.93827000000E+00 0.  1.
     999902    2    1    2    0    0  0.14416218988E-01 -0.61695129643E-02 -0.17232329781E-01  0.10206309990E+01  0.10203650291E+01 0.  0.
     999903    2    3    3    0    0 -0.10209457814E+00  0.73222125885E-01 -0.22463757901E-01  0.12939300268E+00  0.21287228964E-01 0.  0.
         14    1    1    2    0    0 -0.14416218988E-01  0.61695129643E-02  0.17232329781E-01  0.23299001047E-01  0.00000000000E+00 0.  1.
     999901    1    3    3    0    0  0.11651079713E+00 -0.79391638850E-01  0.52314281201E-02  0.89123799628E+00  0.88000000000E+00 0. -1.
        -11    1    4    4    0    0 -0.55346611714E-01  0.51978698292E-01 -0.16451216327E-01  0.77691287440E-01  0.51100000000E-03 0.  1.
         11    1    4    4    0    0 -0.46747966429E-01  0.21243427593E-01 -0.60125415733E-02  0.51701715236E-01  0.51100000000E-03 0. -1.
</event>
<event>
 8    1  0.1112958E+005  0.1043930E+01  0.7957747E-01            NaN
         13   -1    0    0    0    0  0.00000000000E+00  0.00000000000E+00  0.74505805969E-08  0.10566000000E+00  0.10566000000E+00 0. -1.
     999900   -1    0    0    0    0 -0.00000000000E+00 -0.00000000000E+00 -0.74505805969E-08  0.93827000000E+00  0.93827000000E+00 0. -1.
     999902    2    1    2    0    0 -0.54540640612E-02 -0.19285797551E-01 -0.11528457960E-01  0.10208087080E+01  0.10205468260E+01 0.  0.
     999903    2    3    3    0    0 -0.63005172442E-02 -0.12929008570E+00  0.24151794868E-01  0.13324195537E+00  0.20358946325E-01 0.  0.
         14    1    1    2    0    0  0.54540640612E-02  0.19285797551E-01  0.11528457960E-01  0.23121292025E-01  0.00000000000E+00 0. -1.
     999901    1    3    3    0    0  0.84645318298E-03  0.11000428815E+00 -0.35680252829E-01  0.88756675261E+00  0.88000000000E+00 0. -1.
        -11    1    4    4    0    0  0.70891340649E-03 -0.10279820800E+00  0.12877053936E-01  0.10360527866E+00  0.51100000000E-03 0.  1.
         11    1    4    4    0    0 -0.70094306507E-02 -0.26491877703E-01  0.11274740933E-01  0.29636676710E-01  0.51100000000E-03 0. -1.
</event>
<event>
 8    1  0.1112958E+005  0.1043930E+01  0.7957747E-01            NaN
         13   -1    0    0    0    0  0.00000000000E+00  0.00000000000E+00  0.74505805969E-08  0.10566000000E+00  0.10566000000E+00 0. -1.
     999900   -1    0    0    0    0 -0.00000000000E+00 -0.00000000000E+00 -0.74505805969E-08  0.93827000000E+00  0.93827000000E+00 0.  1.
     999902    2    1    2    0    0  0.56105520031E-03  0.89414815359E-02 -0.22045879857E-01  0.10201332420E+01  0.10198556494E+01 0.  0.
     999903    2    3    3    0    0 -0.11906062926E+00 -0.28098263025E-01 -0.40844331483E-01  0.13106931182E+00  0.23365771179E-01 0.  0.
         14    1    1    2    0    0 -0.56105520031E-03 -0.89414815359E-02  0.22045879857E-01  0.23796758049E-01  0.00000000000E+00 0. -1.
     999901    1    3    3    0    0  0.11962168446E+00  0.37039744561E-01  0.18798451626E-01  0.88906393013E+00  0.88000000000E+00 0. -1.
        -11    1    4    4    0    0 -0.34107137295E-01  0.62524105885E-03 -0.49529629209E-02  0.34474348486E-01  0.51100000000E-03 0. -1.
         11    1    4    4    0    0 -0.84953491965E-01 -0.28723504084E-01 -0.35891368562E-01  0.96594963337E-01  0.51100000000E-03 0.  1.
</event>
<event>
 8    1  0.1112958E+005  0.1043930E+01  0.7957747E-01            NaN
         13   -1    0    0    0    0  0.00000000000E+00  0.00000000000E+00  0.74505805969E-08  0.10566000000E+00  0.10566000000E+00 0. -1.
     999900   -1    0    0    0    0 -0.00000000000E+00 -0.00000000000E+00 -0.74505805969E-08  0.93827000000E+00  0.93827000000E+00 0. -1.
     999902    2    1    2    0    0 -0.12002194829E-01  0.10225401426E-01  0.17589002943E-01  0.10203083036E+01  0.10200348278E+01 0.  0.
     999903    2    3    3    0    0  0.56430155639E-01  0.18698315413E-01  0.11665185684E+00  0.13206946982E+00  0.17340694569E-01 0.  0.
         14    1    1    2    0    0  0.12002194829E-01 -0.10225401426E-01 -0.17589002943E-01  0.23621696374E-01  0.00000000000E+00 0.  1.
     999901    1    3    3    0    0 -0.68432350468E-01 -0.84729139866E-02 -0.99062853900E-01  0.88823883381E+00  0.88000000000E+00 0.  1.
        -11    1    4    4    0    0  0.36462009192E-01  0.20314762660E-01  0.82912945982E-01  0.92827719075E-01  0.51100000000E-03 0.  1.
         11    1    4    4    0    0  0.19968146447E-01 -0.16164472471E-02  0.33738910862E-01  0.39241750743E-01  0.51100000000E-03 0. -1.
</event>
<event>
 8    1  0.1112958E+005  0.1043930E+01  0.7957747E-01            NaN
         13   -1    0    0    0    0  0.00000000000E+00  0.00000000000E+00  0.74505805969E-08  0.10566000000E+00  0.10566000000E+00 0.  1.
     999900   -1    0    0    0    0 -0.00000000000E+00 -0.00000000000E+00 -0.74505805969E-08  0.93827000000E+00  0.93827000000E+00 0. -1.
     999902    2    1    2    0    0 -0.90734753695E-03  0.24784537758E-01 -0.19526344958E-01  0.10123645959E+01  0.10118723735E+01 0.  0.
     999903    2    3    3    0    0 -0.79772569972E-01 -0.80445348483E-02 -0.94099484562E-01  0.12508863852E+00  0.19080802670E-01 0.  0.
         14    1    1    2    0    0  0.90734753695E-03 -0.24784537758E-01  0.19526344958E-01  0.31565404145E-01  0.00000000000E+00 0. -1.
     999901    1    3    3    0    0  0.78865222435E-01  0.32829072606E-01  0.74573139605E-01  0.88727595734E+00  0.88000000000E+00 0.  1.
        -11    1    4    4    0    0 -0.46212458556E-01  0.19111872658E-02 -0.63703741872E-01  0.78725293343E-01  0.51100000000E-03 0.  1.
         11    1    4    4    0    0 -0.33560111416E-01 -0.99557221141E-02 -0.30395742691E-01  0.46363345175E-01  0.51100000000E-03 0. -1.
</event>
<event>
 8    1  0.1112958E+005  0.1043930E+01  0.7957747E-01            NaN
         13   -1    0    0    0    0  0.00000000000E+00  0.00000000000E+00  0.74505805969E-08  0.10566000000E+00  0.10566000000E+00 0.  1.
     999900   -1    0    0    0    0 -0.00000000000E+00 -0.00000000000E+00 -0.74505805969E-08  0.93827000000E+00  0.93827000000E+00 0. -1.
     999902    2    1    2    0    0  0.20352539655E-01 -0.13578521492E-01  0.14444033132E-01  0.10155181678E+01  0.10151206416E+01 0.  0.
     999903    2    3    3    0    0  0.49677216268E-01 -0.49369601525E-01  0.10696577417E+00  0.12945879583E+00  0.20315501549E-01 0.  0.
         14    1    1    2    0    0 -0.20352539655E-01  0.13578521492E-01 -0.14444033132E-01  0.28411832208E-01  0.00000000000E+00 0.  1.
     999901    1    3    3    0    0 -0.29324676613E-01  0.35791080033E-01 -0.92521741042E-01  0.88605937196E+00  0.88000000000E+00 0. -1.
        -11    1    4    4    0    0  0.39694528642E-01 -0.31774655277E-01  0.88480626033E-01  0.10205080414E+00  0.51100000000E-03 0.  1.
         11    1    4    4    0    0  0.99826876252E-02 -0.17594946248E-01  0.18485148141E-01  0.27407991691E-01  0.51100000000E-03 0. -1.
</event>
<event>
 8    1  0.1112958E+005  0.1043930E+01  0.7957747E-01            NaN
         13   -1    0    0    0    0  0.00000000000E+00  0.00000000000E+00  0.74505805969E-08  0.10566000000E+00  0.10566000000E+00 0. -1.
     999900   -1    0    0    0    0 -0.00000000000E+00 -0.00000000000E+00 -0.74505805969E-08  0.93827000000E+00  0.93827000000E+00 0.  1.
     999902    2    1    2    0    0 -0.12511575656E-01 -0.72406584369E-03 -0.32160280514E-01  0.10094140987E+01  0.10088238079E+01 0.  0.
     999903    2    3    3    0    0 -0.29586408895E-01 -0.37207128106E-01  0.10585773891E+00  0.11774625843E+00  0.19964831962E-01 0.  0.
         14    1    1    2    0    0  0.12511575656E-01  0.72406584369E-03  0.32160280514E-01  0.34515901256E-01  0.00000000000E+00 0. -1.
     999901    1    3    3    0    0  0.17074833239E-01  0.36483062262E-01 -0.13801801942E+00  0.89166784031E+00  0.88000000000E+00 0.  1.
        -11    1    4    4    0    0 -0.23940976444E-01 -0.14939794897E-01  0.51400105842E-01  0.58639575597E-01  0.51100000000E-03 0. -1.
         11    1    4    4    0    0 -0.56454324510E-02 -0.22267333208E-01  0.54457633064E-01  0.59106682835E-01  0.51100000000E-03 0.  1.
</event>
<event>
 8    1  0.1112958E+005  0.1043930E+01  0.7957747E-01            NaN
         13   -1    0    0    0    0  0.00000000000E+00  0.00000000000E+00  0.74505805969E-08  0.10566000000E+00  0.10566000000E+00 0.  1.
     999900   -1    0    0    0    0 -0.00000000000E+00 -0.00000000000E+00 -0.74505805969E-08  0.93827000000E+00  0.93827000000E+00 0.  1.
     999902    2    1    2    0    0  0.18145254043E-01 -0.16267632687E-01 -0.37360679688E-03  0.10195573576E+01  0.10192660004E+01 0.  0.
     999903    2    3    3    0    0  0.72206083248E-01  0.55545918781E-01 -0.90979373953E-01  0.13035031504E+00  0.20368863351E-01 0.  0.
         14    1    1    2    0    0 -0.18145254043E-01  0.16267632687E-01  0.37360679688E-03  0.24372642441E-01  0.00000000000E+00 0. -1.
     999901    1    3    3    0    0 -0.54060829205E-01 -0.71813551467E-01  0.90605767156E-01  0.88920704252E+00  0.88000000000E+00 0. -1.
        -11    1    4    4    0    0  0.60089390092E-01  0.36053588897E-01 -0.63763721867E-01  0.94745287066E-01  0.51100000000E-03 0. -1.
         11    1    4    4    0    0  0.12116693156E-01  0.19492329884E-01 -0.27215652087E-01  0.35605027971E-01  0.51100000000E-03 0.  1.
</event>
<event>
 8    1  0.1112958E+005  0.1043930E+01  0.7957747E-01            NaN
         13   -1    0    0    0    0  0.00000000000E+00  0.00000000000E+00  0.74505805969E-08  0.10566000000E+00  0.10566000000E+00 0.  1.
     999900   -1    0    0    0    0 -0.00000000000E+00 -0.00000000000E+00 -0.74505805969E-08  0.93827000000E+00  0.93827000000E+00 0. -1.
     999902    2    1    2    0    0 -0.22387304064E-01  0.69052337846E-02 -0.37064710103E-03  0.10204990159E+01  0.10202299890E+01 0.  0.
     999903    2    3    3    0    0 -0.12169886789E+00  0.51911815037E-01 -0.33872839431E-02  0.13376485102E+00  0.19393573405E-01 0.  0.
         14    1    1    2    0    0  0.22387304064E-01 -0.69052337846E-02  0.37064710103E-03  0.23430984106E-01  0.00000000000E+00 0.  1.
     999901    1    3    3    0    0  0.99311563822E-01 -0.45006581253E-01  0.30166368420E-02  0.88673416488E+00  0.88000000000E+00 0.  1.
        -11    1    4    4    0    0 -0.69019909751E-01  0.21202704309E-01 -0.78097856488E-02  0.72626141884E-01  0.51100000000E-03 0. -1.
         11    1    4    4    0    0 -0.52678958136E-01  0.30709110729E-01  0.44225017057E-02  0.61138709132E-01  0.51100000000E-03 0.  1.
</event>
<event>
 7    1  0.1112958E+005  0.1043930E+01  0.7957747E-01            NaN
         13   -1    0    0    0    0  0.00000000000E+00  0.00000000000E+00  0.74505805969E-08  0.10566000000E+00  0.10566000000E+00 0.  1.
     999900   -1    0    0    0    0 -0.00000000000E+00 -0.00000000000E+00 -0.74505805969E-08  0.93827000000E+00  0.93827000000E+00 0. -1.
     999902    2    1    2    0    0 -0.24770652898E-02  0.25726717566E-01  0.61621435583E-02  0.10173598690E+01  0.10170128471E+01 0.  0.
         14    1    1    2    0    0  0.24770652898E-02 -0.25726717566E-01 -0.61621435583E-02  0.26570131019E-01  0.00000000000E+00 0. -1.
     999901    1    3    3    0    0 -0.19462866311E-01  0.84212909494E-01  0.11594553192E+00  0.89180378092E+00  0.88000000000E+00 0.  1.
        -11    1    3    3    0    0  0.26968249947E-02 -0.99264201051E-02 -0.19212666449E-01  0.21798953054E-01  0.51100000000E-03 0. -1.
         11    1    3    3    0    0  0.14288976026E-01 -0.48559771824E-01 -0.90570721916E-01  0.10375713501E+00  0.51100000000E-03 0.  1.
</event>
<event>
 8    1  0.1112958E+005  0.1043930E+01  0.7957747E-01            NaN
         13   -1    0    0    0    0  0.00000000000E+00  0.00000000000E+00  0.74505805969E-08  0.10566000000E+00  0.10566000000E+00 0. -1.
     999900   -1    0    0    0    0 -0.00000000000E+00 -0.00000000000E+00 -0.74505805969E-08  0.93827000000E+00  0.93827000000E+00 0.  1.
     999902    2    1    2    0    0 -0.12615022450E-01 -0.17662060464E-01 -0.11381730572E-01  0.10194222265E+01  0.10191275901E+01 0.  0.
     999903    2    3    3    0    0  0.10890547982E+00 -0.45673671948E-01 -0.49369154244E-01  0.12981842300E+00  0.21656909176E-01 0.  0.
         14    1    1    2    0    0  0.12615022450E-01  0.17662060464E-01  0.11381730572E-01  0.24507773502E-01  0.00000000000E+00 0. -1.
     999901    1    3    3    0    0 -0.12152050227E+00  0.28011611485E-01  0.37987423672E-01  0.88960380350E+00  0.88000000000E+00 0. -1.
        -11    1    4    4    0    0  0.51499624571E-01 -0.24321204363E-01 -0.35183202736E-01  0.66946629403E-01  0.51100000000E-03 0. -1.
         11    1    4    4    0    0  0.57405855245E-01 -0.21352467585E-01 -0.14185951508E-01  0.62871793593E-01  0.51100000000E-03 0.  1.
</event>
<event>
 8    1  0.1112958E+005  0.1043930E+01  0.7957747E-01            NaN
         13   -1    0    0    0    0  0.00000000000E+00  0.00000000000E+00  0.74505805969E-08  0.10566000000E+00  0.10566000000E+00 0.  1.
     999900   -1    0    0    0    0 -0.00000000000E+00 -0.00000000000E+00 -0.74505805969E-08  0.93827000000E+00  0.93827000000E+00 0.  1.
     999902    2    1    2    0    0  0.81433786740E-02 -0.17929135355E-01  0.15190540966E-01  0.10190599167E+01  0.10187563952E+01 0.  0.
     999903    2    3    3    0    0  0.77251713427E-01 -0.28361109936E-01 -0.97477487634E-01  0.12912796830E+00  0.19999795464E-01 0.  0.
         14    1    1    2    0    0 -0.81433786740E-02  0.17929135355E-01 -0.15190540966E-01  0.24870083346E-01  0.00000000000E+00 0. -1.
     999901    1    3    3    0    0 -0.69108334753E-01  0.10431974581E-01  0.11266802860E+00  0.88993194835E+00  0.88000000000E+00 0. -1.
        -11    1    4    4    0    0  0.33310515310E-01 -0.21885463571E-01 -0.39792709663E-01  0.56323039773E-01  0.51100000000E-03 0.  1.
         11    1    4    4    0    0  0.43941198117E-01 -0.64756463644E-02 -0.57684777971E-01  0.72804928531E-01  0.51100000000E-03 0. -1.
</event>
<event>
 8    1  0.1112958E+005  0.1043930E+01  0.7957747E-01            NaN
         13   -1    0    0    0    0  0.00000000000E+00  0.00000000000E+00  0.74505805969E-08  0.10566000000E+00  0.10566000000E+00 0.  1.
     999900   -1    0    0    0    0 -0.00000000000E+00 -0.00000000000E+00 -0.74505805969E-08  0.93827000000E+00  0.93827000000E+00 0.  1.
     999902    2    1    2    0    0 -0.22542156206E-01 -0.38692370033E-02 -0.76260817152E-02  0.10198203147E+01  0.10195352850E+01 0.  0.
     999903    2    3    3    0    0 -0.99879381909E-02 -0.92171768278E-01 -0.90998937396E-01  0.13139137639E+00  0.19684852186E-01 0.  0.
         14    1    1    2    0    0  0.22542156206E-01  0.38692370033E-02  0.76260817152E-02  0.24109685268E-01  0.00000000000E+00 0.  1.
     999901    1    3    3    0    0 -0.12554218015E-01  0.88302531274E-01  0.83372855681E-01  0.88842893834E+00  0.88000000000E+00 0. -1.
        -11    1    4    4    0    0 -0.11218442664E-01 -0.23734551195E-01 -0.22988290338E-01  0.34898495525E-01  0.51100000000E-03 0. -1.
         11    1    4    4    0    0  0.12305044735E-02 -0.68437217083E-01 -0.68010647058E-01  0.96492880864E-01  0.51100000000E-03 0.  1.
</event>
<event>
 8    1  0.1112958E+005  0.1043930E+01  0.7957747E-01            NaN
         13   -1    0    0    0    0  0.00000000000E+00  0.00000000000E+00  0.74505805969E-08  0.10566000000E+00  0.10566000000E+00 0.  1.
     999900   -1    0    0    0    0 -0.00000000000E+00 -0.00000000000E+00 -0.74505805969E-08  0.93827000000E+00  0.93827000000E+00 0. -1.
     999902    2    1    2    0    0  0.31569104986E-02 -0.23904132781E-01  0.86937470644E-03  0.10198026408E+01  0.10195171881E+01 0.  0.
     999903    2    3    3    0    0 -0.78941581406E-01 -0.10383930593E+00 -0.11345551149E-01  0.13228982476E+00  0.18907709374E-01 0.  0.
         14    1    1    2    0    0 -0.31569104986E-02  0.23904132781E-01 -0.86937470644E-03  0.24127359166E-01  0.00000000000E+00 0.  1.
     999901    1    3    3    0    0  0.82098491905E-01  0.79935173148E-01  0.12214925855E-01  0.88751281607E+00  0.88000000000E+00 0.  1.
        -11    1    4    4    0    0 -0.50059713176E-01 -0.52747848150E-01 -0.11316146170E-01  0.73597735378E-01  0.51100000000E-03 0.  1.
         11    1    4    4    0    0 -0.28881868231E-01 -0.51091457779E-01 -0.29404978526E-04  0.58692089383E-01  0.51100000000E-03 0. -1.
</event>
<event>
 8    1  0.1112958E+005  0.1043930E+01  0.7957747E-01            NaN
         13   -1    0    0    0    0  0.00000000000E+00  0.00000000000E+00  0.74505805969E-08  0.10566000000E+00  0.10566000000E+00 0.  1.
     999900   -1    0    0    0    0 -0.00000000000E+00 -0.00000000000E+00 -0.74505805969E-08  0.93827000000E+00  0.93827000000E+00 0.  1.
     999902    2    1    2    0    0 -0.14826469626E-01  0.17727943949E-01  0.37173522473E-02  0.10205222469E+01  0.10202537594E+01 0.  0.
     999903    2    3    3    0    0  0.60701523827E-01 -0.11041644300E+00 -0.86794731846E-02  0.12795340193E+00  0.20500583699E-01 0.  0.
         14    1    1    2    0    0  0.14826469626E-01 -0.17727943949E-01 -0.37173522473E-02  0.23407753117E-01  0.00000000000E+00 0.  1.
     999901    1    3    3    0    0 -0.75527993453E-01  0.12814438694E+00  0.12396825432E-01  0.89256884495E+00  0.88000000000E+00 0. -1.
        -11    1    4    4    0    0  0.18953356570E-01 -0.55236875406E-01 -0.19663047171E-02  0.58433463059E-01  0.51100000000E-03 0. -1.
         11    1    4    4    0    0  0.41748167257E-01 -0.55179567589E-01 -0.67131684676E-02  0.69519938870E-01  0.51100000000E-03 0.  1.
</event>
<event>
 8    1  0.1112958E+005  0.1043930E+01  0.7957747E-01            NaN
         13   -1    0    0    0    0  0.00000000000E+00  0.00000000000E+00  0.74505805969E-08  0.10566000000E+00  0.10566000000E+00 0. -1.
     999900   -1    0    0    0    0 -0.00000000000E+00 -0.00000000000E+00 -0.74505805969E-08  0.93827000000E+00  0.93827000000E+00 0.  1.
     999902    2    1    2    0    0  0.18702659779E-01 -0.88820599357E-02 -0.10641091096E-01  0.10206509689E+01  0.10203854600E+01 0.  0.
     999903    2    3    3    0    0 -0.10708877120E+00  0.65149297044E-01  0.17070372151E-01  0.12819814034E+00  0.20758847734E-01 0.  0.
         14    1    1    2    0    0 -0.18702659779E-01  0.88820599357E-02  0.10641091096E-01  0.23279031148E-01  0.00000000000E+00 0. -1.
     999901    1    3    3    0    0  0.12579143098E+00 -0.74031356980E-01 -0.27711463247E-01  0.89245282851E+00  0.88000000000E+00 0. -1.
        -11    1    4    4    0    0 -0.48943876550E-01  0.28091193331E-01 -0.26017817784E-02  0.56494677483E-01  0.51100000000E-03 0.  1.
         11    1    4    4    0    0 -0.58144894648E-01  0.37058103713E-01  0.19672153930E-01  0.71703462857E-01  0.51100000000E-03 0. -1.
</event>
<event>
 8    1  0.1112958E+005  0.1043930E+01  0.7957747E-01            NaN
         13   -1    0    0    0    0  0.00000000000E+00  0.00000000000E+00  0.74505805969E-08  0.10566000000E+00  0.10566000000E+00 0.  1.
     999900   -1    0    0    0    0 -0.00000000000E+00 -0.00000000000E+00 -0.74505805969E-08  0.93827000000E+00  0.93827000000E+00 0.  1.
     999902    2    1    2    0    0  0.12610021072E-01  0.17725863424E-01  0.13862219931E-01  0.10181350391E+01  0.10178082225E+01 0.  0.
     999903    2    3    3    0    0  0.65122882810E-01  0.11228854117E+00 -0.25594651196E-02  0.13136033695E+00  0.19982014869E-01 0.  0.
         14    1    1    2    0    0 -0.12610021072E-01 -0.17725863424E-01 -0.13862219931E-01  0.25794960883E-01  0.00000000000E+00 0. -1.
     999901    1    3    3    0    0 -0.52512861738E-01 -0.94562677742E-01  0.16421685051E-01  0.88677470217E+00  0.88000000000E+00 0.  1.
        -11    1    4    4    0    0  0.52635958793E-01  0.72351909756E-01 -0.81914463745E-03  0.89477791224E-01  0.51100000000E-03 0. -1.
         11    1    4    4    0    0  0.12486924018E-01  0.39936631410E-01 -0.17403204822E-02  0.41882545723E-01  0.51100000000E-03 0.  1.
</event>
<event>
 8    1  0.1112958E+005  0.1043930E+01  0.7957747E-01            NaN
         13   -1    0    0    0    0  0.00000000000E+00  0.00000000000E+00  0.74505805969E-08  0.10566000000E+00  0.10566000000E+00 0.  1.
     999900   -1    0    0    0    0 -0.00000000000E+00 -0.00000000000E+00 -0.74505805969E-08  0.93827000000E+00  0.93827000000E+00 0.  1.
     999902    2    1    2    0    0  0.14398645403E-01 -0.16794782030E-01 -0.10369857281E-01  0.10194980612E+01  0.10192052674E+01 0.  0.
     999903    2    3    3    0    0 -0.51405508276E-01  0.10562580445E+00  0.43641814834E-01  0.12695436628E+00  0.20333869980E-01 0.  0.
         14    1    1    2    0    0 -0.14398645403E-01  0.16794782030E-01  0.10369857281E-01  0.24431938787E-01  0.00000000000E+00 0.  1.
     999901    1    3    3    0    0  0.65804153678E-01 -0.12242058648E+00 -0.54011672115E-01  0.89254369493E+00  0.88000000000E+00 0.  1.
        -11    1    4    4    0    0 -0.64006121978E-02  0.33419209016E-01  0.10114332662E-01  0.35501721282E-01  0.51100000000E-03 0. -1.
         11    1    4    4    0    0 -0.45004896078E-01  0.72206595439E-01  0.33527482172E-01  0.91452645000E-01  0.51100000000E-03 0.  1.
</event>
<event>
 8    1  0.1112958E+005  0.1043930E+01  0.7957747E-01            NaN
         13   -1    0    0    0    0  0.00000000000E+00  0.00000000000E+00  0.74505805969E-08  0.10566000000E+00  0.10566000000E+00 0.  1.
     999900   -1    0    0    0    0 -0.00000000000E+00 -0.00000000000E+00 -0.74505805969E-08  0.93827000000E+00  0.93827000000E+00 0. -1.
     999902    2    1    2    0    0 -0.18895468486E-02 -0.98235679323E-02 -0.20680085312E-01  0.10209574337E+01  0.10206989481E+01 0.  0.
     999903    2    3    3    0    0 -0.48248378117E-01  0.11820452196E+00  0.15092048482E-01  0.12976723032E+00  0.17650754515E-01 0.  0.
         14    1    1    2    0    0  0.18895468486E-02  0.98235679323E-02  0.20680085312E-01  0.22972566307E-01  0.00000000000E+00 0.  1.
     999901    1    3    3    0    0  0.46358831269E-01 -0.12802808989E+00 -0.35772133794E-01  0.89119020338E+00  0.88000000000E+00 0. -1.
        -11    1    4    4    0    0 -0.28582398515E-01  0.66275126578E-01 -0.16796993902E-03  0.72177802978E-01  0.51100000000E-03 0.  1.
         11    1    4    4    0    0 -0.19665979602E-01  0.51929395378E-01  0.15260018421E-01  0.57589427339E-01  0.51100000000E-03 0. -1.
</event>
<event>
 8    1  0.1112958E+005  0.1043930E+01  0.7957747E-01            NaN
         13   -1    0    0    0    0  0.00000000000E+00  0.00000000000E+00  0.74505805969E-08  0.10566000000E+00  0.10566000000E+00 0.  1.
     999900   -1    0    0    0    0 -0.00000000000E+00 -0.00000000000E+00 -0.74505805969E-08  0.93827000000E+00  0.93827000000E+00 0.  1.
     999902    2    1    2    0    0 -0.29560796397E-02 -0.14303507896E-01 -0.18857114609E-01  0.10200779662E+01  0.10197990673E+01 0.  0.
     999903    2    3    3    0    0  0.90747580382E-01 -0.44256550888E-01 -0.83136113769E-01  0.13226641502E+00  0.19723729028E-01 0.  0.
         14    1    1    2    0    0  0.29560796397E-02  0.14303507896E-01  0.18857114609E-01  0.23852033799E-01  0.00000000000E+00 0.  1.
     999901    1    3    3    0    0 -0.93703660022E-01  0.29953042992E-01  0.64278999160E-01  0.88781155119E+00  0.88000000000E+00 0.  1.
        -11    1    4    4    0    0  0.31687129999E-01 -0.22196561362E-01 -0.41346137071E-01  0.56626192840E-01  0.51100000000E-03 0. -1.
         11    1    4    4    0    0  0.59060450383E-01 -0.22059989526E-01 -0.41789976698E-01  0.75640222176E-01  0.51100000000E-03 0.  1.
</event>
<event>
 8    1  0.1112958E+005  0.1043930E+01  0.7957747E-01            NaN
         13   -1    0    0    0    0  0.00000000000E+00  0.00000000000E+00  0.74505805969E-08  0.10566000000E+00  0.10566000000E+00 0. -1.
     999900   -1    0    0    0    0 -0.00000000000E+00 -0.00000000000E+00 -0.74505805969E-08  0.93827000000E+00  0.93827000000E+00 0.  1.
     999902    2    1    2    0    0 -0.11810698363E-01  0.30354427384E-02  0.19069964517E-01  0.10212944073E+01  0.10210435331E+01 0.  0.
     999903    2    3    3    0    0 -0.87732810886E-01 -0.92726851741E-01 -0.25954817364E-01  0.13170921457E+00  0.19451208654E-01 0.  0.
         14    1    1    2    0    0  0.11810698363E-01 -0.30354427384E-02 -0.19069964517E-01  0.22635592661E-01  0.00000000000E+00 0.  1.
     999901    1    3    3    0    0  0.75922112523E-01  0.95762294479E-01  0.45024781880E-01  0.88958519277E+00  0.88000000000E+00 0.  1.
        -11    1    4    4    0    0 -0.61230541351E-01 -0.59858012814E-01 -0.86141547336E-02  0.86061755007E-01  0.51100000000E-03 0.  1.
         11    1    4    4    0    0 -0.26502269535E-01 -0.32868838927E-01 -0.17340662630E-01  0.45647459561E-01  0.51100000000E-03 0. -1.
</event>
<event>
 8    1  0.1112958E+005  0.1043930E+01  0.7957747E-01            NaN
         13   -1    0    0    0    0  0.00000000000E+00  0.00000000000E+00  0.74505805969E-08  0.10566000000E+00  0.10566000000E+00 0.  1.
     999900   -1    0    0    0    0 -0.00000000000E+00 -0.00000000000E+00 -0.74505805969E-08  0.93827000000E+00  0.93827000000E+00 0. -1.
     999902    2    1    2    0    0 -0.56195677669E-02  0.42281228550E-02  0.22959923842E-01  0.10199171978E+01  0.10196344815E+01 0.  0.
     999903    2    3    3    0    0 -0.16439919656E-01 -0.87029905844E-01 -0.90174989379E-01  0.12792806315E+00  0.19737911798E-01 0.  0.
         14    1    1    2    0    0  0.56195677669E-02 -0.42281228550E-02 -0.22959923842E-01  0.24012802160E-01  0.00000000000E+00 0. -1.
     999901    1    3    3    0    0  0.10820351889E-01  0.91258028698E-01  0.11313491322E+00  0.89198913469E+00  0.88000000000E+00 0.  1.
        -11    1    4    4    0    0 -0.72918006408E-02 -0.40533312847E-01 -0.55931381016E-01  0.69460062700E-01  0.51100000000E-03 0. -1.
         11    1    4    4    0    0 -0.91481190151E-02 -0.46496592997E-01 -0.34243608364E-01  0.58468000450E-01  0.51100000000E-03 0.  1.
</event>
<event>
 8    1  0.1112958E+005  0.1043930E+01  0.7957747E-01            NaN
         13   -1    0    0    0    0  0.00000000000E+00  0.00000000000E+00  0.74505805969E-08  0.10566000000E+00  0.10566000000E+00 0. -1.
     999900   -1    0    0    0    0 -0.00000000000E+00 -0.00000000000E+00 -0.74505805969E-08  0.93827000000E+00  0.93827000000E+00 0.  1.
     999902    2    1    2    0    0  0.18605480750E-01 -0.11729184045E-01  0.52831143156E-02  0.10213103411E+01  0.10210598238E+01 0.  0.
     999903    2    3    3    0    0  0.85301563008E-01 -0.22416763355E-01 -0.97251118090E-01  0.13278579976E+00  0.19885188359E-01 0.  0.
         14    1    1    2    0    0 -0.18605480750E-01  0.11729184045E-01 -0.52831143156E-02  0.22619658909E-01  0.00000000000E+00 0.  1.
     999901    1    3    3    0    0 -0.66696082258E-01  0.10687579311E-01  0.10253423241E+00  0.88852454134E+00  0.88000000000E+00 0. -1.
        -11    1    4    4    0    0  0.56104730808E-01 -0.16029390731E-01 -0.77283071764E-01  0.96838094201E-01  0.51100000000E-03 0. -1.
         11    1    4    4    0    0  0.29196832200E-01 -0.63873726247E-02 -0.19968046326E-01  0.35947705555E-01  0.51100000000E-03 0.  1.
</event>
<event>
 8    1  0.1112958E+005  0.1043930E+01  0.7957747E-01            NaN
         13   -1    0    0    0    0  0.00000000000E+00  0.00000000000E+00  0.74505805969E-08  0.10566000000E+00  0.10566000000E+00 0. -1.
     999900   -1    0    0    0    0 -0.00000000000E+00 -0.00000000000E+00 -0.74505805969E-08  0.93827000000E+00  0.93827000000E+00 0. -1.
     999902    2    1    2    0    0 -0.34457880188E-02  0.22961532251E-01  0.28049026018E-02  0.10205425483E+01  0.10202745317E+01 0.  0.
     999903    2    3    3    0    0 -0.11682005654E+00 -0.53179389957E-01  0.83319023767E-02  0.12999119519E+00  0.18796731228E-01 0.  0.
         14    1    1    2    0    0  0.34457880188E-02 -0.22961532251E-01 -0.28049026018E-02  0.23387451700E-01  0.00000000000E+00 0. -1.
     999901    1    3    3    0    0  0.11337426852E+00  0.76140922209E-01 -0.55269997748E-02  0.89055135311E+00  0.88000000000E+00 0. -1.
        -11    1    4    4    0    0 -0.59081969121E-01 -0.16877704330E-01  0.61199019852E-02  0.61751520629E-01  0.51100000000E-03 0.  1.
         11    1    4    4    0    0 -0.57738087415E-01 -0.36301685627E-01  0.22120003915E-02  0.68239674563E-01  0.51100000000E-03 0. -1.
</event>
<event>
 8    1  0.1112958E+005  0.1043930E+01  0.7957747E-01            NaN
         13   -1    0    0    0    0  0.00000000000E+00  0.00000000000E+00  0.74505805969E-08  0.10566000000E+00  0.10566000000E+00 0. -1.
     999900   -1    0    0    0    0 -0.00000000000E+00 -0.00000000000E+00 -0.74505805969E-08  0.93827000000E+00  0.93827000000E+00 0. -1.
     999902    2    1    2    0    0 -0.18836184236E-01  0.12361463064E-01  0.68892726205E-02  0.10203700831E+01  0.10200980526E+01 0.  0.
     999903    2    3    3    0    0  0.58729941088E-02  0.11222858835E+00 -0.65280781241E-01  0.13144235666E+00  0.19640891626E-01 0.  0.
         14    1    1    2    0    0  0.18836184236E-01 -0.12361463064E-01 -0.68892726205E-02  0.23559916869E-01  0.00000000000E+00 0.  1.
     999901    1    3    3    0    0 -0.24709178345E-01 -0.99867125283E-01  0.72170053861E-01  0.88892772647E+00  0.88000000000E+00 0.  1.
        -11    1    4    4    0    0  0.46040895266E-02  0.79394549794E-01 -0.56088514410E-01  0.97318419361E-01  0.51100000000E-03 0.  1.
         11    1    4    4    0    0  0.12689045823E-02  0.32834038553E-01 -0.91922668313E-02  0.34123937303E-01  0.51100000000E-03 0. -1.
</event>
<event>
 8    1  0.1112958E+005  0.1043930E+01  0.7957747E-01            NaN
         13   -1    0    0    0    0  0.00000000000E+00  0.00000000000E+00  0.74505805969E-08  0.10566000000E+00  0.10566000000E+00 0.  1.
     999900   -1    0    0    0    0 -0.00000000000E+00 -0.00000000000E+00 -0.74505805969E-08  0.93827000000E+00  0.93827000000E+00 0.  1.
     999902    2    1    2    0    0  0.10283687373E-01 -0.79805155555E-02 -0.19783739477E-01  0.10202479561E+01  0.10199730647E+01 0.  0.
     999903    2    3    3    0    0  0.74408392267E-01 -0.94620338772E-01  0.49255689161E-01  0.13098709482E+00  0.15552451405E-01 0.  0.
         14    1    1    2    0    0 -0.10283687373E-01  0.79805155555E-02  0.19783739477E-01  0.23682043877E-01  0.00000000000E+00 0.  1.
     999901    1    3    3    0    0 -0.64124704894E-01  0.86639823216E-01 -0.69039428637E-01  0.88926086131E+00  0.88000000000E+00 0.  1.
        -11    1    4    4    0    0  0.37228481255E-01 -0.59505651289E-01  0.30075121321E-01  0.76365282657E-01  0.51100000000E-03 0.  1.
         11    1    4    4    0    0  0.37179911012E-01 -0.35114687483E-01  0.19180567840E-01  0.54621812159E-01  0.51100000000E-03 0. -1.
</event>
<event>
 8    1  0.1112958E+005  0.1043930E+01  0.7957747E-01            NaN
         13   -1    0    0    0    0  0.00000000000E+00  0.00000000000E+00  0.74505805969E-08  0.10566000000E+00  0.10566000000E+00 0. -1.
     999900   -1    0    0    0    0 -0.00000000000E+00 -0.00000000000E+00 -0.74505805969E-08  0.93827000000E+00  0.93827000000E+00 0.  1.
     999902    2    1    2    0    0  0.72027569275E-02  0.19565339066E-01  0.11907382189E-01  0.10199202530E+01  0.10196376094E+01 0.  0.
     999903    2    3    3    0    0  0.43693831700E-01  0.44723972882E-01  0.11539696172E+00  0.13274797635E+00  0.19904315405E-01 0.  0.
         14    1    1    2    0    0 -0.72027569275E-02 -0.19565339066E-01 -0.11907382189E-01  0.24009746994E-01  0.00000000000E+00 0. -1.
     999901    1    3    3    0    0 -0.36491074772E-01 -0.25158633816E-01 -0.10348957953E+00  0.88717227666E+00  0.88000000000E+00 0.  1.
        -11    1    4    4    0    0  0.14719309374E-01  0.24927574580E-01  0.38066622777E-01  0.47826466873E-01  0.51100000000E-03 0.  1.
         11    1    4    4    0    0  0.28974522325E-01  0.19796398302E-01  0.77330338945E-01  0.84921509478E-01  0.51100000000E-03 0. -1.
</event>
<event>
 8    1  0.1112958E+005  0.1043930E+01  0.7957747E-01            NaN
         13   -1    0    0    0    0  0.00000000000E+00  0.00000000000E+00  0.74505805969E-08  0.10566000000E+00  0.10566000000E+00 0.  1.
     999900   -1    0    0    0    0 -0.00000000000E+00 -0.00000000000E+00 -0.74505805969E-08  0.93827000000E+00  0.93827000000E+00 0.  1.
     999902    2    1    2    0    0  0.22032652903E-02 -0.14917752295E-01  0.18541088165E-01  0.10200309276E+01  0.10197509145E+01 0.  0.
     999903    2    3    3    0    0  0.96167083765E-01  0.60273956294E-01 -0.57503645603E-01  0.12859063584E+00  0.18650055280E-01 0.  0.
         14    1    1    2    0    0 -0.22032652903E-02  0.14917752295E-01 -0.18541088165E-01  0.23899072405E-01  0.00000000000E+00 0. -1.
     999901    1    3    3    0    0 -0.93963818475E-01 -0.75191708589E-01  0.76044733768E-01  0.89144029175E+00  0.88000000000E+00 0.  1.
        -11    1    4    4    0    0  0.77043531063E-01  0.39117234385E-01 -0.41051892819E-01  0.95662859719E-01  0.51100000000E-03 0. -1.
         11    1    4    4    0    0  0.19123552702E-01  0.21156721909E-01 -0.16451752783E-01  0.32927776124E-01  0.51100000000E-03 0.  1.
</event>
<event>
 8    1  0.1112958E+005  0.1043930E+01  0.7957747E-01            NaN
         13   -1    0    0    0    0  0.00000000000E+00  0.00000000000E+00  0.74505805969E-08  0.10566000000E+00  0.10566000000E+00 0. -1.
     999900   -1    0    0    0    0 -0.00000000000E+00 -0.00000000000E+00 -0.74505805969E-08  0.93827000000E+00  0.93827000000E+00 0. -1.
     999902    2    1    2    0    0  0.12147338892E-01  0.14237739837E-01 -0.19863805253E-01  0.10166382093E+01  0.10162718174E+01 0.  0.
     999903    2    3    3    0    0 -0.36863792242E-01  0.11808638506E+00  0.26010225734E-01  0.12799257761E+00  0.20055786304E-01 0.  0.
         14    1    1    2    0    0 -0.12147338892E-01 -0.14237739837E-01  0.19863805253E-01  0.27291790651E-01  0.00000000000E+00 0. -1.
     999901    1    3    3    0    0  0.49011131134E-01 -0.10384864523E+00 -0.45874030987E-01  0.88864563174E+00  0.88000000000E+00 0.  1.
        -11    1    4    4    0    0  0.16323300911E-02  0.57300383333E-02 -0.13096051769E-02  0.61216033478E-02  0.51100000000E-03 0. -1.
         11    1    4    4    0    0 -0.38496122333E-01  0.11235634673E+00  0.27319830911E-01  0.12187097426E+00  0.51100000000E-03 0.  1.
</event>
<event>
 8    1  0.1112958E+005  0.1043930E+01  0.7957747E-01            NaN
         13   -1    0    0    0    0  0.00000000000E+00  0.00000000000E+00  0.74505805969E-08  0.10566000000E+00  0.10566000000E+00 0. -1.
     999900   -1    0    0    0    0 -0.00000000000E+00 -0.00000000000E+00 -0.74505805969E-08  0.93827000000E+00  0.93827000000E+00 0.  1.
     999902    2    1    2    0    0  0.15740210279E-01  0.15506080297E-01  0.91856645503E-02  0.10200015822E+01  0.10197208728E+01 0.  0.
     999903    2    3    3    0    0  0.12609789770E+00  0.32310719693E-01 -0.16155674980E-01  0.13258769985E+00  0.19334681396E-01 0.  0.
         14    1    1    2    0    0 -0.15740210279E-01 -0.15506080297E-01 -0.91856645503E-02  0.23928417813E-01  0.00000000000E+00 0.  1.
     999901    1    3    3    0    0 -0.11035768742E+00 -0.16804639395E-01  0.25341339530E-01  0.88741388234E+00  0.88000000000E+00 0. -1.
        -11    1    4    4    0    0  0.66426887751E-01  0.26169397698E-01 -0.50150420314E-02  0.71573602395E-01  0.51100000000E-03 0. -1.
         11    1    4    4    0    0  0.59671009952E-01  0.61413219945E-02 -0.11140632949E-01  0.61014097453E-01  0.51100000000E-03 0.  1.
</event>
<event>
 8    1  0.1112958E+005  0.1043930E+01  0.7957747E-01            NaN
         13   -1    0    0    0    0  0.00000000000E+00  0.00000000000E+00  0.74505805969E-08  0.10566000000E+00  0.10566000000E+00 0.  1.
     999900   -1    0    0    0    0 -0.00000000000E+00 -0.00000000000E+00 -0.74505805969E-08  0.93827000000E+00  0.93827000000E+00 0.  1.
     999902    2    1    2    0    0  0.19057691970E-01  0.52231080644E-02  0.12684443661E-01  0.10204486970E+01  0.10201784998E+01 0.  0.
     999903    2    3    3    0    0 -0.96885622207E-01 -0.52824956863E-01 -0.61750546493E-01  0.12783848097E+00  0.18768254225E-01 0.  0.
         14    1    1    2    0    0 -0.19057691970E-01 -0.52231080644E-02 -0.12684443661E-01  0.23481303032E-01  0.00000000000E+00 0. -1.
     999901    1    3    3    0    0  0.11594331418E+00  0.58048064928E-01  0.74434990155E-01  0.89261021600E+00  0.88000000000E+00 0. -1.
        -11    1    4    4    0    0 -0.70973767680E-01 -0.29939222975E-01 -0.38023850819E-01  0.85905221745E-01  0.51100000000E-03 0.  1.
         11    1    4    4    0    0 -0.25911854527E-01 -0.22885733889E-01 -0.23726695674E-01  0.41933259225E-01  0.51100000000E-03 0. -1.
</event>
<event>
 7    1  0.1112958E+005  0.1043930E+01  0.7957747E-01            NaN
         13   -1    0    0    0    0  0.00000000000E+00  0.00000000000E+00  0.74505805969E-08  0.10566000000E+00  0.10566000000E+00 0.  1.
     999900   -1    0    0    0    0 -0.00000000000E+00 -0.00000000000E+00 -0.74505805969E-08  0.93827000000E+00  0.93827000000E+00 0. -1.
     999903    2    1    2    0    0  0.10234943630E+00  0.46073880079E-01 -0.25379980402E-01  0.11690447916E+00  0.20598648186E-01 0.  0.
         14    1    1    2    0    0 -0.24117751060E-01 -0.41910990232E-02 -0.32480702294E-01  0.40672192573E-01  0.00000000000E+00 0. -1.
     999901    1    1    2    0    0 -0.78231685238E-01 -0.41882781056E-01  0.57860682695E-01  0.88635332826E+00  0.88000000000E+00 0.  1.
        -11    1    3    3    0    0  0.97683537316E-01  0.41204470323E-01 -0.19202398209E-01  0.10774448967E+00  0.51100000000E-03 0.  1.
         11    1    3    3    0    0  0.46658989809E-02  0.48694097556E-02 -0.61775821924E-02  0.91599894875E-02  0.51100000000E-03 0. -1.
</event>
<event>
 8    1  0.1112958E+005  0.1043930E+01  0.7957747E-01            NaN
         13   -1    0    0    0    0  0.00000000000E+00  0.00000000000E+00  0.74505805969E-08  0.10566000000E+00  0.10566000000E+00 0. -1.
     999900   -1    0    0    0    0 -0.00000000000E+00 -0.00000000000E+00 -0.74505805969E-08  0.93827000000E+00  0.93827000000E+00 0.  1.
     999902    2    1    2    0    0  0.82664712359E-02  0.21462332876E-01  0.27814747444E-02  0.10207631513E+01  0.10205002244E+01 0.  0.
     999903    2    3    3    0    0 -0.53033663208E-01  0.10224386449E+00 -0.62428637385E-01  0.13254261498E+00  0.20095590550E-01 0.  0.
         14    1    1    2    0    0 -0.82664712359E-02 -0.21462332876E-01 -0.27814747444E-02  0.23166848748E-01  0.00000000000E+00 0.  1.
     999901    1    3    3    0    0  0.61300134444E-01 -0.80781531619E-01  0.65210112129E-01  0.88822053627E+00  0.88000000000E+00 0. -1.
        -11    1    4    4    0    0 -0.82558623008E-02  0.89893385278E-02 -0.13174370954E-01  0.17966430935E-01  0.51100000000E-03 0.  1.
         11    1    4    4    0    0 -0.44777800907E-01  0.93254525967E-01 -0.49254266431E-01  0.11457618404E+00  0.51100000000E-03 0. -1.
</event>
<event>
 8    1  0.1112958E+005  0.1043930E+01  0.7957747E-01            NaN
         13   -1    0    0    0    0  0.00000000000E+00  0.00000000000E+00  0.74505805969E-08  0.10566000000E+00  0.10566000000E+00 0. -1.
     999900   -1    0    0    0    0 -0.00000000000E+00 -0.00000000000E+00 -0.74505805969E-08  0.93827000000E+00  0.93827000000E+00 0.  1.
     999902    2    1    2    0    0 -0.21439128057E-01  0.11227210139E-01 -0.22430802355E-02  0.10196253118E+01  0.10193355967E+01 0.  0.
     999903    2    3    3    0    0  0.88195874043E-01  0.86125338187E-01 -0.32130727077E-01  0.12916316511E+00  0.21322605880E-01 0.  0.
         14    1    1    2    0    0  0.21439128057E-01 -0.11227210139E-01  0.22430802355E-02  0.24304688195E-01  0.00000000000E+00 0. -1.
     999901    1    3    3    0    0 -0.10963500210E+00 -0.74898128048E-01  0.29887646841E-01  0.89046214670E+00  0.88000000000E+00 0. -1.
        -11    1    4    4    0    0  0.16835869101E-01  0.66976445503E-02 -0.21249985635E-02  0.18250525220E-01  0.51100000000E-03 0. -1.
         11    1    4    4    0    0  0.71360004943E-01  0.79427693637E-01 -0.30005728513E-01  0.11091263989E+00  0.51100000000E-03 0.  1.
</event>
<event>
 8    1  0.1112958E+005  0.1043930E+01  0.7957747E-01            NaN
         13   -1    0    0    0    0  0.00000000000E+00  0.00000000000E+00  0.74505805969E-08  0.10566000000E+00  0.10566000000E+00 0. -1.
     999900   -1    0    0    0    0 -0.00000000000E+00 -0.00000000000E+00 -0.74505805969E-08  0.93827000000E+00  0.93827000000E+00 0.  1.
     999902    2    1    2    0    0 -0.16417442402E-01 -0.23805328845E-02  0.12834590965E-01  0.10229555852E+01  0.10227405356E+01 0.  0.
     999903    2    3    3    0    0  0.12589233490E+00 -0.17569840845E-01  0.25657238050E-01  0.13130138759E+00  0.20595660342E-01 0.  0.
         14    1    1    2    0    0  0.16417442402E-01  0.23805328845E-02 -0.12834590965E-01  0.20974414821E-01  0.00000000000E+00 0.  1.
     999901    1    3    3    0    0 -0.14230977731E+00  0.15189307960E-01 -0.12822647085E-01  0.89165419759E+00  0.88000000000E+00 0. -1.
        -11    1    4    4    0    0  0.93602419782E-01 -0.17586912540E-01  0.26951182251E-01  0.98981512554E-01  0.51100000000E-03 0.  1.
         11    1    4    4    0    0  0.32289915121E-01  0.17071695156E-04 -0.12939442009E-02  0.32319875040E-01  0.51100000000E-03 0. -1.
</event>
<event>
 8    1  0.1112958E+005  0.1043930E+01  0.7957747E-01            NaN
         13   -1    0    0    0    0  0.00000000000E+00  0.00000000000E+00  0.74505805969E-08  0.10566000000E+00  0.10566000000E+00 0. -1.
     999900   -1    0    0    0    0 -0.00000000000E+00 -0.00000000000E+00 -0.74505805969E-08  0.93827000000E+00  0.93827000000E+00 0.  1.
     999902    2    1    2    0    0  0.24104846739E-02  0.18400481705E-01  0.15474214090E-01  0.10197672298E+01  0.10194809284E+01 0.  0.
     999903    2    3    3    0    0  0.20206696940E-01 -0.78144660310E-01  0.10027979249E+00  0.13025632161E+00  0.19894069463E-01 0.  0.
         14    1    1    2    0    0 -0.24104846739E-02 -0.18400481705E-01 -0.15474214090E-01  0.24162770227E-01  0.00000000000E+00 0.  1.
     999901    1    3    3    0    0 -0.17796212266E-01  0.96545142015E-01 -0.84805578404E-01  0.88951090817E+00  0.88000000000E+00 0.  1.
        -11    1    4    4    0    0 -0.26061281232E-02 -0.14377324714E-01  0.11550394045E-01  0.18632554664E-01  0.51100000000E-03 0. -1.
         11    1    4    4    0    0  0.22812825063E-01 -0.63767335596E-01  0.88729398449E-01  0.11162376694E+00  0.51100000000E-03 0.  1.
</event>
<event>
 8    1  0.1112958E+005  0.1043930E+01  0.7957747E-01            NaN
         13   -1    0    0    0    0  0.00000000000E+00  0.00000000000E+00  0.74505805969E-08  0.10566000000E+00  0.10566000000E+00 0.  1.
     999900   -1    0    0    0    0 -0.00000000000E+00 -0.00000000000E+00 -0.74505805969E-08  0.93827000000E+00  0.93827000000E+00 0.  1.
     999902    2    1    2    0    0  0.15949218720E-01  0.38683780013E-02  0.19424579423E-01  0.10185005641E+01  0.10181830596E+01 0.  0.
     999903    2    3    3    0    0  0.68337440697E-01  0.74403556056E-01  0.82405215092E-01  0.13188548546E+00  0.19931554018E-01 0.  0.
         14    1    1    2    0    0 -0.15949218720E-01 -0.38683780013E-02 -0.19424579423E-01  0.25429435933E-01  0.00000000000E+00 0. -1.
     999901    1    3    3    0    0 -0.52388221977E-01 -0.70535178055E-01 -0.62980635669E-01  0.88661507861E+00  0.88000000000E+00 0.  1.
        -11    1    4    4    0    0  0.23004234184E-01  0.38492132092E-01  0.31109279108E-01  0.54579184595E-01  0.51100000000E-03 0.  1.
         11    1    4    4    0    0  0.45333206513E-01  0.35911423964E-01  0.51295935984E-01  0.77306300864E-01  0.51100000000E-03 0. -1.
</event>
<event>
 8    1  0.1112958E+005  0.1043930E+01  0.7957747E-01            NaN
         13   -1    0    0    0    0  0.00000000000E+00  0.00000000000E+00  0.74505805969E-08  0.10566000000E+00  0.10566000000E+00 0. -1.
     999900   -1    0    0    0    0 -0.00000000000E+00 -0.00000000000E+00 -0.74505805969E-08  0.93827000000E+00  0.93827000000E+00 0.  1.
     999902    2    1    2    0    0  0.19143243415E-01 -0.64995837044E-02 -0.11397445067E-01  0.10207220248E+01  0.10204581529E+01 0.  0.
     999903    2    3    3    0    0 -0.30372178305E-01 -0.27498897876E-02 -0.12661793032E+00  0.13182293191E+00  0.20375327991E-01 0.  0.
         14    1    1    2    0    0 -0.19143243415E-01  0.64995837044E-02  0.11397445067E-01  0.23207975156E-01  0.00000000000E+00 0. -1.
     999901    1    3    3    0    0  0.49515421720E-01 -0.37496939168E-02  0.11522048525E+00  0.88889909293E+00  0.88000000000E+00 0. -1.
        -11    1    4    4    0    0 -0.27351446693E-01  0.40496817989E-02 -0.80785822771E-01  0.85388007593E-01  0.51100000000E-03 0. -1.
         11    1    4    4    0    0 -0.30207316123E-02 -0.67995715865E-02 -0.45832107549E-01  0.46434924320E-01  0.51100000000E-03 0.  1.
</event>
<event>
 8    1  0.1112958E+005  0.1043930E+01  0.7957747E-01            NaN
         13   -1    0    0    0    0  0.00000000000E+00  0.00000000000E+00  0.74505805969E-08  0.10566000000E+00  0.10566000000E+00 0. -1.
     999900   -1    0    0    0    0 -0.00000000000E+00 -0.00000000000E+00 -0.74505805969E-08  0.93827000000E+00  0.93827000000E+00 0. -1.
     999902    2    1    2    0    0  0.67292988938E-02 -0.17429193952E-01 -0.11153734029E-01  0.10221707250E+01  0.10219391004E+01 0.  0.
     999903    2    3    3    0    0  0.68468778885E-01 -0.98049043192E-01 -0.59706297670E-01  0.13500181498E+00  0.18948865763E-01 0.  0.
         14    1    1    2    0    0 -0.67292988938E-02  0.17429193952E-01  0.11153734029E-01  0.21759274993E-01  0.00000000000E+00 0.  1.
     999901    1    3    3    0    0 -0.61739479992E-01  0.80619849240E-01  0.48552563641E-01  0.88716891003E+00  0.88000000000E+00 0.  1.
        -11    1    4    4    0    0  0.91097761389E-02 -0.47756886814E-02 -0.74693571484E-02  0.12721935422E-01  0.51100000000E-03 0.  1.
         11    1    4    4    0    0  0.59359002746E-01 -0.93273354511E-01 -0.52236940522E-01  0.12227987956E+00  0.51100000000E-03 0. -1.
</event>
<event>
 8    1  0.1112958E+005  0.1043930E+01  0.7957747E-01            NaN
         13   -1    0    0    0    0  0.00000000000E+00  0.00000000000E+00  0.74505805969E-08  0.10566000000E+00  0.10566000000E+00 0.  1.
     999900   -1    0    0    0    0 -0.00000000000E+00 -0.00000000000E+00 -0.74505805969E-08  0.93827000000E+00  0.93827000000E+00 0.  1.
     999902    2    1    2    0    0 -0.10454823702E-01 -0.16596211845E-01  0.13783727592E-01  0.10199564994E+01  0.10196747187E+01 0.  0.
     999903    2    3    3    0    0  0.10761970734E+00  0.49192961549E-03  0.70284662292E-01  0.13011047051E+00  0.20163268070E-01 0.  0.
         14    1    1    2    0    0  0.10454823702E-01  0.16596211845E-01 -0.13783727592E-01  0.23973500633E-01  0.00000000000E+00 0. -1.
     999901    1    3    3    0    0 -0.11807453104E+00 -0.17088141461E-01 -0.56500934700E-01  0.88984602886E+00  0.88000000000E+00 0. -1.
        -11    1    4    4    0    0  0.76809646095E-01 -0.87528263078E-02  0.50566312004E-01  0.92377198119E-01  0.51100000000E-03 0. -1.
         11    1    4    4    0    0  0.30810061244E-01  0.92447559233E-02  0.19718350288E-01  0.37733272387E-01  0.51100000000E-03 0.  1.
</event>
<event>
 8    1  0.1112958E+005  0.1043930E+01  0.7957747E-01            NaN
         13   -1    0    0    0    0  0.00000000000E+00  0.00000000000E+00  0.74505805969E-08  0.10566000000E+00  0.10566000000E+00 0.  1.
     999900   -1    0    0    0    0 -0.00000000000E+00 -0.00000000000E+00 -0.74505805969E-08  0.93827000000E+00  0.93827000000E+00 0.  1.
     999902    2    1    2    0    0 -0.17704880345E-01 -0.18923305572E-01  0.91051088070E-02  0.10164626141E+01  0.10160914273E+01 0.  0.
     999903    2    3    3    0    0 -0.38062664488E-01  0.10104807573E-01 -0.11868337657E+00  0.12652611765E+00  0.19293548383E-01 0.  0.
         14    1    1    2    0    0  0.17704880345E-01  0.18923305572E-01 -0.91051088070E-02  0.27467385900E-01  0.00000000000E+00 0.  1.
     999901    1    3    3    0    0  0.20357784144E-01 -0.29028113144E-01  0.12778848537E+00  0.88993649645E+00  0.88000000000E+00 0. -1.
        -11    1    4    4    0    0 -0.25501168390E-01 -0.25649781472E-02 -0.61721966714E-01  0.66833756428E-01  0.51100000000E-03 0.  1.
         11    1    4    4    0    0 -0.12561496098E-01  0.12669785720E-01 -0.56961409852E-01  0.59692361218E-01  0.51100000000E-03 0. -1.
</event>
<event>
 8    1  0.1112958E+005  0.1043930E+01  0.7957747E-01            NaN
         13   -1    0    0    0    0  0.00000000000E+00  0.00000000000E+00  0.74505805969E-08  0.10566000000E+00  0.10566000000E+00 0. -1.
     999900   -1    0    0    0    0 -0.00000000000E+00 -0.00000000000E+00 -0.74505805969E-08  0.93827000000E+00  0.93827000000E+00 0. -1.
     999902    2    1    2    0    0 -0.21915324998E-01 -0.14159508675E-01 -0.31962763605E-02  0.10176433239E+01  0.10173037626E+01 0.  0.
     999903    2    3    3    0    0  0.44509236320E-01 -0.10227052059E+00  0.60582267396E-01  0.12846197269E+00  0.19797368641E-01 0.  0.
         14    1    1    2    0    0  0.21915324998E-01  0.14159508675E-01  0.31962763605E-02  0.26286676060E-01  0.00000000000E+00 0. -1.
     999901    1    3    3    0    0 -0.66424561319E-01  0.88111011914E-01 -0.63778543756E-01  0.88918135125E+00  0.88000000000E+00 0. -1.
        -11    1    4    4    0    0  0.43170506401E-01 -0.10160742418E+00  0.61752539961E-01  0.12649663467E+00  0.51100000000E-03 0.  1.
         11    1    4    4    0    0  0.13387299191E-02 -0.66309641448E-03 -0.11702725655E-02  0.19653380190E-02  0.51100000000E-03 0. -1.
</event>
<event>
 8    1  0.1112958E+005  0.1043930E+01  0.7957747E-01            NaN
         13   -1    0    0    0    0  0.00000000000E+00  0.00000000000E+00  0.74505805969E-08  0.10566000000E+00  0.10566000000E+00 0. -1.
     999900   -1    0    0    0    0 -0.00000000000E+00 -0.00000000000E+00 -0.74505805969E-08  0.93827000000E+00  0.93827000000E+00 0. -1.
     999902    2    1    2    0    0  0.22528687580E-02 -0.95056596355E-03 -0.22775203320E-01  0.10210239117E+01  0.10207669369E+01 0.  0.
     999903    2    3    3    0    0 -0.45075156031E-01  0.11998267518E+00 -0.22134196251E-01  0.13149302321E+00  0.19310113303E-01 0.  0.
         14    1    1    2    0    0 -0.22528687580E-02  0.95056596355E-03  0.22775203320E-01  0.22906088264E-01  0.00000000000E+00 0. -1.
     999901    1    3    3    0    0  0.47328024789E-01 -0.12093324114E+00 -0.64100706828E-03  0.88953088852E+00  0.88000000000E+00 0. -1.
        -11    1    4    4    0    0 -0.29465209884E-01  0.77888297003E-01 -0.49683453438E-02  0.83425002127E-01  0.51100000000E-03 0. -1.
         11    1    4    4    0    0 -0.15609946147E-01  0.42094378178E-01 -0.17165850907E-01  0.48068021088E-01  0.51100000000E-03 0.  1.
</event>
<event>
 8    1  0.1112958E+005  0.1043930E+01  0.7957747E-01            NaN
         13   -1    0    0    0    0  0.00000000000E+00  0.00000000000E+00  0.74505805969E-08  0.10566000000E+00  0.10566000000E+00 0. -1.
     999900   -1    0    0    0    0 -0.00000000000E+00 -0.00000000000E+00 -0.74505805969E-08  0.93827000000E+00  0.93827000000E+00 0.  1.
     999902    2    1    2    0    0  0.60291469590E-02 -0.22950181749E-01 -0.27813270504E-02  0.10200386368E+01  0.10197588064E+01 0.  0.
     999903    2    3    3    0    0 -0.12132797892E-01  0.16125921824E-01 -0.12708568127E+00  0.13025868053E+00  0.20231246348E-01 0.  0.
         14    1    1    2    0    0 -0.60291469590E-02  0.22950181749E-01  0.27813270504E-02  0.23891363199E-01  0.00000000000E+00 0.  1.
     999901    1    3    3    0    0  0.18161944851E-01 -0.39076103573E-01  0.12430435422E+00  0.88977995628E+00  0.88000000000E+00 0. -1.
        -11    1    4    4    0    0  0.88875129604E-03  0.14021322637E-01 -0.45833460056E-01  0.47941157152E-01  0.51100000000E-03 0.  1.
         11    1    4    4    0    0 -0.13021549188E-01  0.21045991869E-02 -0.81252221214E-01  0.82317523373E-01  0.51100000000E-03 0. -1.
</event>
<event>
 8    1  0.1112958E+005  0.1043930E+01  0.7957747E-01            NaN
         13   -1    0    0    0    0  0.00000000000E+00  0.00000000000E+00  0.74505805969E-08  0.10566000000E+00  0.10566000000E+00 0. -1.
     999900   -1    0    0    0    0 -0.00000000000E+00 -0.00000000000E+00 -0.74505805969E-08  0.93827000000E+00  0.93827000000E+00 0. -1.
     999902    2    1    2    0    0  0.73493446042E-02  0.92171040291E-02  0.20993497063E-01  0.10198531482E+01  0.10195689036E+01 0.  0.
     999903    2    3    3    0    0 -0.77600105663E-01  0.10310936518E+00  0.72284263957E-02  0.13068407376E+00  0.19306977983E-01 0.  0.
         14    1    1    2    0    0 -0.73493446042E-02 -0.92171040291E-02 -0.20993497063E-01  0.24076851782E-01  0.00000000000E+00 0.  1.
     999901    1    3    3    0    0  0.84949450268E-01 -0.93892261153E-01  0.13765070667E-01  0.88916907446E+00  0.88000000000E+00 0.  1.
        -11    1    4    4    0    0 -0.27929047687E-01  0.43498225823E-01 -0.57404398890E-02  0.52012893840E-01  0.51100000000E-03 0.  1.
         11    1    4    4    0    0 -0.49671057976E-01  0.59611139359E-01  0.12968866285E-01  0.78671179919E-01  0.51100000000E-03 0. -1.
</event>
<event>
 8    1  0.1112958E+005  0.1043930E+01  0.7957747E-01            NaN
         13   -1    0    0    0    0  0.00000000000E+00  0.00000000000E+00  0.74505805969E-08  0.10566000000E+00  0.10566000000E+00 0.  1.
     999900   -1    0    0    0    0 -0.00000000000E+00 -0.00000000000E+00 -0.74505805969E-08  0.93827000000E+00  0.93827000000E+00 0.  1.
     999902    2    1    2    0    0 -0.50952663955E-02 -0.73499526875E-02  0.22165233475E-01  0.10200285122E+01  0.10197484418E+01 0.  0.
     999903    2    3    3    0    0 -0.52710966782E-01  0.11407393442E+00  0.28000488165E-01  0.13039652903E+00  0.20686200973E-01 0.  0.
         14    1    1    2    0    0  0.50952663955E-02  0.73499526875E-02 -0.22165233475E-01  0.23901487802E-01  0.00000000000E+00 0.  1.
     999901    1    3    3    0    0  0.47615700387E-01 -0.12142388711E+00 -0.58352546902E-02  0.88963198317E+00  0.88000000000E+00 0. -1.
        -11    1    4    4    0    0 -0.26042610728E-01  0.34278400631E-01  0.63300971596E-02  0.43515026995E-01  0.51100000000E-03 0. -1.
         11    1    4    4    0    0 -0.26668356054E-01  0.79795533792E-01  0.21670391006E-01  0.86881502031E-01  0.51100000000E-03 0.  1.
</event>
<event>
 8    1  0.1112958E+005  0.1043930E+01  0.7957747E-01            NaN
         13   -1    0    0    0    0  0.00000000000E+00  0.00000000000E+00  0.74505805969E-08  0.10566000000E+00  0.10566000000E+00 0. -1.
     999900   -1    0    0    0    0 -0.00000000000E+00 -0.00000000000E+00 -0.74505805969E-08  0.93827000000E+00  0.93827000000E+00 0.  1.
     999902    2    1    2    0    0 -0.21410012120E-01  0.56984671330E-02 -0.98033734457E-02  0.10197025924E+01  0.10194147388E+01 0.  0.
     999903    2    3    3    0    0  0.77850872213E-01 -0.77855510932E-01 -0.63289308019E-01  0.12858265908E+00  0.20142612068E-01 0.  0.
         14    1    1    2    0    0  0.21410012120E-01 -0.56984671330E-02  0.98033734457E-02  0.24227407570E-01  0.00000000000E+00 0.  1.
     999901    1    3    3    0    0 -0.99260884333E-01  0.83553978065E-01  0.53485934573E-01  0.89111993335E+00  0.88000000000E+00 0. -1.
        -11    1    4    4    0    0  0.16214922426E-01 -0.10398639695E-01 -0.40702857434E-02  0.19694764884E-01  0.51100000000E-03 0.  1.
         11    1    4    4    0    0  0.61635949786E-01 -0.67456871237E-01 -0.59219022275E-01  0.10888789420E+00  0.51100000000E-03 0. -1.
</event>
<event>
 8    1  0.1112958E+005  0.1043930E+01  0.7957747E-01            NaN
         13   -1    0    0    0    0  0.00000000000E+00  0.00000000000E+00  0.74505805969E-08  0.10566000000E+00  0.10566000000E+00 0. -1.
     999900   -1    0    0    0    0 -0.00000000000E+00 -0.00000000000E+00 -0.74505805969E-08  0.93827000000E+00  0.93827000000E+00 0.  1.
     999902    2    1    2    0    0 -0.20559409463E-01  0.28713999350E-02  0.12271933705E-01  0.10198149712E+01  0.10195298137E+01 0.  0.
     999903    2    3    3    0    0 -0.51121278772E-01  0.90325685014E-01 -0.76058256724E-01  0.13055432195E+00  0.22078452131E-01 0.  0.
         14    1    1    2    0    0  0.20559409463E-01 -0.28713999350E-02 -0.12271933705E-01  0.24115028756E-01  0.00000000000E+00 0. -1.
     999901    1    3    3    0    0  0.30561869309E-01 -0.87454285079E-01  0.88330190429E-01  0.88926064929E+00  0.88000000000E+00 0. -1.
        -11    1    4    4    0    0 -0.50062944385E-01  0.73000369019E-01 -0.60309480018E-01  0.10711137558E+00  0.51100000000E-03 0.  1.
         11    1    4    4    0    0 -0.10583343864E-02  0.17325315995E-01 -0.15748776706E-01  0.23442946375E-01  0.51100000000E-03 0. -1.
</event>
<event>
 8    1  0.1112958E+005  0.1043930E+01  0.7957747E-01            NaN
         13   -1    0    0    0    0  0.00000000000E+00  0.00000000000E+00  0.74505805969E-08  0.10566000000E+00  0.10566000000E+00 0. -1.
     999900   -1    0    0    0    0 -0.00000000000E+00 -0.00000000000E+00 -0.74505805969E-08  0.93827000000E+00  0.93827000000E+00 0. -1.
     999902    2    1    2    0    0 -0.43275760113E-02 -0.57232429829E-02  0.22632071078E-01  0.10201877578E+01  0.10199114506E+01 0.  0.
     999903    2    3    3    0    0  0.56495120571E-01  0.10861558121E+00  0.40274573206E-01  0.13053387844E+00  0.20688379458E-01 0.  0.
         14    1    1    2    0    0  0.43275760113E-02  0.57232429829E-02 -0.22632071078E-01  0.23742242220E-01  0.00000000000E+00 0.  1.
     999901    1    3    3    0    0 -0.60822696582E-01 -0.11433882419E+00 -0.17642502129E-01  0.88965387934E+00  0.88000000000E+00 0.  1.
        -11    1    4    4    0    0  0.13032853421E-02  0.17995629381E-01  0.52754127195E-02  0.18805114461E-01  0.51100000000E-03 0.  1.
         11    1    4    4    0    0  0.55191835229E-01  0.90619951829E-01  0.34999160487E-01  0.11172876398E+00  0.51100000000E-03 0. -1.
</event>
<event>
 8    1  0.1112958E+005  0.1043930E+01  0.7957747E-01            NaN
         13   -1    0    0    0    0  0.00000000000E+00  0.00000000000E+00  0.74505805969E-08  0.10566000000E+00  0.10566000000E+00 0. -1.
     999900   -1    0    0    0    0 -0.00000000000E+00 -0.00000000000E+00 -0.74505805969E-08  0.93827000000E+00  0.93827000000E+00 0.  1.
     999902    2    1    2    0    0  0.13452235626E-01  0.87419144809E-02  0.17286305235E-01  0.10203461059E+01  0.10200735149E+01 0.  0.
     999903    2    3    3    0    0 -0.42604144280E-01 -0.59133040319E-02  0.12331511358E+00  0.13208983581E+00  0.19774408024E-01 0.  0.
         14    1    1    2    0    0 -0.13452235626E-01 -0.87419144809E-02 -0.17286305235E-01  0.23583894097E-01  0.00000000000E+00 0.  1.
     999901    1    3    3    0    0  0.56056379906E-01  0.14655218513E-01 -0.10602880835E+00  0.88825627009E+00  0.88000000000E+00 0.  1.
        -11    1    4    4    0    0 -0.14921412405E-01  0.71741363231E-02  0.48440027972E-01  0.51193888415E-01  0.51100000000E-03 0.  1.
         11    1    4    4    0    0 -0.27682731875E-01 -0.13087440355E-01  0.74875085609E-01  0.80895947396E-01  0.51100000000E-03 0. -1.
</event>
<event>
 8    1  0.1112958E+005  0.1043930E+01  0.7957747E-01            NaN
         13   -1    0    0    0    0  0.00000000000E+00  0.00000000000E+00  0.74505805969E-08  0.10566000000E+00  0.10566000000E+00 0. -1.
     999900   -1    0    0    0    0 -0.00000000000E+00 -0.00000000000E+00 -0.74505805969E-08  0.93827000000E+00  0.93827000000E+00 0. -1.
     999902    2    1    2    0    0 -0.13298523070E-01 -0.24765192557E-02  0.16272863763E-01  0.10227689519E+01  0.10225500178E+01 0.  0.
     999903    2    3    3    0    0 -0.65010731896E-01  0.11042789764E+00  0.33574303296E-01  0.13388150133E+00  0.19398626720E-01 0.  0.
         14    1    1    2    0    0  0.13298523070E-01  0.24765192557E-02 -0.16272863763E-01  0.21161048143E-01  0.00000000000E+00 0.  1.
     999901    1    3    3    0    0  0.51712208826E-01 -0.11290441689E+00 -0.17301439533E-01  0.88888745053E+00  0.88000000000E+00 0.  1.
        -11    1    4    4    0    0 -0.31767358652E-01  0.71036260801E-01  0.24161353331E-01  0.81482191552E-01  0.51100000000E-03 0.  1.
         11    1    4    4    0    0 -0.33243373244E-01  0.39391636834E-01  0.94129499650E-02  0.52399309778E-01  0.51100000000E-03 0. -1.
</event>
<event>
 8    1  0.1112958E+005  0.1043930E+01  0.7957747E-01            NaN
         13   -1    0    0    0    0  0.00000000000E+00  0.00000000000E+00  0.74505805969E-08  0.10566000000E+00  0.10566000000E+00 0.  1.
     999900   -1    0    0    0    0 -0.00000000000E+00 -0.00000000000E+00 -0.74505805969E-08  0.93827000000E+00  0.93827000000E+00 0.  1.
     999902    2    1    2    0    0 -0.12442530928E-01 -0.15933884381E-01  0.13608150916E-01  0.10195602027E+01  0.10192689145E+01 0.  0.
     999903    2    3    3    0    0  0.10787572783E-01 -0.31053922810E-01  0.12633854861E+00  0.13193618557E+00  0.19105244034E-01 0.  0.
         14    1    1    2    0    0  0.12442530928E-01  0.15933884381E-01 -0.13608150916E-01  0.24369797265E-01  0.00000000000E+00 0. -1.
     999901    1    3    3    0    0 -0.23230103711E-01  0.15120038429E-01 -0.11273039770E+00  0.88762401716E+00  0.88000000000E+00 0.  1.
        -11    1    4    4    0    0  0.10701858043E-01 -0.23193827644E-01  0.61139069781E-01  0.66262586586E-01  0.51100000000E-03 0.  1.
         11    1    4    4    0    0  0.85714740099E-04 -0.78600951657E-02  0.65199478830E-01  0.65673598986E-01  0.51100000000E-03 0. -1.
</event>
<event>
 8    1  0.1112958E+005  0.1043930E+01  0.7957747E-01            NaN
         13   -1    0    0    0    0  0.00000000000E+00  0.00000000000E+00  0.74505805969E-08  0.10566000000E+00  0.10566000000E+00 0. -1.
     999900   -1    0    0    0    0 -0.00000000000E+00 -0.00000000000E+00 -0.74505805969E-08  0.93827000000E+00  0.93827000000E+00 0.  1.
     999902    2    1    2    0    0  0.19638741717E-01  0.12675676606E-01  0.49024577669E-02  0.10200472228E+01  0.10197675959E+01 0.  0.
     999903    2    3    3    0    0 -0.11073798118E+00 -0.35534845275E-01 -0.48314906325E-01  0.12754824123E+00  0.20213806305E-01 0.  0.
         14    1    1    2    0    0 -0.19638741717E-01 -0.12675676606E-01 -0.49024577669E-02  0.23882777179E-01  0.00000000000E+00 0. -1.
     999901    1    3    3    0    0  0.13037672289E+00  0.48210521881E-01  0.53217364092E-01  0.89249898159E+00  0.88000000000E+00 0. -1.
        -11    1    4    4    0    0 -0.85029893388E-01 -0.20781953704E-01 -0.42631126337E-01  0.97363475817E-01  0.51100000000E-03 0.  1.
         11    1    4    4    0    0 -0.25708087787E-01 -0.14752891571E-01 -0.56837799879E-02  0.30184765417E-01  0.51100000000E-03 0. -1.
</event>
<event>
 8    1  0.1112958E+005  0.1043930E+01  0.7957747E-01            NaN
         13   -1    0    0    0    0  0.00000000000E+00  0.00000000000E+00  0.74505805969E-08  0.10566000000E+00  0.10566000000E+00 0.  1.
     999900   -1    0    0    0    0 -0.00000000000E+00 -0.00000000000E+00 -0.74505805969E-08  0.93827000000E+00  0.93827000000E+00 0. -1.
     999902    2    1    2    0    0  0.17217199840E-01 -0.19604177191E-02  0.16576550489E-01  0.10199496490E+01  0.10196677053E+01 0.  0.
     999903    2    3    3    0    0 -0.17128063742E-01  0.10386595433E+00 -0.71017598876E-01  0.12862953077E+00  0.20507310901E-01 0.  0.
         14    1    1    2    0    0 -0.17217199840E-01  0.19604177191E-02 -0.16576550489E-01  0.23980351000E-01  0.00000000000E+00 0. -1.
     999901    1    3    3    0    0  0.34345263582E-01 -0.10582637205E+00  0.87594149365E-01  0.89132011823E+00  0.88000000000E+00 0.  1.
        -11    1    4    4    0    0 -0.21141091091E-01  0.83401065511E-01 -0.61121014014E-01  0.10554014846E+00  0.51100000000E-03 0. -1.
         11    1    4    4    0    0  0.40130273487E-02  0.20464888821E-01 -0.98965848612E-02  0.23089382319E-01  0.51100000000E-03 0.  1.
</event>
<event>
 8    1  0.1112958E+005  0.1043930E+01  0.7957747E-01            NaN
         13   -1    0    0    0    0  0.00000000000E+00  0.00000000000E+00  0.74505805969E-08  0.10566000000E+00  0.10566000000E+00 0. -1.
     999900   -1    0    0    0    0 -0.00000000000E+00 -0.00000000000E+00 -0.74505805969E-08  0.93827000000E+00  0.93827000000E+00 0. -1.
     999902    2    1    2    0    0  0.13750651795E-01 -0.19142372250E-01 -0.52807054554E-02  0.10197763938E+01  0.10194903122E+01 0.  0.
     999903    2    3    3    0    0  0.10109727117E+00 -0.32557492883E-01  0.75222250491E-01  0.13169412103E+00  0.20107360903E-01 0.  0.
         14    1    1    2    0    0 -0.13750651795E-01  0.19142372250E-01  0.52807054554E-02  0.24153606154E-01  0.00000000000E+00 0. -1.
     999901    1    3    3    0    0 -0.87346619379E-01  0.13415120633E-01 -0.80502955947E-01  0.88808227282E+00  0.88000000000E+00 0. -1.
        -11    1    4    4    0    0  0.64032448815E-01 -0.15303553690E-01  0.36006802116E-01  0.75040683475E-01  0.51100000000E-03 0.  1.
         11    1    4    4    0    0  0.37064822359E-01 -0.17253939194E-01  0.39215448375E-01  0.56653437552E-01  0.51100000000E-03 0. -1.
</event>
<event>
 8    1  0.1112958E+005  0.1043930E+01  0.7957747E-01            NaN
         13   -1    0    0    0    0  0.00000000000E+00  0.00000000000E+00  0.74505805969E-08  0.10566000000E+00  0.10566000000E+00 0.  1.
     999900   -1    0    0    0    0 -0.00000000000E+00 -0.00000000000E+00 -0.74505805969E-08  0.93827000000E+00  0.93827000000E+00 0. -1.
     999902    2    1    2    0    0  0.44232075660E-02  0.82523145537E-03  0.23120625743E-01  0.10203756139E+01  0.10201037125E+01 0.  0.
     999903    2    3    3    0    0  0.10393126332E+00 -0.72558717139E-01 -0.25095610988E-01  0.13042513065E+00  0.17732740461E-01 0.  0.
         14    1    1    2    0    0 -0.44232075660E-02 -0.82523145537E-03 -0.23120625743E-01  0.23554386150E-01  0.00000000000E+00 0. -1.
     999901    1    3    3    0    0 -0.99508055757E-01  0.73383948595E-01  0.48216236732E-01  0.88995048320E+00  0.88000000000E+00 0.  1.
        -11    1    4    4    0    0  0.30663599283E-01 -0.31194903862E-01 -0.60993047378E-02  0.44168325610E-01  0.51100000000E-03 0.  1.
         11    1    4    4    0    0  0.73267664040E-01 -0.41363813278E-01 -0.18996306251E-01  0.86256805035E-01  0.51100000000E-03 0. -1.
</event>
<event>
 8    1  0.1112958E+005  0.1043930E+01  0.7957747E-01            NaN
         13   -1    0    0    0    0  0.00000000000E+00  0.00000000000E+00  0.74505805969E-08  0.10566000000E+00  0.10566000000E+00 0.  1.
     999900   -1    0    0    0    0 -0.00000000000E+00 -0.00000000000E+00 -0.74505805969E-08  0.93827000000E+00  0.93827000000E+00 0.  1.
     999902    2    1    2    0    0 -0.38474019843E-02  0.18432360548E-01  0.13636557552E-01  0.10206811265E+01  0.10204163130E+01 0.  0.
     999903    2    3    3    0    0  0.40738220986E-01 -0.10612343213E+00  0.59094346814E-01  0.12963206282E+00  0.19762195990E-01 0.  0.
         14    1    1    2    0    0  0.38474019843E-02 -0.18432360548E-01 -0.13636557552E-01  0.23248873505E-01  0.00000000000E+00 0. -1.
     999901    1    3    3    0    0 -0.44585622970E-01  0.12455579268E+00 -0.45457789262E-01  0.89104906367E+00  0.88000000000E+00 0. -1.
        -11    1    4    4    0    0  0.36928423366E-02 -0.17333643825E-01  0.17182573189E-01  0.24689962235E-01  0.51100000000E-03 0.  1.
         11    1    4    4    0    0  0.37045378649E-01 -0.88789788305E-01  0.41911773625E-01  0.10494210059E+00  0.51100000000E-03 0. -1.
</event>
<event>
 8    1  0.1112958E+005  0.1043930E+01  0.7957747E-01            NaN
         13   -1    0    0    0    0  0.00000000000E+00  0.00000000000E+00  0.74505805969E-08  0.10566000000E+00  0.10566000000E+00 0. -1.
     999900   -1    0    0    0    0 -0.00000000000E+00 -0.00000000000E+00 -0.74505805969E-08  0.93827000000E+00  0.93827000000E+00 0. -1.
     999902    2    1    2    0    0 -0.48659549671E-02  0.13684298436E-01  0.21023085608E-01  0.10183779420E+01  0.10180573289E+01 0.  0.
     999903    2    3    3    0    0  0.28647380864E-01 -0.46081586418E-01 -0.11201552142E+00  0.12574454822E+00  0.17889363617E-01 0.  0.
         14    1    1    2    0    0  0.48659549671E-02 -0.13684298436E-01 -0.21023085608E-01  0.25552058037E-01  0.00000000000E+00 0.  1.
     999901    1    3    3    0    0 -0.33513335831E-01  0.59765884854E-01  0.13303860703E+00  0.89263339375E+00  0.88000000000E+00 0.  1.
        -11    1    4    4    0    0  0.75262755651E-02 -0.18151103380E-02 -0.11134789746E-01  0.13571444769E-01  0.51100000000E-03 0. -1.
         11    1    4    4    0    0  0.21121105299E-01 -0.44266476080E-01 -0.10088073167E+00  0.11217310345E+00  0.51100000000E-03 0.  1.
</event>
<event>
 8    1  0.1112958E+005  0.1043930E+01  0.7957747E-01            NaN
         13   -1    0    0    0    0  0.00000000000E+00  0.00000000000E+00  0.74505805969E-08  0.10566000000E+00  0.10566000000E+00 0.  1.
     999900   -1    0    0    0    0 -0.00000000000E+00 -0.00000000000E+00 -0.74505805969E-08  0.93827000000E+00  0.93827000000E+00 0.  1.
     999902    2    1    2    0    0 -0.20194541978E-02 -0.23217743305E-01 -0.52383413061E-02  0.10200431413E+01  0.10197634177E+01 0.  0.
     999903    2    3    3    0    0  0.23948251996E-01  0.10335164284E+00 -0.69506674370E-01  0.12828950384E+00  0.19285698391E-01 0.  0.
         14    1    1    2    0    0  0.20194541978E-02  0.23217743305E-01  0.52383413061E-02  0.23886858710E-01  0.00000000000E+00 0.  1.
     999901    1    3    3    0    0 -0.25967706194E-01 -0.12656938614E+00  0.64268333064E-01  0.89175363745E+00  0.88000000000E+00 0. -1.
        -11    1    4    4    0    0 -0.25630500316E-02  0.30076544582E-02 -0.33839327540E-02  0.52275551349E-02  0.51100000000E-03 0. -1.
         11    1    4    4    0    0  0.26511302028E-01  0.10034398838E+00 -0.66122741616E-01  0.12306194870E+00  0.51100000000E-03 0.  1.
</event>
<event>
 8    1  0.1112958E+005  0.1043930E+01  0.7957747E-01            NaN
         13   -1    0    0    0    0  0.00000000000E+00  0.00000000000E+00  0.74505805969E-08  0.10566000000E+00  0.10566000000E+00 0. -1.
     999900   -1    0    0    0    0 -0.00000000000E+00 -0.00000000000E+00 -0.74505805969E-08  0.93827000000E+00  0.93827000000E+00 0.  1.
     999902    2    1    2    0    0  0.13748278169E-01  0.13224092761E-01  0.14618864230E-01  0.10198966279E+01  0.10196134212E+01 0.  0.
     999903    2    3    3    0    0 -0.22372519043E-02  0.13015907333E+00  0.90108116378E-02  0.13199979996E+00  0.19908862259E-01 0.  0.
         14    1    1    2    0    0 -0.13748278169E-01 -0.13224092761E-01 -0.14618864230E-01  0.24033372076E-01  0.00000000000E+00 0.  1.
     999901    1    3    3    0    0  0.15985530073E-01 -0.11693498057E+00  0.56080525924E-02  0.88789682796E+00  0.88000000000E+00 0.  1.
        -11    1    4    4    0    0 -0.59478926075E-02  0.85017048597E-01 -0.24997269699E-02  0.85263038501E-01  0.51100000000E-03 0. -1.
         11    1    4    4    0    0  0.37106407032E-02  0.45142024736E-01  0.11510538608E-01  0.46736761460E-01  0.51100000000E-03 0.  1.
</event>
<event>
 8    1  0.1112958E+005  0.1043930E+01  0.7957747E-01            NaN
         13   -1    0    0    0    0  0.00000000000E+00  0.00000000000E+00  0.74505805969E-08  0.10566000000E+00  0.10566000000E+00 0.  1.
     999900   -1    0    0    0    0 -0.00000000000E+00 -0.00000000000E+00 -0.74505805969E-08  0.93827000000E+00  0.93827000000E+00 0. -1.
     999902    2    1    2    0    0 -0.20477168551E-01  0.10631762636E-01  0.67003168889E-02  0.10199041170E+01  0.10196210888E+01 0.  0.
     999903    2    3    3    0    0 -0.69272729456E-01  0.24296731581E-01 -0.10693159864E+00  0.13115221101E+00  0.19429190720E-01 0.  0.
         14    1    1    2    0    0  0.20477168551E-01 -0.10631762636E-01 -0.67003168889E-02  0.24025883023E-01  0.00000000000E+00 0. -1.
     999901    1    3    3    0    0  0.48795560905E-01 -0.13664968944E-01  0.11363191553E+00  0.88875190597E+00  0.88000000000E+00 0.  1.
        -11    1    4    4    0    0 -0.33726691343E-01  0.19315584195E-01 -0.66990171688E-01  0.77450149939E-01  0.51100000000E-03 0.  1.
         11    1    4    4    0    0 -0.35546038114E-01  0.49811473855E-02 -0.39941426952E-01  0.53702061067E-01  0.51100000000E-03 0. -1.
</event>
<event>
 8    1  0.1112958E+005  0.1043930E+01  0.7957747E-01            NaN
         13   -1    0    0    0    0  0.00000000000E+00  0.00000000000E+00  0.74505805969E-08  0.10566000000E+00  0.10566000000E+00 0.  1.
     999900   -1    0    0    0    0 -0.00000000000E+00 -0.00000000000E+00 -0.74505805969E-08  0.93827000000E+00  0.93827000000E+00 0.  1.
     999902    2    1    2    0    0  0.14131548274E-01  0.33467193707E-02  0.15748990310E-01  0.10225073045E+01  0.10222828649E+01 0.  0.
     999903    2    3    3    0    0  0.34269914210E-01  0.20316112759E-01  0.12747363432E+00  0.13505256752E+00  0.20062330091E-01 0.  0.
         14    1    1    2    0    0 -0.14131548274E-01 -0.33467193707E-02 -0.15748990310E-01  0.21422695511E-01  0.00000000000E+00 0. -1.
     999901    1    3    3    0    0 -0.20138365937E-01 -0.16969393388E-01 -0.11172464401E+00  0.88745473697E+00  0.88000000000E+00 0.  1.
        -11    1    4    4    0    0  0.78063102884E-02 -0.27747653287E-02  0.38749207681E-01  0.39628272986E-01  0.51100000000E-03 0.  1.
         11    1    4    4    0    0  0.26463603922E-01  0.23090878088E-01  0.88724426639E-01  0.95424294532E-01  0.51100000000E-03 0. -1.
</event>
<event>
 8    1  0.1112958E+005  0.1043930E+01  0.7957747E-01            NaN
         13   -1    0    0    0    0  0.00000000000E+00  0.00000000000E+00  0.74505805969E-08  0.10566000000E+00  0.10566000000E+00 0.  1.
     999900   -1    0    0    0    0 -0.00000000000E+00 -0.00000000000E+00 -0.74505805969E-08  0.93827000000E+00  0.93827000000E+00 0. -1.
     999902    2    1    2    0    0  0.93541022130E-02 -0.52847901018E-02  0.20257903856E-01  0.10209994330E+01  0.10207419024E+01 0.  0.
     999903    2    3    3    0    0  0.55178296043E-01  0.10921407908E+00 -0.39056216798E-01  0.13042208504E+00  0.22631234437E-01 0.  0.
         14    1    1    2    0    0 -0.93541022130E-02  0.52847901018E-02 -0.20257903856E-01  0.22930567007E-01  0.00000000000E+00 0. -1.
     999901    1    3    3    0    0 -0.45824193830E-01 -0.11449886918E+00  0.59314120655E-01  0.89057734796E+00  0.88000000000E+00 0. -1.
        -11    1    4    4    0    0  0.14371856881E-01  0.24377897834E-01 -0.19222719856E-01  0.34214123585E-01  0.51100000000E-03 0.  1.
         11    1    4    4    0    0  0.40806439162E-01  0.84836181242E-01 -0.19833496942E-01  0.96207961452E-01  0.51100000000E-03 0. -1.
</event>
<event>
 8    1  0.1112958E+005  0.1043930E+01  0.7957747E-01            NaN
         13   -1    0    0    0    0  0.00000000000E+00  0.00000000000E+00  0.74505805969E-08  0.10566000000E+00  0.10566000000E+00 0.  1.
     999900   -1    0    0    0    0 -0.00000000000E+00 -0.00000000000E+00 -0.74505805969E-08  0.93827000000E+00  0.93827000000E+00 0.  1.
     999902    2    1    2    0    0  0.96236860602E-02  0.18305623560E-01  0.12429420450E-01  0.10198011442E+01  0.10195156557E+01 0.  0.
     999903    2    3    3    0    0  0.11775637890E+00 -0.49201444004E-01 -0.15949656350E-01  0.13016343403E+00  0.20019519437E-01 0.  0.
         14    1    1    2    0    0 -0.96236860602E-02 -0.18305623560E-01 -0.12429420450E-01  0.24128855754E-01  0.00000000000E+00 0. -1.
     999901    1    3    3    0    0 -0.10813269284E+00  0.67507067563E-01  0.28379076800E-01  0.88963771021E+00  0.88000000000E+00 0. -1.
        -11    1    4    4    0    0  0.95562981095E-01 -0.43308839423E-01 -0.58789146584E-02  0.10508454542E+00  0.51100000000E-03 0. -1.
         11    1    4    4    0    0  0.22193397803E-01 -0.58926045809E-02 -0.10070741691E-01  0.25078888612E-01  0.51100000000E-03 0.  1.
</event>
<event>
 8    1  0.1112958E+005  0.1043930E+01  0.7957747E-01            NaN
         13   -1    0    0    0    0  0.00000000000E+00  0.00000000000E+00  0.74505805969E-08  0.10566000000E+00  0.10566000000E+00 0.  1.
     999900   -1    0    0    0    0 -0.00000000000E+00 -0.00000000000E+00 -0.74505805969E-08  0.93827000000E+00  0.93827000000E+00 0.  1.
     999902    2    1    2    0    0  0.16920301114E-02  0.17752969691E-01 -0.16197381772E-01  0.10198387967E+01  0.10195542091E+01 0.  0.
     999903    2    3    3    0    0  0.18294316843E-01 -0.11938010296E+00  0.34709269076E-01  0.12760978877E+00  0.22208868049E-01 0.  0.
         14    1    1    2    0    0 -0.16920301114E-02 -0.17752969691E-01  0.16197381772E-01  0.24091203271E-01  0.00000000000E+00 0.  1.
     999901    1    3    3    0    0 -0.16602286731E-01  0.13713307265E+00 -0.50906650848E-01  0.89222900796E+00  0.88000000000E+00 0.  1.
        -11    1    4    4    0    0  0.18169190853E-02 -0.36094521522E-01  0.20423031505E-01  0.41514780690E-01  0.51100000000E-03 0.  1.
         11    1    4    4    0    0  0.16477397758E-01 -0.83285581435E-01  0.14286237571E-01  0.86095008083E-01  0.51100000000E-03 0. -1.
</event>
<event>
 8    1  0.1112958E+005  0.1043930E+01  0.7957747E-01            NaN
         13   -1    0    0    0    0  0.00000000000E+00  0.00000000000E+00  0.74505805969E-08  0.10566000000E+00  0.10566000000E+00 0. -1.
     999900   -1    0    0    0    0 -0.00000000000E+00 -0.00000000000E+00 -0.74505805969E-08  0.93827000000E+00  0.93827000000E+00 0.  1.
     999902    2    1    2    0    0  0.66177187330E-02 -0.22530755704E-01 -0.10256851851E-01  0.10183051651E+01  0.10179826998E+01 0.  0.
     999903    2    3    3    0    0  0.10859305296E+00  0.41466275686E-01 -0.51903749714E-01  0.12913192387E+00  0.21659902061E-01 0.  0.
         14    1    1    2    0    0 -0.66177187330E-02  0.22530755704E-01  0.10256851851E-01  0.25624834901E-01  0.00000000000E+00 0. -1.
     999901    1    3    3    0    0 -0.10197533423E+00 -0.63997031390E-01  0.41646897863E-01  0.88917324123E+00  0.88000000000E+00 0. -1.
        -11    1    4    4    0    0  0.45057141840E-01  0.97846547104E-02 -0.29257744231E-01  0.54609177041E-01  0.51100000000E-03 0.  1.
         11    1    4    4    0    0  0.63535911120E-01  0.31681620976E-01 -0.22646005483E-01  0.74522746828E-01  0.51100000000E-03 0. -1.
</event>
<event>
 8    1  0.1112958E+005  0.1043930E+01  0.7957747E-01            NaN
         13   -1    0    0    0    0  0.00000000000E+00  0.00000000000E+00  0.74505805969E-08  0.10566000000E+00  0.10566000000E+00 0. -1.
     999900   -1    0    0    0    0 -0.00000000000E+00 -0.00000000000E+00 -0.74505805969E-08  0.93827000000E+00  0.93827000000E+00 0. -1.
     999902    2    1    2    0    0 -0.19772788737E-01 -0.11145549152E-01 -0.79418435368E-02  0.10198829769E+01  0.10195994445E+01 0.  0.
     999903    2    3    3    0    0 -0.10324008033E+00  0.68338982520E-01  0.39445891281E-01  0.13110281459E+00  0.17413757072E-01 0.  0.
         14    1    1    2    0    0  0.19772788737E-01  0.11145549152E-01  0.79418435368E-02  0.24047023082E-01  0.00000000000E+00 0. -1.
     999901    1    3    3    0    0  0.83467291593E-01 -0.79484531672E-01 -0.47387734818E-01  0.88878016233E+00  0.88000000000E+00 0. -1.
        -11    1    4    4    0    0 -0.67425538325E-01  0.47169108933E-01  0.17757086015E-01  0.84182559243E-01  0.51100000000E-03 0.  1.
         11    1    4    4    0    0 -0.35814542005E-01  0.21169873587E-01  0.21688805266E-01  0.46920255344E-01  0.51100000000E-03 0. -1.
</event>
<event>
 8    1  0.1112958E+005  0.1043930E+01  0.7957747E-01            NaN
         13   -1    0    0    0    0  0.00000000000E+00  0.00000000000E+00  0.74505805969E-08  0.10566000000E+00  0.10566000000E+00 0.  1.
     999900   -1    0    0    0    0 -0.00000000000E+00 -0.00000000000E+00 -0.74505805969E-08  0.93827000000E+00  0.93827000000E+00 0. -1.
     999902    2    1    2    0    0 -0.78603710049E-02  0.59650830985E-02 -0.22287629720E-01  0.10195557085E+01  0.10192643115E+01 0.  0.
     999903    2    3    3    0    0 -0.11677206124E+00 -0.70553979121E-03  0.52594420478E-01  0.12966044783E+00  0.20234786715E-01 0.  0.
         14    1    1    2    0    0  0.78603710049E-02 -0.59650830985E-02  0.22287629720E-01  0.24374291523E-01  0.00000000000E+00 0.  1.
     999901    1    3    3    0    0  0.10891169024E+00  0.66706228897E-02 -0.74882050198E-01  0.88989526065E+00  0.88000000000E+00 0.  1.
        -11    1    4    4    0    0 -0.73600590968E-01  0.84259282775E-02  0.37399543636E-01  0.82988133148E-01  0.51100000000E-03 0. -1.
         11    1    4    4    0    0 -0.43171470273E-01 -0.91314680687E-02  0.15194876842E-01  0.46672314683E-01  0.51100000000E-03 0.  1.
</event>
<event>
 8    1  0.1112958E+005  0.1043930E+01  0.7957747E-01            NaN
         13   -1    0    0    0    0  0.00000000000E+00  0.00000000000E+00  0.74505805969E-08  0.10566000000E+00  0.10566000000E+00 0. -1.
     999900   -1    0    0    0    0 -0.00000000000E+00 -0.00000000000E+00 -0.74505805969E-08  0.93827000000E+00  0.93827000000E+00 0.  1.
     999902    2    1    2    0    0  0.16108623890E-01 -0.10790478731E-01 -0.13646279779E-01  0.10202204419E+01  0.10199449038E+01 0.  0.
     999903    2    3    3    0    0 -0.80367735486E-01 -0.83985045071E-01  0.53113508994E-01  0.12942192264E+00  0.20409030366E-01 0.  0.
         14    1    1    2    0    0 -0.16108623890E-01  0.10790478731E-01  0.13646279779E-01  0.23709558129E-01  0.00000000000E+00 0. -1.
     999901    1    3    3    0    0  0.96476359376E-01  0.73194566340E-01 -0.66759788773E-01  0.89079851923E+00  0.88000000000E+00 0. -1.
        -11    1    4    4    0    0 -0.75783638823E-01 -0.71063428370E-01  0.50251433553E-01  0.11540640563E+00  0.51100000000E-03 0.  1.
         11    1    4    4    0    0 -0.45840966634E-02 -0.12921616701E-01  0.28620754410E-02  0.14015517016E-01  0.51100000000E-03 0. -1.
</event>
<event>
 8    1  0.1112958E+005  0.1043930E+01  0.7957747E-01            NaN
         13   -1    0    0    0    0  0.00000000000E+00  0.00000000000E+00  0.74505805969E-08  0.10566000000E+00  0.10566000000E+00 0. -1.
     999900   -1    0    0    0    0 -0.00000000000E+00 -0.00000000000E+00 -0.74505805969E-08  0.93827000000E+00  0.93827000000E+00 0.  1.
     999902    2    1    2    0    0 -0.77970422932E-02 -0.16057300943E-01 -0.16139471567E-01  0.10198652265E+01  0.10195812704E+01 0.  0.
     999903    2    3    3    0    0  0.98692493272E-02 -0.10251187151E+00  0.77551182029E-01  0.13050341642E+00  0.20269927951E-01 0.  0.
         14    1    1    2    0    0  0.77970422932E-02  0.16057300943E-01  0.16139471567E-01  0.24064773519E-01  0.00000000000E+00 0.  1.
     999901    1    3    3    0    0 -0.17666291620E-01  0.86454570568E-01 -0.93690653596E-01  0.88936181007E+00  0.88000000000E+00 0. -1.
        -11    1    4    4    0    0 -0.16448900643E-02 -0.42967359088E-01  0.22206195264E-01  0.48397064368E-01  0.51100000000E-03 0.  1.
         11    1    4    4    0    0  0.11514139392E-01 -0.59544512423E-01  0.55344986765E-01  0.82106352047E-01  0.51100000000E-03 0. -1.
</event>
<event>
 8    1  0.1112958E+005  0.1043930E+01  0.7957747E-01            NaN
         13   -1    0    0    0    0  0.00000000000E+00  0.00000000000E+00  0.74505805969E-08  0.10566000000E+00  0.10566000000E+00 0. -1.
     999900   -1    0    0    0    0 -0.00000000000E+00 -0.00000000000E+00 -0.74505805969E-08  0.93827000000E+00  0.93827000000E+00 0. -1.
     999902    2    1    2    0    0 -0.20747706191E-01 -0.77263388109E-02  0.83869924739E-02  0.10202550076E+01  0.10199802818E+01 0.  0.
     999903    2    3    3    0    0  0.65506237650E-01 -0.10763808004E+00  0.26596317731E-01  0.13022485169E+00  0.19342296494E-01 0.  0.
         14    1    1    2    0    0  0.20747706191E-01  0.77263388109E-02 -0.83869924739E-02  0.23674992426E-01  0.00000000000E+00 0.  1.
     999901    1    3    3    0    0 -0.86253943841E-01  0.99911741231E-01 -0.18209325257E-01  0.89003015589E+00  0.88000000000E+00 0. -1.
        -11    1    4    4    0    0  0.49994795889E-01 -0.70888151848E-01  0.25099063917E-01  0.90304118505E-01  0.51100000000E-03 0.  1.
         11    1    4    4    0    0  0.15511441760E-01 -0.36749928193E-01  0.14972538142E-02  0.39920733181E-01  0.51100000000E-03 0. -1.
</event>
<event>
 8    1  0.1112958E+005  0.1043930E+01  0.7957747E-01            NaN
         13   -1    0    0    0    0  0.00000000000E+00  0.00000000000E+00  0.74505805969E-08  0.10566000000E+00  0.10566000000E+00 0.  1.
     999900   -1    0    0    0    0 -0.00000000000E+00 -0.00000000000E+00 -0.74505805969E-08  0.93827000000E+00  0.93827000000E+00 0.  1.
     999902    2    1    2    0    0  0.58217959125E-02  0.93572066738E-02 -0.19149176168E-01  0.10218360739E+01  0.10215971908E+01 0.  0.
     999903    2    3    3    0    0  0.59771048124E-01 -0.98778861279E-01  0.57822905210E-01  0.13024837076E+00  0.17067749978E-01 0.  0.
         14    1    1    2    0    0 -0.58217959125E-02 -0.93572066738E-02  0.19149176168E-01  0.22093926140E-01  0.00000000000E+00 0. -1.
     999901    1    3    3    0    0 -0.53949252211E-01  0.10813606795E+00 -0.76972081378E-01  0.89158770310E+00  0.88000000000E+00 0.  1.
        -11    1    4    4    0    0  0.30374015992E-01 -0.65763759324E-01  0.37918798847E-01  0.81765208462E-01  0.51100000000E-03 0.  1.
         11    1    4    4    0    0  0.29397032132E-01 -0.33015101955E-01  0.19904106363E-01  0.48483162298E-01  0.51100000000E-03 0. -1.
</event>
<event>
 8    1  0.1112958E+005  0.1043930E+01  0.7957747E-01            NaN
         13   -1    0    0    0    0  0.00000000000E+00  0.00000000000E+00  0.74505805969E-08  0.10566000000E+00  0.10566000000E+00 0.  1.
     999900   -1    0    0    0    0 -0.00000000000E+00 -0.00000000000E+00 -0.74505805969E-08  0.93827000000E+00  0.93827000000E+00 0.  1.
     999902    2    1    2    0    0 -0.20080355842E-01 -0.84766464628E-02  0.94141153791E-02  0.10201876371E+01  0.10199113271E+01 0.  0.
     999903    2    3    3    0    0 -0.86729427486E-01  0.75544903584E-01  0.61157011136E-01  0.13216790375E+00  0.22341636483E-01 0.  0.
         14    1    1    2    0    0  0.20080355842E-01  0.84766464628E-02 -0.94141153791E-02  0.23742362864E-01  0.00000000000E+00 0.  1.
     999901    1    3    3    0    0  0.66649071645E-01 -0.84021550047E-01 -0.51742895757E-01  0.88801973339E+00  0.88000000000E+00 0.  1.
        -11    1    4    4    0    0 -0.27030782370E-01  0.20289280388E-01  0.29545244255E-01  0.44894327852E-01  0.51100000000E-03 0. -1.
         11    1    4    4    0    0 -0.59698645116E-01  0.55255623197E-01  0.31611766881E-01  0.87273575897E-01  0.51100000000E-03 0.  1.
</event>
<event>
 8    1  0.1112958E+005  0.1043930E+01  0.7957747E-01            NaN
         13   -1    0    0    0    0  0.00000000000E+00  0.00000000000E+00  0.74505805969E-08  0.10566000000E+00  0.10566000000E+00 0.  1.
     999900   -1    0    0    0    0 -0.00000000000E+00 -0.00000000000E+00 -0.74505805969E-08  0.93827000000E+00  0.93827000000E+00 0.  1.
     999902    2    1    2    0    0 -0.31983213933E-02 -0.75593974108E-02 -0.18508248183E-01  0.10236832966E+01  0.10234830544E+01 0.  0.
     999903    2    3    3    0    0  0.78517302866E-01 -0.68812423346E-01 -0.84973583804E-01  0.13528754170E+00  0.13494166829E-01 0.  0.
         14    1    1    2    0    0  0.31983213933E-02  0.75593974108E-02  0.18508248183E-01  0.20246703429E-01  0.00000000000E+00 0.  1.
     999901    1    3    3    0    0 -0.81715624259E-01  0.61253025935E-01  0.66465335621E-01  0.88839575487E+00  0.88000000000E+00 0. -1.
        -11    1    4    4    0    0  0.44325493703E-01 -0.46378077978E-01 -0.47604790636E-01  0.79888376635E-01  0.51100000000E-03 0.  1.
         11    1    4    4    0    0  0.34191809163E-01 -0.22434345368E-01 -0.37368793169E-01  0.55399165064E-01  0.51100000000E-03 0. -1.
</event>
<event>
 8    1  0.1112958E+005  0.1043930E+01  0.7957747E-01            NaN
         13   -1    0    0    0    0  0.00000000000E+00  0.00000000000E+00  0.74505805969E-08  0.10566000000E+00  0.10566000000E+00 0.  1.
     999900   -1    0    0    0    0 -0.00000000000E+00 -0.00000000000E+00 -0.74505805969E-08  0.93827000000E+00  0.93827000000E+00 0. -1.
     999902    2    1    2    0    0  0.69680860821E-02 -0.16828197636E-01 -0.16273960146E-01  0.10195049260E+01  0.10192122988E+01 0.  0.
     999903    2    3    3    0    0 -0.11949025391E+00 -0.65924375064E-03 -0.46576995433E-01  0.12980193022E+00  0.20019220818E-01 0.  0.
         14    1    1    2    0    0 -0.69680860821E-02  0.16828197636E-01  0.16273960146E-01  0.24425073965E-01  0.00000000000E+00 0.  1.
     999901    1    3    3    0    0  0.12645833999E+00 -0.16168953885E-01  0.30303035287E-01  0.88970299582E+00  0.88000000000E+00 0. -1.
        -11    1    4    4    0    0 -0.75627609009E-01 -0.78119725551E-02 -0.35958593736E-01  0.84106145697E-01  0.51100000000E-03 0. -1.
         11    1    4    4    0    0 -0.43862644902E-01  0.71527288045E-02 -0.10618401698E-01  0.45695784518E-01  0.51100000000E-03 0.  1.
</event>
<event>
 8    1  0.1112958E+005  0.1043930E+01  0.7957747E-01            NaN
         13   -1    0    0    0    0  0.00000000000E+00  0.00000000000E+00  0.74505805969E-08  0.10566000000E+00  0.10566000000E+00 0. -1.
     999900   -1    0    0    0    0 -0.00000000000E+00 -0.00000000000E+00 -0.74505805969E-08  0.93827000000E+00  0.93827000000E+00 0.  1.
     999902    2    1    2    0    0  0.10472474999E-01 -0.14542979815E-01 -0.11329741995E-01  0.10227277820E+01  0.10225079863E+01 0.  0.
     999903    2    3    3    0    0 -0.11961679495E+00 -0.52671211463E-01 -0.75519783425E-02  0.13233952303E+00  0.19346390576E-01 0.  0.
         14    1    1    2    0    0 -0.10472474999E-01  0.14542979815E-01  0.11329741995E-01  0.21202218001E-01  0.00000000000E+00 0. -1.
     999901    1    3    3    0    0  0.13008926995E+00  0.38128231647E-01 -0.37777636522E-02  0.89038825897E+00  0.88000000000E+00 0. -1.
        -11    1    4    4    0    0 -0.55459457114E-01 -0.14514967005E-01 -0.19700084322E-03  0.57330058267E-01  0.51100000000E-03 0. -1.
         11    1    4    4    0    0 -0.64157337838E-01 -0.38156244458E-01 -0.73549774993E-02  0.75009464767E-01  0.51100000000E-03 0.  1.
</event>
<event>
 8    1  0.1112958E+005  0.1043930E+01  0.7957747E-01            NaN
         13   -1    0    0    0    0  0.00000000000E+00  0.00000000000E+00  0.74505805969E-08  0.10566000000E+00  0.10566000000E+00 0. -1.
     999900   -1    0    0    0    0 -0.00000000000E+00 -0.00000000000E+00 -0.74505805969E-08  0.93827000000E+00  0.93827000000E+00 0. -1.
     999902    2    1    2    0    0 -0.11528136553E-01 -0.18562219246E-02  0.17867167781E-01  0.10225856992E+01  0.10223629165E+01 0.  0.
     999903    2    3    3    0    0 -0.97556058914E-01  0.72670158034E-01  0.53700563230E-01  0.13453220027E+00  0.20421212446E-01 0.  0.
         14    1    1    2    0    0  0.11528136553E-01  0.18562219246E-02 -0.17867167781E-01  0.21344300802E-01  0.00000000000E+00 0.  1.
     999901    1    3    3    0    0  0.86027922362E-01 -0.74526379958E-01 -0.35833395449E-01  0.88805349893E+00  0.88000000000E+00 0. -1.
        -11    1    4    4    0    0 -0.60841263524E-01  0.42910031262E-01  0.43330997544E-01  0.86143871513E-01  0.51100000000E-03 0.  1.
         11    1    4    4    0    0 -0.36714795391E-01  0.29760126771E-01  0.10369565686E-01  0.48388328753E-01  0.51100000000E-03 0. -1.
</event>
<event>
 8    1  0.1112958E+005  0.1043930E+01  0.7957747E-01            NaN
         13   -1    0    0    0    0  0.00000000000E+00  0.00000000000E+00  0.74505805969E-08  0.10566000000E+00  0.10566000000E+00 0. -1.
     999900   -1    0    0    0    0 -0.00000000000E+00 -0.00000000000E+00 -0.74505805969E-08  0.93827000000E+00  0.93827000000E+00 0. -1.
     999902    2    1    2    0    0  0.17474723211E-01 -0.14582994141E-01 -0.66803975923E-02  0.10202095999E+01  0.10199338068E+01 0.  0.
     999903    2    3    3    0    0 -0.62196703060E-01 -0.29585690114E-01 -0.10901210741E+00  0.13057799305E+00  0.20572549077E-01 0.  0.
         14    1    1    2    0    0 -0.17474723211E-01  0.14582994141E-01  0.66803975923E-02  0.23720400110E-01  0.00000000000E+00 0. -1.
     999901    1    3    3    0    0  0.79671426271E-01  0.15002695973E-01  0.10233170982E+00  0.88963160684E+00  0.88000000000E+00 0.  1.
        -11    1    4    4    0    0 -0.13714513959E-01  0.70470441624E-03 -0.30541950750E-01  0.33491138799E-01  0.51100000000E-03 0.  1.
         11    1    4    4    0    0 -0.48482189101E-01 -0.30290394530E-01 -0.78470156664E-01  0.97086854253E-01  0.51100000000E-03 0. -1.
</event>
<event>
 8    1  0.1112958E+005  0.1043930E+01  0.7957747E-01            NaN
         13   -1    0    0    0    0  0.00000000000E+00  0.00000000000E+00  0.74505805969E-08  0.10566000000E+00  0.10566000000E+00 0.  1.
     999900   -1    0    0    0    0 -0.00000000000E+00 -0.00000000000E+00 -0.74505805969E-08  0.93827000000E+00  0.93827000000E+00 0.  1.
     999902    2    1    2    0    0 -0.89628688686E-03  0.22708524518E-01 -0.97416986465E-02  0.10192038780E+01  0.10189039031E+01 0.  0.
     999903    2    3    3    0    0 -0.10681462841E+00 -0.42471477665E-01  0.52822864813E-01  0.12825974264E+00  0.21145100588E-01 0.  0.
         14    1    1    2    0    0  0.89628688686E-03 -0.22708524518E-01  0.97416986465E-02  0.24726121986E-01  0.00000000000E+00 0. -1.
     999901    1    3    3    0    0  0.10591834152E+00  0.65180002183E-01 -0.62564563459E-01  0.89094413537E+00  0.88000000000E+00 0.  1.
        -11    1    4    4    0    0 -0.32991208516E-01 -0.29353528234E-02  0.15587814217E-01  0.36609796620E-01  0.51100000000E-03 0. -1.
         11    1    4    4    0    0 -0.73823419890E-01 -0.39536124841E-01  0.37235050596E-01  0.91649946021E-01  0.51100000000E-03 0.  1.
</event>
<event>
 8    1  0.1112958E+005  0.1043930E+01  0.7957747E-01            NaN
         13   -1    0    0    0    0  0.00000000000E+00  0.00000000000E+00  0.74505805969E-08  0.10566000000E+00  0.10566000000E+00 0. -1.
     999900   -1    0    0    0    0 -0.00000000000E+00 -0.00000000000E+00 -0.74505805969E-08  0.93827000000E+00  0.93827000000E+00 0.  1.
     999902    2    1    2    0    0  0.52061373291E-02  0.66807848259E-02  0.22225267148E-01  0.10201455670E+01  0.10198682654E+01 0.  0.
     999903    2    3    3    0    0  0.63349685475E-01  0.10892899738E+00 -0.28286882427E-01  0.13088359977E+00  0.21252290527E-01 0.  0.
         14    1    1    2    0    0 -0.52061373291E-02 -0.66807848259E-02 -0.22225267148E-01  0.23784432967E-01  0.00000000000E+00 0.  1.
     999901    1    3    3    0    0 -0.58143548146E-01 -0.10224821255E+00  0.50512149575E-01  0.88926196726E+00  0.88000000000E+00 0.  1.
        -11    1    4    4    0    0  0.36728107730E-01  0.64715425101E-01 -0.27297726925E-01  0.79262015870E-01  0.51100000000E-03 0.  1.
         11    1    4    4    0    0  0.26621577745E-01  0.44213572276E-01 -0.98915550141E-03  0.51621583903E-01  0.51100000000E-03 0. -1.
</event>
<event>
 8    1  0.1112958E+005  0.1043930E+01  0.7957747E-01            NaN
         13   -1    0    0    0    0  0.00000000000E+00  0.00000000000E+00  0.74505805969E-08  0.10566000000E+00  0.10566000000E+00 0. -1.
     999900   -1    0    0    0    0 -0.00000000000E+00 -0.00000000000E+00 -0.74505805969E-08  0.93827000000E+00  0.93827000000E+00 0. -1.
     999902    2    1    2    0    0 -0.58299588332E-02  0.20994996776E-01 -0.10193589246E-01  0.10198740741E+01  0.10195903292E+01 0.  0.
     999903    2    3    3    0    0 -0.49733934423E-01  0.92853415308E-01  0.76416976045E-01  0.13162153038E+00  0.19734539880E-01 0.  0.
         14    1    1    2    0    0  0.58299588332E-02 -0.20994996776E-01  0.10193589246E-01  0.24055925909E-01  0.00000000000E+00 0. -1.
     999901    1    3    3    0    0  0.43903975590E-01 -0.71858418532E-01 -0.86610565291E-01  0.88825254371E+00  0.88000000000E+00 0. -1.
        -11    1    4    4    0    0 -0.45620457836E-02  0.12874948824E-01  0.18610487311E-01  0.23090862433E-01  0.51100000000E-03 0. -1.
         11    1    4    4    0    0 -0.45171888640E-01  0.79978466484E-01  0.57806488735E-01  0.10853066795E+00  0.51100000000E-03 0.  1.
</event>
<event>
 8    1  0.1112958E+005  0.1043930E+01  0.7957747E-01            NaN
         13   -1    0    0    0    0  0.00000000000E+00  0.00000000000E+00  0.74505805969E-08  0.10566000000E+00  0.10566000000E+00 0. -1.
     999900   -1    0    0    0    0 -0.00000000000E+00 -0.00000000000E+00 -0.74505805969E-08  0.93827000000E+00  0.93827000000E+00 0. -1.
     999902    2    1    2    0    0  0.68873120815E-02  0.61934899560E-02 -0.23792342614E-01  0.10183982560E+01  0.10180781590E+01 0.  0.
     999903    2    3    3    0    0  0.56306955697E-01  0.75989650847E-01  0.83020317532E-01  0.12782386290E+00  0.22397913011E-01 0.  0.
         14    1    1    2    0    0 -0.68873120815E-02 -0.61934899560E-02  0.23792342614E-01  0.25531744018E-01  0.00000000000E+00 0. -1.
     999901    1    3    3    0    0 -0.49419643615E-01 -0.69796160891E-01 -0.10681266015E+00  0.89057439308E+00  0.88000000000E+00 0. -1.
        -11    1    4    4    0    0  0.23551301237E-01  0.20752827000E-01  0.16920792891E-01  0.35663958999E-01  0.51100000000E-03 0.  1.
         11    1    4    4    0    0  0.32755654460E-01  0.55236823847E-01  0.66099524641E-01  0.92159903898E-01  0.51100000000E-03 0. -1.
</event>
<event>
 8    1  0.1112958E+005  0.1043930E+01  0.7957747E-01            NaN
         13   -1    0    0    0    0  0.00000000000E+00  0.00000000000E+00  0.74505805969E-08  0.10566000000E+00  0.10566000000E+00 0. -1.
     999900   -1    0    0    0    0 -0.00000000000E+00 -0.00000000000E+00 -0.74505805969E-08  0.93827000000E+00  0.93827000000E+00 0.  1.
     999902    2    1    2    0    0 -0.99802401087E-02  0.36365953441E-03 -0.21804359673E-01  0.10199473492E+01  0.10196653507E+01 0.  0.
     999903    2    3    3    0    0 -0.76186982273E-01  0.64569778400E-01 -0.85392396358E-01  0.13284577841E+00  0.19555739177E-01 0.  0.
         14    1    1    2    0    0  0.99802401087E-02 -0.36365953441E-03  0.21804359673E-01  0.23982650846E-01  0.00000000000E+00 0. -1.
     999901    1    3    3    0    0  0.66206742164E-01 -0.64206118866E-01  0.63588036686E-01  0.88710157074E+00  0.88000000000E+00 0. -1.
        -11    1    4    4    0    0 -0.69144150114E-01  0.59220895217E-01 -0.69074801939E-01  0.11427868265E+00  0.51100000000E-03 0.  1.
         11    1    4    4    0    0 -0.70428321593E-02  0.53488831827E-02 -0.16317594419E-01  0.18567095755E-01  0.51100000000E-03 0. -1.
</event>
<event>
 8    1  0.1112958E+005  0.1043930E+01  0.7957747E-01            NaN
         13   -1    0    0    0    0  0.00000000000E+00  0.00000000000E+00  0.74505805969E-08  0.10566000000E+00  0.10566000000E+00 0.  1.
     999900   -1    0    0    0    0 -0.00000000000E+00 -0.00000000000E+00 -0.74505805969E-08  0.93827000000E+00  0.93827000000E+00 0.  1.
     999902    2    1    2    0    0 -0.17721062962E-01  0.13818146710E-01 -0.72358976326E-02  0.10203220466E+01  0.10200488926E+01 0.  0.
     999903    2    3    3    0    0 -0.66656562824E-01  0.23055615805E-01  0.10908699945E+00  0.13127141225E+00  0.18909030560E-01 0.  0.
         14    1    1    2    0    0  0.17721062962E-01 -0.13818146710E-01  0.72358976326E-02  0.23607953438E-01  0.00000000000E+00 0.  1.
     999901    1    3    3    0    0  0.48935499862E-01 -0.92374690954E-02 -0.11632289709E+00  0.88905063431E+00  0.88000000000E+00 0.  1.
        -11    1    4    4    0    0 -0.63625438193E-01  0.16612342140E-01  0.10052439018E+00  0.12012318860E+00  0.51100000000E-03 0.  1.
         11    1    4    4    0    0 -0.30311246316E-02  0.64432736649E-02  0.85626092706E-02  0.11148223651E-01  0.51100000000E-03 0. -1.
</event>
<event>
 8    1  0.1112958E+005  0.1043930E+01  0.7957747E-01            NaN
         13   -1    0    0    0    0  0.00000000000E+00  0.00000000000E+00  0.74505805969E-08  0.10566000000E+00  0.10566000000E+00 0.  1.
     999900   -1    0    0    0    0 -0.00000000000E+00 -0.00000000000E+00 -0.74505805969E-08  0.93827000000E+00  0.93827000000E+00 0. -1.
     999902    2    1    2    0    0 -0.15652768315E-01  0.23331555761E-03  0.17928652232E-01  0.10201287361E+01  0.10198510372E+01 0.  0.
     999903    2    3    3    0    0 -0.11896031678E+00 -0.35175705153E-01 -0.38954172154E-01  0.13155577679E+00  0.20015186175E-01 0.  0.
         14    1    1    2    0    0  0.15652768315E-01 -0.23331555761E-03 -0.17928652232E-01  0.23801263894E-01  0.00000000000E+00 0.  1.
     999901    1    3    3    0    0  0.10330754846E+00  0.35409020710E-01  0.56882824386E-01  0.88857295932E+00  0.88000000000E+00 0.  1.
        -11    1    4    4    0    0 -0.23230374895E-01 -0.94926229324E-02 -0.11313103045E-03  0.25100480624E-01  0.51100000000E-03 0. -1.
         11    1    4    4    0    0 -0.95729941884E-01 -0.25683082220E-01 -0.38841041124E-01  0.10645529617E+00  0.51100000000E-03 0.  1.
</event>
<event>
 8    1  0.1112958E+005  0.1043930E+01  0.7957747E-01            NaN
         13   -1    0    0    0    0  0.00000000000E+00  0.00000000000E+00  0.74505805969E-08  0.10566000000E+00  0.10566000000E+00 0.  1.
     999900   -1    0    0    0    0 -0.00000000000E+00 -0.00000000000E+00 -0.74505805969E-08  0.93827000000E+00  0.93827000000E+00 0.  1.
     999902    2    1    2    0    0 -0.10666745048E-01 -0.61973438870E-02 -0.19209044432E-01  0.10211007663E+01  0.10208455325E+01 0.  0.
     999903    2    3    3    0    0  0.76174028379E-02 -0.38693752803E-02  0.12694321484E+00  0.12885628618E+00  0.20405043592E-01 0.  0.
         14    1    1    2    0    0  0.10666745048E-01  0.61973438870E-02  0.19209044432E-01  0.22829233652E-01  0.00000000000E+00 0.  1.
     999901    1    3    3    0    0 -0.18284147886E-01 -0.23279686066E-02 -0.14615225927E+00  0.89224448017E+00  0.88000000000E+00 0.  1.
        -11    1    4    4    0    0  0.62866424382E-02 -0.11193005267E-01  0.52887646867E-01  0.54425816963E-01  0.51100000000E-03 0. -1.
         11    1    4    4    0    0  0.13307603997E-02  0.73236299867E-02  0.74055567969E-01  0.74430469216E-01  0.51100000000E-03 0.  1.
</event>
<event>
 8    1  0.1112958E+005  0.1043930E+01  0.7957747E-01            NaN
         13   -1    0    0    0    0  0.00000000000E+00  0.00000000000E+00  0.74505805969E-08  0.10566000000E+00  0.10566000000E+00 0. -1.
     999900   -1    0    0    0    0 -0.00000000000E+00 -0.00000000000E+00 -0.74505805969E-08  0.93827000000E+00  0.93827000000E+00 0. -1.
     999902    2    1    2    0    0  0.75153726573E-02  0.15991483886E-01  0.15866693891E-01  0.10201821505E+01  0.10199057112E+01 0.  0.
     999903    2    3    3    0    0 -0.55360921961E-02  0.13065436402E+00  0.82117977477E-02  0.13261439853E+00  0.20443432209E-01 0.  0.
         14    1    1    2    0    0 -0.75153726573E-02 -0.15991483886E-01 -0.15866693891E-01  0.23747849546E-01  0.00000000000E+00 0. -1.
     999901    1    3    3    0    0  0.13051464853E-01 -0.11466288014E+00  0.76548961432E-02  0.88756775192E+00  0.88000000000E+00 0.  1.
        -11    1    4    4    0    0  0.29250889598E-02  0.32687481839E-01 -0.56643092424E-02  0.33307253483E-01  0.51100000000E-03 0. -1.
         11    1    4    4    0    0 -0.84611811559E-02  0.97966882185E-01  0.13876106990E-01  0.99307145049E-01  0.51100000000E-03 0.  1.
</event>
<event>
 8    1  0.1112958E+005  0.1043930E+01  0.7957747E-01            NaN
         13   -1    0    0    0    0  0.00000000000E+00  0.00000000000E+00  0.74505805969E-08  0.10566000000E+00  0.10566000000E+00 0. -1.
     999900   -1    0    0    0    0 -0.00000000000E+00 -0.00000000000E+00 -0.74505805969E-08  0.93827000000E+00  0.93827000000E+00 0. -1.
     999902    2    1    2    0    0 -0.71393998076E-02 -0.97444379053E-02  0.19687193858E-01  0.10208321494E+01  0.10205708043E+01 0.  0.
     999903    2    3    3    0    0 -0.14160815089E-01 -0.44918745136E-01 -0.11850043812E+00  0.12932648269E+00  0.21558361314E-01 0.  0.
         14    1    1    2    0    0  0.71393998076E-02  0.97444379053E-02 -0.19687193858E-01  0.23097850586E-01  0.00000000000E+00 0.  1.
     999901    1    3    3    0    0  0.70214152819E-02  0.35174307231E-01  0.13818763198E+00  0.89150566672E+00  0.88000000000E+00 0.  1.
        -11    1    4    4    0    0  0.14087949701E-02 -0.27331216643E-01 -0.51437513806E-01  0.58267135282E-01  0.51100000000E-03 0.  1.
         11    1    4    4    0    0 -0.15569610060E-01 -0.17587528493E-01 -0.67062924315E-01  0.71059347411E-01  0.51100000000E-03 0. -1.
</event>
<event>
 8    1  0.1112958E+005  0.1043930E+01  0.7957747E-01            NaN
         13   -1    0    0    0    0  0.00000000000E+00  0.00000000000E+00  0.74505805969E-08  0.10566000000E+00  0.10566000000E+00 0. -1.
     999900   -1    0    0    0    0 -0.00000000000E+00 -0.00000000000E+00 -0.74505805969E-08  0.93827000000E+00  0.93827000000E+00 0.  1.
     999902    2    1    2    0    0 -0.12025975529E-01 -0.19420869612E-01  0.47511271558E-02  0.10205983161E+01  0.10203315909E+01 0.  0.
     999903    2    3    3    0    0 -0.11438291080E-01 -0.79499224702E-01  0.10455629234E+00  0.13292110838E+00  0.16883173737E-01 0.  0.
         14    1    1    2    0    0  0.12025975529E-01  0.19420869612E-01 -0.47511271558E-02  0.23331683890E-01  0.00000000000E+00 0.  1.
     999901    1    3    3    0    0 -0.58768444919E-03  0.60078355090E-01 -0.99805165180E-01  0.88767720773E+00  0.88000000000E+00 0.  1.
        -11    1    4    4    0    0 -0.14604472625E-02 -0.38365860412E-01  0.61791233663E-01  0.72749500548E-01  0.51100000000E-03 0.  1.
         11    1    4    4    0    0 -0.99778438172E-02 -0.41133364290E-01  0.42765058673E-01  0.60171607834E-01  0.51100000000E-03 0. -1.
</event>
<event>
 8    1  0.1112958E+005  0.1043930E+01  0.7957747E-01            NaN
         13   -1    0    0    0    0  0.00000000000E+00  0.00000000000E+00  0.74505805969E-08  0.10566000000E+00  0.10566000000E+00 0. -1.
     999900   -1    0    0    0    0 -0.00000000000E+00 -0.00000000000E+00 -0.74505805969E-08  0.93827000000E+00  0.93827000000E+00 0.  1.
     999902    2    1    2    0    0 -0.11848920108E-01 -0.87559121802E-02 -0.18636530844E-01  0.10201732496E+01  0.10198966007E+01 0.  0.
     999903    2    3    3    0    0  0.11114144772E+00 -0.31116495505E-02 -0.65546478752E-01  0.13036482560E+00  0.18345111374E-01 0.  0.
         14    1    1    2    0    0  0.11848920108E-01  0.87559121802E-02  0.18636530844E-01  0.23756750362E-01  0.00000000000E+00 0. -1.
     999901    1    3    3    0    0 -0.12299036783E+00 -0.56442626297E-02  0.46909947907E-01  0.88980842404E+00  0.88000000000E+00 0. -1.
        -11    1    4    4    0    0  0.22028943842E-01 -0.20067969883E-03 -0.21997959393E-01  0.31136569779E-01  0.51100000000E-03 0. -1.
         11    1    4    4    0    0  0.89112503882E-01 -0.29109698517E-02 -0.43548519359E-01  0.99228255819E-01  0.51100000000E-03 0.  1.
</event>
<event>
 8    1  0.1112958E+005  0.1043930E+01  0.7957747E-01            NaN
         13   -1    0    0    0    0  0.00000000000E+00  0.00000000000E+00  0.74505805969E-08  0.10566000000E+00  0.10566000000E+00 0.  1.
     999900   -1    0    0    0    0 -0.00000000000E+00 -0.00000000000E+00 -0.74505805969E-08  0.93827000000E+00  0.93827000000E+00 0.  1.
     999902    2    1    2    0    0 -0.21621634584E-01 -0.93424811775E-02 -0.70679452058E-03  0.10203656923E+01  0.10200935592E+01 0.  0.
     999903    2    3    3    0    0  0.13131356725E-01  0.12675760788E+00 -0.43733925356E-02  0.12921786590E+00  0.20933385322E-01 0.  0.
         14    1    1    2    0    0  0.21621634584E-01  0.93424811775E-02  0.70679452058E-03  0.23564307652E-01  0.00000000000E+00 0. -1.
     999901    1    3    3    0    0 -0.34752991308E-01 -0.13610008905E+00  0.36665980150E-02  0.89114782645E+00  0.88000000000E+00 0.  1.
        -11    1    4    4    0    0  0.13477866952E-01  0.50553581468E-01 -0.79755558420E-02  0.52926251604E-01  0.51100000000E-03 0.  1.
         11    1    4    4    0    0 -0.34651022779E-03  0.76204026408E-01  0.36021633064E-02  0.76291614294E-01  0.51100000000E-03 0. -1.
</event>
<event>
 8    1  0.1112958E+005  0.1043930E+01  0.7957747E-01            NaN
         13   -1    0    0    0    0  0.00000000000E+00  0.00000000000E+00  0.74505805969E-08  0.10566000000E+00  0.10566000000E+00 0. -1.
     999900   -1    0    0    0    0 -0.00000000000E+00 -0.00000000000E+00 -0.74505805969E-08  0.93827000000E+00  0.93827000000E+00 0. -1.
     999902    2    1    2    0    0  0.15097282953E-01 -0.58049462674E-02 -0.12789095704E-01  0.10233099534E+01  0.10231021818E+01 0.  0.
     999903    2    3    3    0    0  0.87304218864E-01 -0.70548516598E-01 -0.73451792477E-01  0.13590613647E+00  0.21821830477E-01 0.  0.
         14    1    1    2    0    0 -0.15097282953E-01  0.58049462674E-02  0.12789095704E-01  0.20620046621E-01  0.00000000000E+00 0.  1.
     999901    1    3    3    0    0 -0.72206935911E-01  0.64743570330E-01  0.60662696773E-01  0.88740381691E+00  0.88000000000E+00 0.  1.
        -11    1    4    4    0    0  0.81072209534E-01 -0.57913325192E-01 -0.59376947648E-01  0.11598508278E+00  0.51100000000E-03 0. -1.
         11    1    4    4    0    0  0.62320093297E-02 -0.12635191406E-01 -0.14074844829E-01  0.19921053690E-01  0.51100000000E-03 0.  1.
</event>
<event>
 8    1  0.1112958E+005  0.1043930E+01  0.7957747E-01            NaN
         13   -1    0    0    0    0  0.00000000000E+00  0.00000000000E+00  0.74505805969E-08  0.10566000000E+00  0.10566000000E+00 0.  1.
     999900   -1    0    0    0    0 -0.00000000000E+00 -0.00000000000E+00 -0.74505805969E-08  0.93827000000E+00  0.93827000000E+00 0.  1.
     999902    2    1    2    0    0  0.21287075878E-01  0.87480443956E-02 -0.62356736026E-02  0.10200856819E+01  0.10198069655E+01 0.  0.
     999903    2    3    3    0    0  0.74494721547E-01  0.10819701594E+00  0.37965168673E-04  0.13286501598E+00  0.19926194622E-01 0.  0.
         14    1    1    2    0    0 -0.21287075878E-01 -0.87480443956E-02  0.62356736026E-02  0.23844318096E-01  0.00000000000E+00 0.  1.
     999901    1    3    3    0    0 -0.53207645669E-01 -0.99448971549E-01 -0.62736387713E-02  0.88722066592E+00  0.88000000000E+00 0.  1.
        -11    1    4    4    0    0  0.37911223068E-01  0.71821388913E-01 -0.18841356478E-02  0.81236591682E-01  0.51100000000E-03 0. -1.
         11    1    4    4    0    0  0.36583498479E-01  0.36375627031E-01  0.19221008164E-02  0.51628424297E-01  0.51100000000E-03 0.  1.
</event>
<event>
 8    1  0.1112958E+005  0.1043930E+01  0.7957747E-01            NaN
         13   -1    0    0    0    0  0.00000000000E+00  0.00000000000E+00  0.74505805969E-08  0.10566000000E+00  0.10566000000E+00 0.  1.
     999900   -1    0    0    0    0 -0.00000000000E+00 -0.00000000000E+00 -0.74505805969E-08  0.93827000000E+00  0.93827000000E+00 0.  1.
     999902    2    1    2    0    0 -0.89295792540E-02  0.19008239993E-01  0.11146489919E-01  0.10201540708E+01  0.10198769697E+01 0.  0.
     999903    2    3    3    0    0  0.11470660396E+00  0.59048949735E-01  0.31786358341E-02  0.13057402887E+00  0.19876866780E-01 0.  0.
         14    1    1    2    0    0  0.89295792540E-02 -0.19008239993E-01 -0.11146489919E-01  0.23775929231E-01  0.00000000000E+00 0. -1.
     999901    1    3    3    0    0 -0.12363618322E+00 -0.40040709742E-01  0.79678540846E-02  0.88958004189E+00  0.88000000000E+00 0. -1.
        -11    1    4    4    0    0  0.58815070689E-01  0.19130699497E-01  0.13599619970E-02  0.61865231116E-01  0.51100000000E-03 0.  1.
         11    1    4    4    0    0  0.55891533276E-01  0.39918250239E-01  0.18186738371E-02  0.68708797759E-01  0.51100000000E-03 0. -1.
</event>
<event>
 8    1  0.1112958E+005  0.1043930E+01  0.7957747E-01            NaN
         13   -1    0    0    0    0  0.00000000000E+00  0.00000000000E+00  0.74505805969E-08  0.10566000000E+00  0.10566000000E+00 0. -1.
     999900   -1    0    0    0    0 -0.00000000000E+00 -0.00000000000E+00 -0.74505805969E-08  0.93827000000E+00  0.93827000000E+00 0.  1.
     999902    2    1    2    0    0 -0.15242573383E-01  0.13817764322E-01  0.12128960823E-01  0.10200474050E+01  0.10197677824E+01 0.  0.
     999903    2    3    3    0    0 -0.44144847121E-01  0.11994234040E+00 -0.27583829262E-01  0.13231159249E+00  0.20262214190E-01 0.  0.
         14    1    1    2    0    0  0.15242573383E-01 -0.13817764322E-01 -0.12128960823E-01  0.23882595019E-01  0.00000000000E+00 0.  1.
     999901    1    3    3    0    0  0.28902273738E-01 -0.10612457608E+00  0.39712790085E-01  0.88773581249E+00  0.88000000000E+00 0.  1.
        -11    1    4    4    0    0 -0.35726530752E-01  0.94937564437E-01 -0.13305154492E-01  0.10230745035E+00  0.51100000000E-03 0. -1.
         11    1    4    4    0    0 -0.84183163686E-02  0.25004775962E-01 -0.14278674770E-01  0.30004142141E-01  0.51100000000E-03 0.  1.
</event>
<event>
 8    1  0.1112958E+005  0.1043930E+01  0.7957747E-01            NaN
         13   -1    0    0    0    0  0.00000000000E+00  0.00000000000E+00  0.74505805969E-08  0.10566000000E+00  0.10566000000E+00 0.  1.
     999900   -1    0    0    0    0 -0.00000000000E+00 -0.00000000000E+00 -0.74505805969E-08  0.93827000000E+00  0.93827000000E+00 0. -1.
     999902    2    1    2    0    0  0.11093296156E-01 -0.18416877040E-01 -0.88178824748E-02  0.10206921509E+01  0.10204275914E+01 0.  0.
     999903    2    3    3    0    0 -0.32506810313E-01  0.12290849963E+00 -0.58930568792E-02  0.12834558931E+00  0.16573176484E-01 0.  0.
         14    1    1    2    0    0 -0.11093296156E-01  0.18416877040E-01  0.88178824748E-02  0.23237849101E-01  0.00000000000E+00 0.  1.
     999901    1    3    3    0    0  0.43600106468E-01 -0.14132537667E+00 -0.29248255957E-02  0.89234656159E+00  0.88000000000E+00 0.  1.
        -11    1    4    4    0    0 -0.27799167159E-01  0.11829588824E+00 -0.65926811983E-02  0.12169813242E+00  0.51100000000E-03 0. -1.
         11    1    4    4    0    0 -0.47076431536E-02  0.46126113894E-02  0.69962431914E-03  0.66474568881E-02  0.51100000000E-03 0.  1.
</event>
<event>
 8    1  0.1112958E+005  0.1043930E+01  0.7957747E-01            NaN
         13   -1    0    0    0    0  0.00000000000E+00  0.00000000000E+00  0.74505805969E-08  0.10566000000E+00  0.10566000000E+00 0.  1.
     999900   -1    0    0    0    0 -0.00000000000E+00 -0.00000000000E+00 -0.74505805969E-08  0.93827000000E+00  0.93827000000E+00 0. -1.
     999902    2    1    2    0    0 -0.21671637296E-01  0.99712123945E-02 -0.52682606654E-03  0.10200686822E+01  0.10197895636E+01 0.  0.
     999903    2    3    3    0    0 -0.13632759988E-01  0.11603175223E-02 -0.12841534227E+00  0.13074437244E+00  0.20405693174E-01 0.  0.
         14    1    1    2    0    0  0.21671637296E-01 -0.99712123945E-02  0.52682606654E-03  0.23861317763E-01  0.00000000000E+00 0. -1.
     999901    1    3    3    0    0 -0.80388773076E-02  0.88108948722E-02  0.12788851620E+00  0.88932430980E+00  0.88000000000E+00 0.  1.
        -11    1    4    4    0    0 -0.15256358307E-01 -0.13574467400E-02 -0.50603260814E-01  0.52872963379E-01  0.51100000000E-03 0.  1.
         11    1    4    4    0    0  0.16235983185E-02  0.25177642623E-02 -0.77812081453E-01  0.77871409062E-01  0.51100000000E-03 0. -1.
</event>
<event>
 8    1  0.1112958E+005  0.1043930E+01  0.7957747E-01            NaN
         13   -1    0    0    0    0  0.00000000000E+00  0.00000000000E+00  0.74505805969E-08  0.10566000000E+00  0.10566000000E+00 0.  1.
     999900   -1    0    0    0    0 -0.00000000000E+00 -0.00000000000E+00 -0.74505805969E-08  0.93827000000E+00  0.93827000000E+00 0. -1.
     999902    2    1    2    0    0 -0.19479044607E-02  0.50912932720E-03  0.23943435655E-01  0.10199020651E+01  0.10196189880E+01 0.  0.
     999903    2    3    3    0    0  0.33617580734E-01  0.71992904794E-02  0.12760862950E+00  0.13307844430E+00  0.15618530579E-01 0.  0.
         14    1    1    2    0    0  0.19479044607E-02 -0.50912932720E-03 -0.23943435655E-01  0.24027934897E-01  0.00000000000E+00 0. -1.
     999901    1    3    3    0    0 -0.35565485195E-01 -0.66901611522E-02 -0.10366519385E+00  0.88682362080E+00  0.88000000000E+00 0. -1.
        -11    1    4    4    0    0  0.47067223945E-02  0.39646579662E-02  0.46515402829E-01  0.46923507646E-01  0.51100000000E-03 0. -1.
         11    1    4    4    0    0  0.28910858339E-01  0.32346325133E-02  0.81093226671E-01  0.86154936657E-01  0.51100000000E-03 0.  1.
</event>
<event>
 8    1  0.1112958E+005  0.1043930E+01  0.7957747E-01            NaN
         13   -1    0    0    0    0  0.00000000000E+00  0.00000000000E+00  0.74505805969E-08  0.10566000000E+00  0.10566000000E+00 0. -1.
     999900   -1    0    0    0    0 -0.00000000000E+00 -0.00000000000E+00 -0.74505805969E-08  0.93827000000E+00  0.93827000000E+00 0. -1.
     999902    2    1    2    0    0 -0.14251444765E-01 -0.43129912940E-02 -0.18660761303E-01  0.10200568020E+01  0.10197774020E+01 0.  0.
     999903    2    3    3    0    0 -0.12327365713E+00 -0.40641979949E-01 -0.18441696401E-01  0.13258528908E+00  0.19763543170E-01 0.  0.
         14    1    1    2    0    0  0.14251444765E-01  0.43129912940E-02  0.18660761303E-01  0.23873198030E-01  0.00000000000E+00 0. -1.
     999901    1    3    3    0    0  0.10902221236E+00  0.36328988655E-01 -0.21906490144E-03  0.88747151289E+00  0.88000000000E+00 0. -1.
        -11    1    4    4    0    0 -0.10052556851E+00 -0.29339929133E-01 -0.77064144920E-02  0.10500414902E+00  0.51100000000E-03 0. -1.
         11    1    4    4    0    0 -0.22748088611E-01 -0.11302050816E-01 -0.10735281909E-01  0.27581140056E-01  0.51100000000E-03 0.  1.
</event>
<event>
 8    1  0.1112958E+005  0.1043930E+01  0.7957747E-01            NaN
         13   -1    0    0    0    0  0.00000000000E+00  0.00000000000E+00  0.74505805969E-08  0.10566000000E+00  0.10566000000E+00 0.  1.
     999900   -1    0    0    0    0 -0.00000000000E+00 -0.00000000000E+00 -0.74505805969E-08  0.93827000000E+00  0.93827000000E+00 0.  1.
     999902    2    1    2    0    0 -0.13807670220E-01 -0.20464750215E-01  0.10298436323E-02  0.10192213307E+01  0.10189217844E+01 0.  0.
     999903    2    3    3    0    0 -0.12056433829E+00 -0.42986191327E-01  0.26058476337E-01  0.13213022272E+00  0.19894201543E-01 0.  0.
         14    1    1    2    0    0  0.13807670220E-01  0.20464750215E-01 -0.10298436323E-02  0.24708669252E-01  0.00000000000E+00 0.  1.
     999901    1    3    3    0    0  0.10675666807E+00  0.22521441111E-01 -0.25028632705E-01  0.88709110803E+00  0.88000000000E+00 0. -1.
        -11    1    4    4    0    0 -0.27589577578E-01 -0.13331579732E-02  0.44246010718E-02  0.27978568883E-01  0.51100000000E-03 0. -1.
         11    1    4    4    0    0 -0.92974760712E-01 -0.41653033353E-01  0.21633875265E-01  0.10415165384E+00  0.51100000000E-03 0.  1.
</event>
<event>
 8    1  0.1112958E+005  0.1043930E+01  0.7957747E-01            NaN
         13   -1    0    0    0    0  0.00000000000E+00  0.00000000000E+00  0.74505805969E-08  0.10566000000E+00  0.10566000000E+00 0.  1.
     999900   -1    0    0    0    0 -0.00000000000E+00 -0.00000000000E+00 -0.74505805969E-08  0.93827000000E+00  0.93827000000E+00 0. -1.
     999902    2    1    2    0    0 -0.18321026760E-01 -0.78499781224E-02  0.12075418465E-01  0.10206255389E+01  0.10203594429E+01 0.  0.
     999903    2    3    3    0    0  0.90078606699E-01 -0.88896405166E-01  0.23021679799E-01  0.13021056565E+00  0.20200678954E-01 0.  0.
         14    1    1    2    0    0  0.18321026760E-01  0.78499781224E-02 -0.12075418465E-01  0.23304461144E-01  0.00000000000E+00 0.  1.
     999901    1    3    3    0    0 -0.10839963346E+00  0.81046427044E-01 -0.10946261333E-01  0.89041497321E+00  0.88000000000E+00 0.  1.
        -11    1    4    4    0    0  0.77648534399E-01 -0.66858152671E-01  0.22444985272E-01  0.10489683483E+00  0.51100000000E-03 0. -1.
         11    1    4    4    0    0  0.12430072300E-01 -0.22038252495E-01  0.57669452677E-03  0.25313730820E-01  0.51100000000E-03 0.  1.
</event>
<event>
 8    1  0.1112958E+005  0.1043930E+01  0.7957747E-01            NaN
         13   -1    0    0    0    0  0.00000000000E+00  0.00000000000E+00  0.74505805969E-08  0.10566000000E+00  0.10566000000E+00 0. -1.
     999900   -1    0    0    0    0 -0.00000000000E+00 -0.00000000000E+00 -0.74505805969E-08  0.93827000000E+00  0.93827000000E+00 0.  1.
     999902    2    1    2    0    0 -0.71662210472E-02 -0.22572606131E-01 -0.28746167226E-02  0.10200733302E+01  0.10197943216E+01 0.  0.
     999903    2    3    3    0    0  0.39852571457E-01  0.11531925830E+00 -0.32169788048E-01  0.12761428904E+00  0.19072302348E-01 0.  0.
         14    1    1    2    0    0  0.71662210472E-02  0.22572606131E-01  0.28746167226E-02  0.23856669779E-01  0.00000000000E+00 0. -1.
     999901    1    3    3    0    0 -0.47018792504E-01 -0.13789186443E+00  0.29295171326E-01  0.89245904118E+00  0.88000000000E+00 0. -1.
        -11    1    4    4    0    0  0.80235678096E-02  0.32441774249E-01 -0.73028198673E-03  0.33431135033E-01  0.51100000000E-03 0. -1.
         11    1    4    4    0    0  0.31829003648E-01  0.82877484053E-01 -0.31439506062E-01  0.94183154006E-01  0.51100000000E-03 0.  1.
</event>
<event>
 8    1  0.1112958E+005  0.1043930E+01  0.7957747E-01            NaN
         13   -1    0    0    0    0  0.00000000000E+00  0.00000000000E+00  0.74505805969E-08  0.10566000000E+00  0.10566000000E+00 0.  1.
     999900   -1    0    0    0    0 -0.00000000000E+00 -0.00000000000E+00 -0.74505805969E-08  0.93827000000E+00  0.93827000000E+00 0.  1.
     999902    2    1    2    0    0 -0.20678176877E-01  0.27822689629E-02 -0.94007660028E-02  0.10210454545E+01  0.10207889683E+01 0.  0.
     999903    2    3    3    0    0  0.80994777917E-02  0.12566232002E+00  0.23477261085E-01  0.13143395224E+00  0.29446252758E-01 0.  0.
         14    1    1    2    0    0  0.20678176877E-01 -0.27822689629E-02  0.94007660028E-02  0.22884545462E-01  0.00000000000E+00 0.  1.
     999901    1    3    3    0    0 -0.28777654669E-01 -0.12288005105E+00 -0.32878027088E-01  0.88961150230E+00  0.88000000000E+00 0. -1.
        -11    1    4    4    0    0 -0.10796248890E-01  0.40790207976E-01  0.10848009252E-01  0.43569949306E-01  0.51100000000E-03 0.  1.
         11    1    4    4    0    0  0.18895726682E-01  0.84872112039E-01  0.12629251833E-01  0.87864002934E-01  0.51100000000E-03 0. -1.
</event>
<event>
 8    1  0.1112958E+005  0.1043930E+01  0.7957747E-01            NaN
         13   -1    0    0    0    0  0.00000000000E+00  0.00000000000E+00  0.74505805969E-08  0.10566000000E+00  0.10566000000E+00 0. -1.
     999900   -1    0    0    0    0 -0.00000000000E+00 -0.00000000000E+00 -0.74505805969E-08  0.93827000000E+00  0.93827000000E+00 0.  1.
     999902    2    1    2    0    0 -0.22778506976E-01  0.65168047483E-02 -0.17660204328E-02  0.10201718866E+01  0.10198952055E+01 0.  0.
     999903    2    3    3    0    0  0.12152817941E+00  0.17900662405E-01 -0.31640961981E-01  0.12784541939E+00  0.15930118586E-01 0.  0.
         14    1    1    2    0    0  0.22778506976E-01 -0.65168047483E-02  0.17660204328E-02  0.23758113400E-01  0.00000000000E+00 0.  1.
     999901    1    3    3    0    0 -0.14430668639E+00 -0.11383857657E-01  0.29874941549E-01  0.89232646721E+00  0.88000000000E+00 0.  1.
        -11    1    4    4    0    0  0.46981029001E-01  0.14005776780E-02 -0.17719005107E-01  0.50233484518E-01  0.51100000000E-03 0. -1.
         11    1    4    4    0    0  0.74547150410E-01  0.16500084727E-01 -0.13921956875E-01  0.77611934872E-01  0.51100000000E-03 0.  1.
</event>
<event>
 8    1  0.1112958E+005  0.1043930E+01  0.7957747E-01            NaN
         13   -1    0    0    0    0  0.00000000000E+00  0.00000000000E+00  0.74505805969E-08  0.10566000000E+00  0.10566000000E+00 0.  1.
     999900   -1    0    0    0    0 -0.00000000000E+00 -0.00000000000E+00 -0.74505805969E-08  0.93827000000E+00  0.93827000000E+00 0. -1.
     999902    2    1    2    0    0 -0.53247591882E-02  0.15077736316E-01 -0.18841097451E-01  0.10192180971E+01  0.10189184714E+01 0.  0.
     999903    2    3    3    0    0 -0.51090382696E-01 -0.99931644832E-01  0.56667380813E-01  0.12735309589E+00  0.20274568866E-01 0.  0.
         14    1    1    2    0    0  0.53247591882E-02 -0.15077736316E-01  0.18841097451E-01  0.24711902922E-01  0.00000000000E+00 0.  1.
     999901    1    3    3    0    0  0.45765623508E-01  0.11500938115E+00 -0.75508478265E-01  0.89186500118E+00  0.88000000000E+00 0. -1.
        -11    1    4    4    0    0 -0.43183385286E-02 -0.23505341876E-01  0.70173611433E-02  0.24912920800E-01  0.51100000000E-03 0. -1.
         11    1    4    4    0    0 -0.46772044168E-01 -0.76426302956E-01  0.49650019670E-01  0.10244017509E+00  0.51100000000E-03 0.  1.
</event>
<event>
 8    1  0.1112958E+005  0.1043930E+01  0.7957747E-01            NaN
         13   -1    0    0    0    0  0.00000000000E+00  0.00000000000E+00  0.74505805969E-08  0.10566000000E+00  0.10566000000E+00 0.  1.
     999900   -1    0    0    0    0 -0.00000000000E+00 -0.00000000000E+00 -0.74505805969E-08  0.93827000000E+00  0.93827000000E+00 0. -1.
     999902    2    1    2    0    0 -0.14919361179E-02  0.17143921432E-01 -0.15817679499E-01  0.10205561064E+01  0.10202884041E+01 0.  0.
     999903    2    3    3    0    0  0.12202210210E+00 -0.67939151120E-02 -0.43176747533E-01  0.13118708502E+00  0.20255099755E-01 0.  0.
         14    1    1    2    0    0  0.14919361179E-02 -0.17143921432E-01  0.15817679499E-01  0.23373893560E-01  0.00000000000E+00 0.  1.
     999901    1    3    3    0    0 -0.12351403822E+00  0.23937836544E-01  0.27359068034E-01  0.88936902142E+00  0.88000000000E+00 0.  1.
        -11    1    4    4    0    0  0.76728121811E-01 -0.57742786226E-02 -0.16797348373E-01  0.78758866190E-01  0.51100000000E-03 0.  1.
         11    1    4    4    0    0  0.45293980287E-01 -0.10196364894E-02 -0.26379399160E-01  0.52428218831E-01  0.51100000000E-03 0. -1.
</event>
<event>
 8    1  0.1112958E+005  0.1043930E+01  0.7957747E-01            NaN
         13   -1    0    0    0    0  0.00000000000E+00  0.00000000000E+00  0.74505805969E-08  0.10566000000E+00  0.10566000000E+00 0. -1.
     999900   -1    0    0    0    0 -0.00000000000E+00 -0.00000000000E+00 -0.74505805969E-08  0.93827000000E+00  0.93827000000E+00 0. -1.
     999902    2    1    2    0    0 -0.89422629483E-02  0.11089743577E-01  0.19282967027E-01  0.10199554448E+01  0.10196736390E+01 0.  0.
     999903    2    3    3    0    0  0.10556483148E+00 -0.69884052288E-01 -0.78384953969E-02  0.12843752350E+00  0.20175257724E-01 0.  0.
         14    1    1    2    0    0  0.89422629483E-02 -0.11089743577E-01 -0.19282967027E-01  0.23974555191E-01  0.00000000000E+00 0.  1.
     999901    1    3    3    0    0 -0.11450709442E+00  0.80973795865E-01  0.27121462424E-01  0.89151792131E+00  0.88000000000E+00 0.  1.
        -11    1    4    4    0    0  0.70045540375E-01 -0.35567471603E-01 -0.93193381932E-03  0.78565592878E-01  0.51100000000E-03 0.  1.
         11    1    4    4    0    0  0.35519291101E-01 -0.34316580685E-01 -0.69065615776E-02  0.49871930623E-01  0.51100000000E-03 0. -1.
</event>
<event>
 8    1  0.1112958E+005  0.1043930E+01  0.7957747E-01            NaN
         13   -1    0    0    0    0  0.00000000000E+00  0.00000000000E+00  0.74505805969E-08  0.10566000000E+00  0.10566000000E+00 0. -1.
     999900   -1    0    0    0    0 -0.00000000000E+00 -0.00000000000E+00 -0.74505805969E-08  0.93827000000E+00  0.93827000000E+00 0. -1.
     999902    2    1    2    0    0  0.22997353883E-01  0.59102327658E-02 -0.95733379605E-02  0.10183280872E+01  0.10180062059E+01 0.  0.
     999903    2    3    3    0    0  0.74878294996E-02 -0.59952626096E-01 -0.11320006619E+00  0.12966788203E+00  0.18684744575E-01 0.  0.
         14    1    1    2    0    0 -0.22997353883E-01 -0.59102327658E-02  0.95733379605E-02  0.25601912754E-01  0.00000000000E+00 0.  1.
     999901    1    3    3    0    0  0.15509524383E-01  0.65862858862E-01  0.10362672823E+00  0.88866020521E+00  0.88000000000E+00 0.  1.
        -11    1    4    4    0    0  0.67192100765E-02 -0.13447886142E-01 -0.16285572000E-01  0.22169221955E-01  0.51100000000E-03 0. -1.
         11    1    4    4    0    0  0.76861942304E-03 -0.46504739954E-01 -0.96914494188E-01  0.10749866008E+00  0.51100000000E-03 0.  1.
</event>
<event>
 8    1  0.1112958E+005  0.1043930E+01  0.7957747E-01            NaN
         13   -1    0    0    0    0  0.00000000000E+00  0.00000000000E+00  0.74505805969E-08  0.10566000000E+00  0.10566000000E+00 0.  1.
     999900   -1    0    0    0    0 -0.00000000000E+00 -0.00000000000E+00 -0.74505805969E-08  0.93827000000E+00  0.93827000000E+00 0. -1.
     999902    2    1    2    0    0 -0.12970424609E-01 -0.27754978334E-01  0.71534650618E-02  0.10124698220E+01  0.10119809275E+01 0.  0.
     999903    2    3    3    0    0  0.11531968603E+00 -0.34712832844E-01 -0.14521971618E-01  0.12287632564E+00  0.19598290590E-01 0.  0.
         14    1    1    2    0    0  0.12970424609E-01  0.27754978334E-01 -0.71534650618E-02  0.31460177991E-01  0.00000000000E+00 0.  1.
     999901    1    3    3    0    0 -0.12829011063E+00  0.69578545100E-02  0.21675436679E-01  0.88959349637E+00  0.88000000000E+00 0. -1.
        -11    1    4    4    0    0  0.53720006901E-01 -0.10707291355E-01 -0.14870193256E-01  0.56761509829E-01  0.51100000000E-03 0. -1.
         11    1    4    4    0    0  0.61599679125E-01 -0.24005541489E-01  0.34822163810E-03  0.66114815811E-01  0.51100000000E-03 0.  1.
</event>
<event>
 8    1  0.1112958E+005  0.1043930E+01  0.7957747E-01            NaN
         13   -1    0    0    0    0  0.00000000000E+00  0.00000000000E+00  0.74505805969E-08  0.10566000000E+00  0.10566000000E+00 0.  1.
     999900   -1    0    0    0    0 -0.00000000000E+00 -0.00000000000E+00 -0.74505805969E-08  0.93827000000E+00  0.93827000000E+00 0.  1.
     999902    2    1    2    0    0  0.60085886687E-02  0.23528024576E-01 -0.13887539516E-02  0.10196071771E+01  0.10193170242E+01 0.  0.
     999903    2    3    3    0    0 -0.12659552797E+00  0.37224447791E-02 -0.16994488174E-01  0.12931528578E+00  0.19832957652E-01 0.  0.
         14    1    1    2    0    0 -0.60085886687E-02 -0.23528024576E-01  0.13887539516E-02  0.24322822940E-01  0.00000000000E+00 0. -1.
     999901    1    3    3    0    0  0.13260411664E+00  0.19805579796E-01  0.15605734222E-01  0.89029189128E+00  0.88000000000E+00 0. -1.
        -11    1    4    4    0    0 -0.39946707995E-01  0.77537622230E-02 -0.11998800741E-01  0.42427498730E-01  0.51100000000E-03 0.  1.
         11    1    4    4    0    0 -0.86648819980E-01 -0.40313174439E-02 -0.49956874331E-02  0.86887787048E-01  0.51100000000E-03 0. -1.
</event>
<event>
 8    1  0.1112958E+005  0.1043930E+01  0.7957747E-01            NaN
         13   -1    0    0    0    0  0.00000000000E+00  0.00000000000E+00  0.74505805969E-08  0.10566000000E+00  0.10566000000E+00 0. -1.
     999900   -1    0    0    0    0 -0.00000000000E+00 -0.00000000000E+00 -0.74505805969E-08  0.93827000000E+00  0.93827000000E+00 0. -1.
     999902    2    1    2    0    0  0.75571503588E-02 -0.70308662803E-02 -0.23534273234E-02  0.10333431108E+01  0.10332888766E+01 0.  0.
     999903    2    3    3    0    0  0.15453025093E-01 -0.10735911102E+00  0.90988688638E-01  0.14270241327E+00  0.17895881916E-01 0.  0.
         14    1    1    2    0    0 -0.75571503588E-02  0.70308662803E-02  0.23534273234E-02  0.10586889173E-01  0.00000000000E+00 0. -1.
     999901    1    3    3    0    0 -0.78958747337E-02  0.10032824474E+00 -0.93342115961E-01  0.89064069756E+00  0.88000000000E+00 0. -1.
        -11    1    4    4    0    0  0.99472420839E-02 -0.37051585891E-01  0.41676595293E-01  0.56647748043E-01  0.51100000000E-03 0.  1.
         11    1    4    4    0    0  0.55057830086E-02 -0.70307525130E-01  0.49312093345E-01  0.86054665228E-01  0.51100000000E-03 0. -1.
</event>
<event>
 8    1  0.1112958E+005  0.1043930E+01  0.7957747E-01            NaN
         13   -1    0    0    0    0  0.00000000000E+00  0.00000000000E+00  0.74505805969E-08  0.10566000000E+00  0.10566000000E+00 0. -1.
     999900   -1    0    0    0    0 -0.00000000000E+00 -0.00000000000E+00 -0.74505805969E-08  0.93827000000E+00  0.93827000000E+00 0.  1.
     999902    2    1    2    0    0  0.52341117822E-02  0.77932946179E-02 -0.17195439007E-01  0.10243388160E+01  0.10241514515E+01 0.  0.
     999903    2    3    3    0    0 -0.12972626598E+00  0.21632752776E-01 -0.16069338172E-01  0.13394165617E+00  0.19628131593E-01 0.  0.
         14    1    1    2    0    0 -0.52341117822E-02 -0.77932946179E-02  0.17195439007E-01  0.19591183981E-01  0.00000000000E+00 0. -1.
     999901    1    3    3    0    0  0.13496037776E+00 -0.13839458158E-01 -0.11261008354E-02  0.89039715985E+00  0.88000000000E+00 0.  1.
        -11    1    4    4    0    0 -0.11920403446E+00  0.24717184652E-01 -0.17015412651E-01  0.12292406777E+00  0.51100000000E-03 0.  1.
         11    1    4    4    0    0 -0.10522231523E-01 -0.30844318761E-02  0.94607447905E-03  0.11017588400E-01  0.51100000000E-03 0. -1.
</event>
<event>
 8    1  0.1112958E+005  0.1043930E+01  0.7957747E-01            NaN
         13   -1    0    0    0    0  0.00000000000E+00  0.00000000000E+00  0.74505805969E-08  0.10566000000E+00  0.10566000000E+00 0. -1.
     999900   -1    0    0    0    0 -0.00000000000E+00 -0.00000000000E+00 -0.74505805969E-08  0.93827000000E+00  0.93827000000E+00 0.  1.
     999902    2    1    2    0    0  0.78188996354E-02  0.20254509795E-01  0.83099571388E-02  0.10206827260E+01  0.10204179494E+01 0.  0.
     999903    2    3    3    0    0 -0.42508746117E-01  0.12435750652E+00 -0.20506347982E-02  0.13305800370E+00  0.20698896636E-01 0.  0.
         14    1    1    2    0    0 -0.78188996354E-02 -0.20254509795E-01 -0.83099571388E-02  0.23247273952E-01  0.00000000000E+00 0. -1.
     999901    1    3    3    0    0  0.50327645753E-01 -0.10410299672E+00  0.10360591937E-01  0.88762472235E+00  0.88000000000E+00 0. -1.
        -11    1    4    4    0    0 -0.31000495862E-01  0.92364492080E-01 -0.10576208857E-01  0.98001772717E-01  0.51100000000E-03 0.  1.
         11    1    4    4    0    0 -0.11508250256E-01  0.31993014440E-01  0.85255740587E-02  0.35056230986E-01  0.51100000000E-03 0. -1.
</event>
<event>
 8    1  0.1112958E+005  0.1043930E+01  0.7957747E-01            NaN
         13   -1    0    0    0    0  0.00000000000E+00  0.00000000000E+00  0.74505805969E-08  0.10566000000E+00  0.10566000000E+00 0.  1.
     999900   -1    0    0    0    0 -0.00000000000E+00 -0.00000000000E+00 -0.74505805969E-08  0.93827000000E+00  0.93827000000E+00 0.  1.
     999902    2    1    2    0    0  0.20908169595E-02  0.17009997523E-01  0.18340592035E-01  0.10188284294E+01  0.10185191602E+01 0.  0.
     999903    2    3    3    0    0  0.11147608549E+00  0.18059709739E-01 -0.58712225530E-01  0.12871418078E+00  0.19161006090E-01 0.  0.
         14    1    1    2    0    0 -0.20908169595E-02 -0.17009997523E-01 -0.18340592035E-01  0.25101570618E-01  0.00000000000E+00 0. -1.
     999901    1    3    3    0    0 -0.10938526853E+00 -0.10497122154E-02  0.77052817565E-01  0.89011424860E+00  0.88000000000E+00 0. -1.
        -11    1    4    4    0    0  0.48615329041E-01  0.26434546757E-02 -0.16365371201E-01  0.51366570510E-01  0.51100000000E-03 0. -1.
         11    1    4    4    0    0  0.62860756453E-01  0.15416255063E-01 -0.42346854329E-01  0.77347610271E-01  0.51100000000E-03 0.  1.
</event>
<event>
 8    1  0.1112958E+005  0.1043930E+01  0.7957747E-01            NaN
         13   -1    0    0    0    0  0.00000000000E+00  0.00000000000E+00  0.74505805969E-08  0.10566000000E+00  0.10566000000E+00 0. -1.
     999900   -1    0    0    0    0 -0.00000000000E+00 -0.00000000000E+00 -0.74505805969E-08  0.93827000000E+00  0.93827000000E+00 0.  1.
     999902    2    1    2    0    0 -0.16596767036E-01  0.18080960906E-01 -0.54350599455E-02  0.10187921063E+01  0.10184819302E+01 0.  0.
     999903    2    3    3    0    0 -0.97293503278E-01 -0.72026867991E-01  0.41273314506E-01  0.12929052883E+00  0.18938290896E-01 0.  0.
         14    1    1    2    0    0  0.16596767036E-01 -0.18080960906E-01  0.54350599455E-02  0.25137893705E-01  0.00000000000E+00 0. -1.
     999901    1    3    3    0    0  0.80696736242E-01  0.90107828897E-01 -0.46708374452E-01  0.88950157746E+00  0.88000000000E+00 0.  1.
        -11    1    4    4    0    0 -0.49188312113E-01 -0.43646027934E-01  0.14465179279E-01  0.67334748351E-01  0.51100000000E-03 0. -1.
         11    1    4    4    0    0 -0.48105191165E-01 -0.28380840057E-01  0.26808135228E-01  0.61955780479E-01  0.51100000000E-03 0.  1.
</event>
<event>
 8    1  0.1112958E+005  0.1043930E+01  0.7957747E-01            NaN
         13   -1    0    0    0    0  0.00000000000E+00  0.00000000000E+00  0.74505805969E-08  0.10566000000E+00  0.10566000000E+00 0.  1.
     999900   -1    0    0    0    0 -0.00000000000E+00 -0.00000000000E+00 -0.74505805969E-08  0.93827000000E+00  0.93827000000E+00 0. -1.
     999902    2    1    2    0    0 -0.21155696131E-01 -0.10625630525E-01  0.30346755183E-02  0.10200620977E+01  0.10197828232E+01 0.  0.
     999903    2    3    3    0    0  0.46339222331E-01 -0.68654831995E-01  0.98742775931E-01  0.13040879857E+00  0.19887419711E-01 0.  0.
         14    1    1    2    0    0  0.21155696131E-01  0.10625630525E-01 -0.30346755183E-02  0.23867902261E-01  0.00000000000E+00 0.  1.
     999901    1    3    3    0    0 -0.67494918462E-01  0.58029201470E-01 -0.95708100412E-01  0.88965329917E+00  0.88000000000E+00 0. -1.
        -11    1    4    4    0    0  0.27535638015E-01 -0.54939843414E-01  0.65409011038E-01  0.89750752650E-01  0.51100000000E-03 0.  1.
         11    1    4    4    0    0  0.18803584316E-01 -0.13714988581E-01  0.33333764892E-01  0.40658045917E-01  0.51100000000E-03 0. -1.
</event>
<event>
 8    1  0.1112958E+005  0.1043930E+01  0.7957747E-01            NaN
         13   -1    0    0    0    0  0.00000000000E+00  0.00000000000E+00  0.74505805969E-08  0.10566000000E+00  0.10566000000E+00 0.  1.
     999900   -1    0    0    0    0 -0.00000000000E+00 -0.00000000000E+00 -0.74505805969E-08  0.93827000000E+00  0.93827000000E+00 0. -1.
     999902    2    1    2    0    0 -0.19994758243E-01 -0.75080160910E-02 -0.93445510820E-02  0.10206173147E+01  0.10203510287E+01 0.  0.
     999903    2    3    3    0    0 -0.37669292171E-01 -0.10940840226E+00 -0.62298944247E-01  0.13297986299E+00  0.20330062673E-01 0.  0.
         14    1    1    2    0    0  0.19994758243E-01  0.75080160910E-02  0.93445510820E-02  0.23312685340E-01  0.00000000000E+00 0. -1.
     999901    1    3    3    0    0  0.17674533928E-01  0.10190038617E+00  0.52954393165E-01  0.88763745167E+00  0.88000000000E+00 0.  1.
        -11    1    4    4    0    0 -0.24212543432E-01 -0.42752848830E-01 -0.21128665846E-01  0.53485839098E-01  0.51100000000E-03 0.  1.
         11    1    4    4    0    0 -0.13456748739E-01 -0.66655553433E-01 -0.41170278401E-01  0.79494023892E-01  0.51100000000E-03 0. -1.
</event>
<event>
 8    1  0.1112958E+005  0.1043930E+01  0.7957747E-01            NaN
         13   -1    0    0    0    0  0.00000000000E+00  0.00000000000E+00  0.74505805969E-08  0.10566000000E+00  0.10566000000E+00 0. -1.
     999900   -1    0    0    0    0 -0.00000000000E+00 -0.00000000000E+00 -0.74505805969E-08  0.93827000000E+00  0.93827000000E+00 0.  1.
     999902    2    1    2    0    0  0.20722930810E-01  0.10723290014E-01 -0.15964457371E-02  0.10205424510E+01  0.10202744321E+01 0.  0.
     999903    2    3    3    0    0 -0.11843967249E+00 -0.38840492085E-01  0.21386004435E-01  0.12793335867E+00  0.19314327073E-01 0.  0.
         14    1    1    2    0    0 -0.20722930810E-01 -0.10723290014E-01  0.15964457371E-02  0.23387549018E-01  0.00000000000E+00 0.  1.
     999901    1    3    3    0    0  0.13916260330E+00  0.49563782099E-01 -0.22982450172E-01  0.89260909231E+00  0.88000000000E+00 0. -1.
        -11    1    4    4    0    0 -0.52850115450E-01 -0.27421200294E-01  0.10994402813E-01  0.60549111826E-01  0.51100000000E-03 0. -1.
         11    1    4    4    0    0 -0.65589557043E-01 -0.11419291791E-01  0.10391601622E-01  0.67384246849E-01  0.51100000000E-03 0.  1.
</event>
<event>
 8    1  0.1112958E+005  0.1043930E+01  0.7957747E-01            NaN
         13   -1    0    0    0    0  0.00000000000E+00  0.00000000000E+00  0.74505805969E-08  0.10566000000E+00  0.10566000000E+00 0. -1.
     999900   -1    0    0    0    0 -0.00000000000E+00 -0.00000000000E+00 -0.74505805969E-08  0.93827000000E+00  0.93827000000E+00 0. -1.
     999902    2    1    2    0    0 -0.20183526806E-01  0.49679723036E-02 -0.11636049262E-01  0.10201087249E+01  0.10198305534E+01 0.  0.
     999903    2    3    3    0    0 -0.71921574539E-01  0.80381683708E-01 -0.75085980240E-01  0.13309691713E+00  0.21046542732E-01 0.  0.
         14    1    1    2    0    0  0.20183526806E-01 -0.49679723036E-02  0.11636049262E-01  0.23821275061E-01  0.00000000000E+00 0. -1.
     999901    1    3    3    0    0  0.51738047733E-01 -0.75413711404E-01  0.63449930979E-01  0.88701180781E+00  0.88000000000E+00 0.  1.
        -11    1    4    4    0    0 -0.99820265275E-02  0.50242010598E-02 -0.14316739811E-01  0.18169028860E-01  0.51100000000E-03 0.  1.
         11    1    4    4    0    0 -0.61939548011E-01  0.75357482648E-01 -0.60769240429E-01  0.11492788827E+00  0.51100000000E-03 0. -1.
</event>
<event>
 8    1  0.1112958E+005  0.1043930E+01  0.7957747E-01            NaN
         13   -1    0    0    0    0  0.00000000000E+00  0.00000000000E+00  0.74505805969E-08  0.10566000000E+00  0.10566000000E+00 0. -1.
     999900   -1    0    0    0    0 -0.00000000000E+00 -0.00000000000E+00 -0.74505805969E-08  0.93827000000E+00  0.93827000000E+00 0.  1.
     999902    2    1    2    0    0 -0.91057022844E-02  0.20997606968E-01 -0.60048480201E-02  0.10202683958E+01  0.10199939843E+01 0.  0.
     999903    2    3    3    0    0  0.11898125829E+00 -0.44465724377E-01 -0.24593563845E-02  0.12858219108E+00  0.19839127000E-01 0.  0.
         14    1    1    2    0    0  0.91057022844E-02 -0.20997606968E-01  0.60048480201E-02  0.23661604176E-01  0.00000000000E+00 0. -1.
     999901    1    3    3    0    0 -0.12808696058E+00  0.65463331344E-01 -0.35454916356E-02  0.89168620474E+00  0.88000000000E+00 0. -1.
        -11    1    4    4    0    0  0.11219035089E+00 -0.46427182939E-01 -0.14759429541E-02  0.12142733497E+00  0.51100000000E-03 0.  1.
         11    1    4    4    0    0  0.67909073990E-02  0.19614585626E-02 -0.98341343045E-03  0.71548561111E-02  0.51100000000E-03 0. -1.
</event>
<event>
 8    1  0.1112958E+005  0.1043930E+01  0.7957747E-01            NaN
         13   -1    0    0    0    0  0.00000000000E+00  0.00000000000E+00  0.74505805969E-08  0.10566000000E+00  0.10566000000E+00 0.  1.
     999900   -1    0    0    0    0 -0.00000000000E+00 -0.00000000000E+00 -0.74505805969E-08  0.93827000000E+00  0.93827000000E+00 0.  1.
     999902    2    1    2    0    0 -0.24370764714E-01  0.54076659204E-03  0.76696740114E-02  0.10183751472E+01  0.10180544632E+01 0.  0.
     999903    2    3    3    0    0  0.67000196101E-01  0.87174116893E-02 -0.10500360856E+00  0.12646103778E+00  0.20040377310E-01 0.  0.
         14    1    1    2    0    0  0.24370764714E-01 -0.54076659204E-03 -0.76696740114E-02  0.25554852781E-01  0.00000000000E+00 0.  1.
     999901    1    3    3    0    0 -0.91370960814E-01 -0.81766450973E-02  0.11267328257E+00  0.89191410944E+00  0.88000000000E+00 0. -1.
        -11    1    4    4    0    0  0.47023620673E-01  0.47868588511E-02 -0.88157304157E-01  0.10003052692E+00  0.51100000000E-03 0. -1.
         11    1    4    4    0    0  0.19976575428E-01  0.39305528382E-02 -0.16846304401E-01  0.26430510862E-01  0.51100000000E-03 0.  1.
</event>
<event>
 8    1  0.1112958E+005  0.1043930E+01  0.7957747E-01            NaN
         13   -1    0    0    0    0  0.00000000000E+00  0.00000000000E+00  0.74505805969E-08  0.10566000000E+00  0.10566000000E+00 0.  1.
     999900   -1    0    0    0    0 -0.00000000000E+00 -0.00000000000E+00 -0.74505805969E-08  0.93827000000E+00  0.93827000000E+00 0. -1.
     999902    2    1    2    0    0 -0.67462143265E-02  0.45040191587E-02  0.22902889559E-01  0.10196330877E+01  0.10193435602E+01 0.  0.
     999903    2    3    3    0    0 -0.12164623701E+00 -0.19269569862E-01 -0.33048256413E-01  0.13008391567E+00  0.25700477890E-01 0.  0.
         14    1    1    2    0    0  0.67462143265E-02 -0.45040191587E-02 -0.22902889559E-01  0.24296912282E-01  0.00000000000E+00 0. -1.
     999901    1    3    3    0    0  0.11490002268E+00  0.23773589020E-01  0.55951145972E-01  0.88954917204E+00  0.88000000000E+00 0. -1.
        -11    1    4    4    0    0 -0.40121414737E-01  0.51183772909E-02 -0.66908195792E-02  0.40999437730E-01  0.51100000000E-03 0.  1.
         11    1    4    4    0    0 -0.81524822274E-01 -0.24387947153E-01 -0.26357436834E-01  0.89084477944E-01  0.51100000000E-03 0. -1.
</event>
<event>
 8    1  0.1112958E+005  0.1043930E+01  0.7957747E-01            NaN
         13   -1    0    0    0    0  0.00000000000E+00  0.00000000000E+00  0.74505805969E-08  0.10566000000E+00  0.10566000000E+00 0.  1.
     999900   -1    0    0    0    0 -0.00000000000E+00 -0.00000000000E+00 -0.74505805969E-08  0.93827000000E+00  0.93827000000E+00 0.  1.
     999902    2    1    2    0    0  0.18965998229E-01  0.97763261936E-02 -0.10960900246E-01  0.10199419410E+01  0.10196598138E+01 0.  0.
     999903    2    3    3    0    0 -0.34573736078E-01 -0.10689100649E+00  0.58225222021E-01  0.12794166675E+00  0.18917270308E-01 0.  0.
         14    1    1    2    0    0 -0.18965998229E-01 -0.97763261936E-02  0.10960900246E-01  0.23988059047E-01  0.00000000000E+00 0. -1.
     999901    1    3    3    0    0  0.53539734307E-01  0.11666733269E+00 -0.69186122267E-01  0.89200027420E+00  0.88000000000E+00 0. -1.
        -11    1    4    4    0    0 -0.15494408980E-01 -0.71003206337E-01  0.30953635963E-01  0.78993168819E-01  0.51100000000E-03 0. -1.
         11    1    4    4    0    0 -0.19079327097E-01 -0.35887800155E-01  0.27271586058E-01  0.48948497930E-01  0.51100000000E-03 0.  1.
</event>
<event>
 8    1  0.1112958E+005  0.1043930E+01  0.7957747E-01            NaN
         13   -1    0    0    0    0  0.00000000000E+00  0.00000000000E+00  0.74505805969E-08  0.10566000000E+00  0.10566000000E+00 0. -1.
     999900   -1    0    0    0    0 -0.00000000000E+00 -0.00000000000E+00 -0.74505805969E-08  0.93827000000E+00  0.93827000000E+00 0. -1.
     999902    2    1    2    0    0 -0.10944541794E-01 -0.13356804132E-01  0.14445176241E-01  0.10214166633E+01  0.10211685217E+01 0.  0.
     999903    2    3    3    0    0 -0.15388592300E-01 -0.85236983346E-01  0.10077671382E+00  0.13426411492E+00  0.19202979057E-01 0.  0.
         14    1    1    2    0    0  0.10944541794E-01  0.13356804132E-01 -0.14445176241E-01  0.22513336677E-01  0.00000000000E+00 0. -1.
     999901    1    3    3    0    0  0.44440505063E-02  0.71880179214E-01 -0.86331537582E-01  0.88715254840E+00  0.88000000000E+00 0. -1.
        -11    1    4    4    0    0  0.41624031349E-02 -0.19583400970E-01  0.19273816919E-01  0.27795257384E-01  0.51100000000E-03 0.  1.
         11    1    4    4    0    0 -0.19550995435E-01 -0.65653582376E-01  0.81502896904E-01  0.10646885754E+00  0.51100000000E-03 0. -1.
</event>
<event>
 8    1  0.1112958E+005  0.1043930E+01  0.7957747E-01            NaN
         13   -1    0    0    0    0  0.00000000000E+00  0.00000000000E+00  0.74505805969E-08  0.10566000000E+00  0.10566000000E+00 0. -1.
     999900   -1    0    0    0    0 -0.00000000000E+00 -0.00000000000E+00 -0.74505805969E-08  0.93827000000E+00  0.93827000000E+00 0. -1.
     999902    2    1    2    0    0 -0.52170016037E-02  0.18800869051E-01  0.11517228701E-01  0.10212730730E+01  0.10210217203E+01 0.  0.
     999903    2    3    3    0    0  0.18868436723E-01  0.12875455050E+00  0.25797589557E-01  0.13398853631E+00  0.18805851626E-01 0.  0.
         14    1    1    2    0    0  0.52170016037E-02 -0.18800869051E-01 -0.11517228701E-01  0.22656926971E-01  0.00000000000E+00 0. -1.
     999901    1    3    3    0    0 -0.24085438327E-01 -0.10995368145E+00 -0.14280360856E-01  0.88728453672E+00  0.88000000000E+00 0. -1.
        -11    1    4    4    0    0 -0.11405941304E-02  0.19431205880E-01  0.94800800723E-02  0.21656540724E-01  0.51100000000E-03 0. -1.
         11    1    4    4    0    0  0.20009030854E-01  0.10932334462E+00  0.16317509484E-01  0.11233199558E+00  0.51100000000E-03 0.  1.
</event>
<event>
 8    1  0.1112958E+005  0.1043930E+01  0.7957747E-01            NaN
         13   -1    0    0    0    0  0.00000000000E+00  0.00000000000E+00  0.74505805969E-08  0.10566000000E+00  0.10566000000E+00 0.  1.
     999900   -1    0    0    0    0 -0.00000000000E+00 -0.00000000000E+00 -0.74505805969E-08  0.93827000000E+00  0.93827000000E+00 0.  1.
     999902    2    1    2    0    0 -0.21226514775E-01  0.10146138512E-01  0.76872750932E-02  0.10191791767E+01  0.10188785948E+01 0.  0.
     999903    2    3    3    0    0 -0.10989503031E+00  0.18604063666E-02 -0.66114502738E-01  0.13161089120E+00  0.29494413190E-01 0.  0.
         14    1    1    2    0    0  0.21226514775E-01 -0.10146138512E-01 -0.76872750932E-02  0.24750823310E-01  0.00000000000E+00 0. -1.
     999901    1    3    3    0    0  0.88668515539E-01  0.82857321450E-02  0.73801777831E-01  0.88756828549E+00  0.88000000000E+00 0.  1.
        -11    1    4    4    0    0 -0.91469889868E-01 -0.89930347451E-02 -0.48633111492E-01  0.10398584558E+00  0.51100000000E-03 0. -1.
         11    1    4    4    0    0 -0.18425140446E-01  0.10853441112E-01 -0.17481391246E-01  0.27625045616E-01  0.51100000000E-03 0.  1.
</event>
<event>
 7    1  0.1112958E+005  0.1043930E+01  0.7957747E-01            NaN
         13   -1    0    0    0    0  0.00000000000E+00  0.00000000000E+00  0.74505805969E-08  0.10566000000E+00  0.10566000000E+00 0. -1.
     999900   -1    0    0    0    0 -0.00000000000E+00 -0.00000000000E+00 -0.74505805969E-08  0.93827000000E+00  0.93827000000E+00 0. -1.
     999903    2    1    2    0    0  0.69619827966E-01  0.17045743836E-01  0.29929811576E-01  0.80214990493E-01  0.20029309772E-01 0.  0.
         14    1    1    2    0    0 -0.46866204071E-01  0.38149097538E-02 -0.67626640632E-01  0.82367209152E-01  0.00000000000E+00 0.  1.
     999901    1    1    2    0    0 -0.22753623895E-01 -0.20860653590E-01  0.37696829056E-01  0.88134780035E+00  0.88000000000E+00 0.  1.
        -11    1    3    3    0    0  0.14757579136E-01  0.11534710046E-02 -0.17227624089E-02  0.14911259794E-01  0.51100000000E-03 0.  1.
         11    1    3    3    0    0  0.54862248829E-01  0.15892272832E-01  0.31652573985E-01  0.65303730699E-01  0.51100000000E-03 0. -1.
</event>
<event>
 8    1  0.1112958E+005  0.1043930E+01  0.7957747E-01            NaN
         13   -1    0    0    0    0  0.00000000000E+00  0.00000000000E+00  0.74505805969E-08  0.10566000000E+00  0.10566000000E+00 0. -1.
     999900   -1    0    0    0    0 -0.00000000000E+00 -0.00000000000E+00 -0.74505805969E-08  0.93827000000E+00  0.93827000000E+00 0. -1.
     999902    2    1    2    0    0 -0.21813768511E-01  0.14886978431E-01  0.54864611965E-02  0.10169566079E+01  0.10165988287E+01 0.  0.
     999903    2    3    3    0    0  0.30942860565E-01  0.34225864215E-01  0.11767573098E+00  0.12805633980E+00  0.20542105585E-01 0.  0.
         14    1    1    2    0    0  0.21813768511E-01 -0.14886978431E-01 -0.54864611965E-02  0.26973392073E-01  0.00000000000E+00 0. -1.
     999901    1    3    3    0    0 -0.52756629075E-01 -0.19338885784E-01 -0.11218926978E+00  0.88890026812E+00  0.88000000000E+00 0. -1.
        -11    1    4    4    0    0  0.30868820780E-01  0.33703165254E-01  0.95556827428E-01  0.10592523700E+00  0.51100000000E-03 0. -1.
         11    1    4    4    0    0  0.74039784729E-04  0.52269896084E-03  0.22118903550E-01  0.22131102804E-01  0.51100000000E-03 0.  1.
</event>
<event>
 8    1  0.1112958E+005  0.1043930E+01  0.7957747E-01            NaN
         13   -1    0    0    0    0  0.00000000000E+00  0.00000000000E+00  0.74505805969E-08  0.10566000000E+00  0.10566000000E+00 0.  1.
     999900   -1    0    0    0    0 -0.00000000000E+00 -0.00000000000E+00 -0.74505805969E-08  0.93827000000E+00  0.93827000000E+00 0.  1.
     999902    2    1    2    0    0 -0.24596865918E-02 -0.17208431025E-01  0.12914738778E-01  0.10222742702E+01  0.10220448683E+01 0.  0.
     999903    2    3    3    0    0 -0.12957959065E+00 -0.18865422895E-01  0.13915370276E-01  0.13313805064E+00  0.19629786131E-01 0.  0.
         14    1    1    2    0    0  0.24596865918E-02  0.17208431025E-01 -0.12914738778E-01  0.21655729823E-01  0.00000000000E+00 0. -1.
     999901    1    3    3    0    0  0.12711990406E+00  0.16569918706E-02 -0.10006314975E-02  0.88913621954E+00  0.88000000000E+00 0. -1.
        -11    1    4    4    0    0 -0.51654070127E-01 -0.34043452405E-03 -0.97496858589E-03  0.51666919215E-01  0.51100000000E-03 0. -1.
         11    1    4    4    0    0 -0.77925520525E-01 -0.18524988371E-01  0.14890338862E-01  0.81471131425E-01  0.51100000000E-03 0.  1.
</event>
<event>
 8    1  0.1112958E+005  0.1043930E+01  0.7957747E-01            NaN
         13   -1    0    0    0    0  0.00000000000E+00  0.00000000000E+00  0.74505805969E-08  0.10566000000E+00  0.10566000000E+00 0.  1.
     999900   -1    0    0    0    0 -0.00000000000E+00 -0.00000000000E+00 -0.74505805969E-08  0.93827000000E+00  0.93827000000E+00 0. -1.
     999902    2    1    2    0    0 -0.91475766668E-02  0.19101065158E-01  0.11739230558E-01  0.10197155749E+01  0.10194280334E+01 0.  0.
     999903    2    3    3    0    0  0.34071159419E-02 -0.12065065481E+00  0.38457645538E-01  0.12819886880E+00  0.19691889640E-01 0.  0.
         14    1    1    2    0    0  0.91475766668E-02 -0.19101065158E-01 -0.11739230558E-01  0.24214425105E-01  0.00000000000E+00 0. -1.
     999901    1    3    3    0    0 -0.12554692609E-01  0.13975171997E+00 -0.26718414980E-01  0.89151670609E+00  0.88000000000E+00 0.  1.
        -11    1    4    4    0    0  0.76236496171E-02 -0.78533756020E-01  0.16895906877E-01  0.80693268978E-01  0.51100000000E-03 0. -1.
         11    1    4    4    0    0 -0.42165336752E-02 -0.42116898788E-01  0.21561738661E-01  0.47505599827E-01  0.51100000000E-03 0.  1.
</event>
<event>
 8    1  0.1112958E+005  0.1043930E+01  0.7957747E-01            NaN
         13   -1    0    0    0    0  0.00000000000E+00  0.00000000000E+00  0.74505805969E-08  0.10566000000E+00  0.10566000000E+00 0.  1.
     999900   -1    0    0    0    0 -0.00000000000E+00 -0.00000000000E+00 -0.74505805969E-08  0.93827000000E+00  0.93827000000E+00 0. -1.
     999902    2    1    2    0    0  0.88405676213E-02  0.21162129083E-01  0.38345243056E-03  0.10209922935E+01  0.10207346007E+01 0.  0.
     999903    2    3    3    0    0 -0.10945858173E+00  0.35397937422E-01  0.59407085591E-01  0.13100289119E+00  0.19958972763E-01 0.  0.
         14    1    1    2    0    0 -0.88405676213E-02 -0.21162129083E-01 -0.38345243056E-03  0.22937706488E-01  0.00000000000E+00 0.  1.
     999901    1    3    3    0    0  0.11829914935E+00 -0.14235808340E-01 -0.59023633161E-01  0.88998940232E+00  0.88000000000E+00 0. -1.
        -11    1    4    4    0    0 -0.58745680294E-01  0.29195095024E-01  0.35523771502E-01  0.74603002549E-01  0.51100000000E-03 0.  1.
         11    1    4    4    0    0 -0.50712901434E-01  0.62028423985E-02  0.23883314089E-01  0.56399888640E-01  0.51100000000E-03 0. -1.
</event>
<event>
 8    1  0.1112958E+005  0.1043930E+01  0.7957747E-01            NaN
         13   -1    0    0    0    0  0.00000000000E+00  0.00000000000E+00  0.74505805969E-08  0.10566000000E+00  0.10566000000E+00 0.  1.
     999900   -1    0    0    0    0 -0.00000000000E+00 -0.00000000000E+00 -0.74505805969E-08  0.93827000000E+00  0.93827000000E+00 0. -1.
     999902    2    1    2    0    0 -0.11218780702E-01 -0.20307177219E-01  0.59810028935E-02  0.10199713923E+01  0.10196899657E+01 0.  0.
     999903    2    3    3    0    0 -0.39096386238E-02 -0.10793411552E+00 -0.73346246414E-01  0.13203855906E+00  0.19734503979E-01 0.  0.
         14    1    1    2    0    0  0.11218780702E-01  0.20307177219E-01 -0.59810028935E-02  0.23958607695E-01  0.00000000000E+00 0. -1.
     999901    1    3    3    0    0 -0.73091420784E-02  0.87626938305E-01  0.79327249307E-01  0.88793283325E+00  0.88000000000E+00 0.  1.
        -11    1    4    4    0    0  0.32466529290E-03 -0.13592984187E-01 -0.21608285447E-02  0.13776970917E-01  0.51100000000E-03 0. -1.
         11    1    4    4    0    0 -0.42343039167E-02 -0.94341131337E-01 -0.71185417869E-01  0.11826158814E+00  0.51100000000E-03 0.  1.
</event>
<event>
 8    1  0.1112958E+005  0.1043930E+01  0.7957747E-01            NaN
         13   -1    0    0    0    0  0.00000000000E+00  0.00000000000E+00  0.74505805969E-08  0.10566000000E+00  0.10566000000E+00 0.  1.
     999900   -1    0    0    0    0 -0.00000000000E+00 -0.00000000000E+00 -0.74505805969E-08  0.93827000000E+00  0.93827000000E+00 0.  1.
     999902    2    1    2    0    0 -0.14170534518E-01 -0.18435495454E-01 -0.23242977406E-02  0.10205617758E+01  0.10202942048E+01 0.  0.
     999903    2    3    3    0    0  0.99027322323E-01 -0.83271208287E-01  0.44794376947E-02  0.13091931097E+00  0.19475521229E-01 0.  0.
         14    1    1    2    0    0  0.14170534518E-01  0.18435495454E-01  0.23242977406E-02  0.23368224176E-01  0.00000000000E+00 0.  1.
     999901    1    3    3    0    0 -0.11319785684E+00  0.64835712833E-01 -0.68037354352E-02  0.88964246485E+00  0.88000000000E+00 0.  1.
        -11    1    4    4    0    0  0.74591292272E-01 -0.72603545008E-01  0.54263377967E-02  0.10423455230E+00  0.51100000000E-03 0. -1.
         11    1    4    4    0    0  0.24436030051E-01 -0.10667663279E-01 -0.94690010203E-03  0.26684758670E-01  0.51100000000E-03 0.  1.
</event>
<event>
 8    1  0.1112958E+005  0.1043930E+01  0.7957747E-01            NaN
         13   -1    0    0    0    0  0.00000000000E+00  0.00000000000E+00  0.74505805969E-08  0.10566000000E+00  0.10566000000E+00 0. -1.
     999900   -1    0    0    0    0 -0.00000000000E+00 -0.00000000000E+00 -0.74505805969E-08  0.93827000000E+00  0.93827000000E+00 0. -1.
     999902    2    1    2    0    0 -0.31939770300E-02  0.20001567004E-02  0.22808591835E-01  0.10208121719E+01  0.10205503693E+01 0.  0.
     999903    2    3    3    0    0 -0.92995773509E-01 -0.70216215924E-02 -0.87375269985E-01  0.12936041291E+00  0.20053966293E-01 0.  0.
         14    1    1    2    0    0  0.31939770300E-02 -0.20001567004E-02 -0.22808591835E-01  0.23117828133E-01  0.00000000000E+00 0.  1.
     999901    1    3    3    0    0  0.89801796479E-01  0.90217782928E-02  0.11018386182E+00  0.89145175895E+00  0.88000000000E+00 0.  1.
        -11    1    4    4    0    0 -0.85428145174E-01 -0.94761740406E-02 -0.72345534056E-01  0.11234724421E+00  0.51100000000E-03 0.  1.
         11    1    4    4    0    0 -0.75676283353E-02  0.24545524483E-02 -0.15029735928E-01  0.17013168706E-01  0.51100000000E-03 0. -1.
</event>
<event>
 8    1  0.1112958E+005  0.1043930E+01  0.7957747E-01            NaN
         13   -1    0    0    0    0  0.00000000000E+00  0.00000000000E+00  0.74505805969E-08  0.10566000000E+00  0.10566000000E+00 0.  1.
     999900   -1    0    0    0    0 -0.00000000000E+00 -0.00000000000E+00 -0.74505805969E-08  0.93827000000E+00  0.93827000000E+00 0. -1.
     999902    2    1    2    0    0  0.22400573569E-01  0.28780115420E-04 -0.11271850562E-01  0.10188532949E+01  0.10185446457E+01 0.  0.
     999903    2    3    3    0    0  0.10113618521E+00  0.69430204687E-01 -0.44259258035E-01  0.13200267424E+00  0.20414279426E-01 0.  0.
         14    1    1    2    0    0 -0.22400573569E-01 -0.28780115420E-04  0.11271850562E-01  0.25076705119E-01  0.00000000000E+00 0.  1.
     999901    1    3    3    0    0 -0.78735611639E-01 -0.69401424571E-01  0.32987407472E-01  0.88685062064E+00  0.88000000000E+00 0.  1.
        -11    1    4    4    0    0  0.15462852146E-01  0.98624375458E-02 -0.14809421171E-01  0.23578539973E-01  0.51100000000E-03 0. -1.
         11    1    4    4    0    0  0.85673333062E-01  0.59567767141E-01 -0.29449836864E-01  0.10842413427E+00  0.51100000000E-03 0.  1.
</event>
<event>
 8    1  0.1112958E+005  0.1043930E+01  0.7957747E-01            NaN
         13   -1    0    0    0    0  0.00000000000E+00  0.00000000000E+00  0.74505805969E-08  0.10566000000E+00  0.10566000000E+00 0. -1.
     999900   -1    0    0    0    0 -0.00000000000E+00 -0.00000000000E+00 -0.74505805969E-08  0.93827000000E+00  0.93827000000E+00 0. -1.
     999902    2    1    2    0    0  0.18977421578E-01  0.33941162309E-02  0.66148887399E-02  0.10235481623E+01  0.10233452112E+01 0.  0.
     999903    2    3    3    0    0 -0.81551709785E-01 -0.90520527643E-01  0.45824260606E-01  0.13199701883E+00  0.21879278489E-01 0.  0.
         14    1    1    2    0    0 -0.18977421578E-01 -0.33941162309E-02 -0.66148887399E-02  0.20381837693E-01  0.00000000000E+00 0.  1.
     999901    1    3    3    0    0  0.10052913136E+00  0.93914643874E-01 -0.39209371866E-01  0.89155114347E+00  0.88000000000E+00 0.  1.
        -11    1    4    4    0    0 -0.55906757257E-01 -0.46173588452E-01  0.25076562379E-01  0.76724578065E-01  0.51100000000E-03 0.  1.
         11    1    4    4    0    0 -0.25644952529E-01 -0.44346939191E-01  0.20747698226E-01  0.55272440768E-01  0.51100000000E-03 0. -1.
</event>
<event>
 8    1  0.1112958E+005  0.1043930E+01  0.7957747E-01            NaN
         13   -1    0    0    0    0  0.00000000000E+00  0.00000000000E+00  0.74505805969E-08  0.10566000000E+00  0.10566000000E+00 0.  1.
     999900   -1    0    0    0    0 -0.00000000000E+00 -0.00000000000E+00 -0.74505805969E-08  0.93827000000E+00  0.93827000000E+00 0.  1.
     999902    2    1    2    0    0  0.78244073437E-02 -0.13925310026E-01  0.16674339950E-01  0.10208395426E+01  0.10205783667E+01 0.  0.
     999903    2    3    3    0    0  0.78794576585E-01  0.18810300497E-02  0.10584673292E+00  0.13334964353E+00  0.19143484153E-01 0.  0.
         14    1    1    2    0    0 -0.78244073437E-02  0.13925310026E-01 -0.16674339950E-01  0.23090457388E-01  0.00000000000E+00 0. -1.
     999901    1    3    3    0    0 -0.70970169241E-01 -0.15806340075E-01 -0.89172392972E-01  0.88748989908E+00  0.88000000000E+00 0.  1.
        -11    1    4    4    0    0  0.40017708882E-01  0.10389915684E-01  0.56519723533E-01  0.70029334149E-01  0.51100000000E-03 0.  1.
         11    1    4    4    0    0  0.38776867703E-01 -0.85088856344E-02  0.49327009388E-01  0.63320309378E-01  0.51100000000E-03 0. -1.
</event>
<event>
 8    1  0.1112958E+005  0.1043930E+01  0.7957747E-01            NaN
         13   -1    0    0    0    0  0.00000000000E+00  0.00000000000E+00  0.74505805969E-08  0.10566000000E+00  0.10566000000E+00 0.  1.
     999900   -1    0    0    0    0 -0.00000000000E+00 -0.00000000000E+00 -0.74505805969E-08  0.93827000000E+00  0.93827000000E+00 0. -1.
     999902    2    1    2    0    0 -0.18214261470E-01  0.26252460499E-02 -0.12495264095E-01  0.10216862849E+01  0.10214441159E+01 0.  0.
     999903    2    3    3    0    0  0.24524828788E-01  0.12616167753E+00  0.16772938719E-01  0.13154893175E+00  0.22484525058E-01 0.  0.
         14    1    1    2    0    0  0.18214261470E-01 -0.26252460499E-02  0.12495264095E-01  0.22243715124E-01  0.00000000000E+00 0.  1.
     999901    1    3    3    0    0 -0.42739090258E-01 -0.12353643148E+00 -0.29268202814E-01  0.89013735313E+00  0.88000000000E+00 0. -1.
        -11    1    4    4    0    0  0.52712567976E-02  0.77108384267E-01  0.15532430269E-01  0.78835313049E-01  0.51100000000E-03 0.  1.
         11    1    4    4    0    0  0.19253571990E-01  0.49053293260E-01  0.12405084501E-02  0.52713618698E-01  0.51100000000E-03 0. -1.
</event>
<event>
 8    1  0.1112958E+005  0.1043930E+01  0.7957747E-01            NaN
         13   -1    0    0    0    0  0.00000000000E+00  0.00000000000E+00  0.74505805969E-08  0.10566000000E+00  0.10566000000E+00 0. -1.
     999900   -1    0    0    0    0 -0.00000000000E+00 -0.00000000000E+00 -0.74505805969E-08  0.93827000000E+00  0.93827000000E+00 0. -1.
     999902    2    1    2    0    0  0.11054368583E-01 -0.16791676531E-01 -0.11501599290E-01  0.10207686906E+01  0.10205058910E+01 0.  0.
     999903    2    3    3    0    0  0.43992041560E-01  0.10563868193E+00 -0.59317246422E-01  0.13039774598E+00  0.19753622250E-01 0.  0.
         14    1    1    2    0    0 -0.11054368583E-01  0.16791676531E-01  0.11501599290E-01  0.23161309370E-01  0.00000000000E+00 0. -1.
     999901    1    3    3    0    0 -0.32937672977E-01 -0.12243035846E+00  0.47815647132E-01  0.89037094465E+00  0.88000000000E+00 0.  1.
        -11    1    4    4    0    0  0.43089633581E-01  0.83718705517E-01 -0.47099855619E-01  0.10528150690E+00  0.51100000000E-03 0. -1.
         11    1    4    4    0    0  0.90240797911E-03  0.21919976413E-01 -0.12217390803E-01  0.25116239072E-01  0.51100000000E-03 0.  1.
</event>
<event>
 8    1  0.1112958E+005  0.1043930E+01  0.7957747E-01            NaN
         13   -1    0    0    0    0  0.00000000000E+00  0.00000000000E+00  0.74505805969E-08  0.10566000000E+00  0.10566000000E+00 0. -1.
     999900   -1    0    0    0    0 -0.00000000000E+00 -0.00000000000E+00 -0.74505805969E-08  0.93827000000E+00  0.93827000000E+00 0.  1.
     999902    2    1    2    0    0 -0.30816311266E-02  0.84881400679E-02 -0.19740480015E-01  0.10222221322E+01  0.10219916125E+01 0.  0.
     999903    2    3    3    0    0  0.91890563951E-01 -0.31648391415E-01 -0.89621694997E-01  0.13345104628E+00  0.18210906540E-01 0.  0.
         14    1    1    2    0    0  0.30816311266E-02 -0.84881400679E-02  0.19740480015E-01  0.21707867778E-01  0.00000000000E+00 0. -1.
     999901    1    3    3    0    0 -0.94972195078E-01  0.40136531483E-01  0.69881214982E-01  0.88877108594E+00  0.88000000000E+00 0. -1.
        -11    1    4    4    0    0  0.82235773259E-01 -0.30566674986E-01 -0.72739862858E-01  0.11396663017E+00  0.51100000000E-03 0.  1.
         11    1    4    4    0    0  0.96547906924E-02 -0.10817164292E-02 -0.16881832139E-01  0.19484416110E-01  0.51100000000E-03 0. -1.
</event>
<event>
 8    1  0.1112958E+005  0.1043930E+01  0.7957747E-01            NaN
         13   -1    0    0    0    0  0.00000000000E+00  0.00000000000E+00  0.74505805969E-08  0.10566000000E+00  0.10566000000E+00 0.  1.
     999900   -1    0    0    0    0 -0.00000000000E+00 -0.00000000000E+00 -0.74505805969E-08  0.93827000000E+00  0.93827000000E+00 0. -1.
     999902    2    1    2    0    0 -0.11893809723E-01  0.11057564899E-01  0.17769434651E-01  0.10198574999E+01  0.10195733593E+01 0.  0.
     999903    2    3    3    0    0  0.99009816571E-01 -0.49610604415E-01  0.64537527888E-01  0.12959490068E+00  0.19120406096E-01 0.  0.
         14    1    1    2    0    0  0.11893809723E-01 -0.11057564899E-01 -0.17769434651E-01  0.24072500059E-01  0.00000000000E+00 0. -1.
     999901    1    3    3    0    0 -0.11090362629E+00  0.60668169315E-01 -0.46768093237E-01  0.89026259926E+00  0.88000000000E+00 0. -1.
        -11    1    4    4    0    0  0.32970096094E-01 -0.14706280754E-01  0.11177110558E-01  0.37795381351E-01  0.51100000000E-03 0. -1.
         11    1    4    4    0    0  0.66039720477E-01 -0.34904323661E-01  0.53360417330E-01  0.91799519332E-01  0.51100000000E-03 0.  1.
</event>
<event>
 8    1  0.1112958E+005  0.1043930E+01  0.7957747E-01            NaN
         13   -1    0    0    0    0  0.00000000000E+00  0.00000000000E+00  0.74505805969E-08  0.10566000000E+00  0.10566000000E+00 0. -1.
     999900   -1    0    0    0    0 -0.00000000000E+00 -0.00000000000E+00 -0.74505805969E-08  0.93827000000E+00  0.93827000000E+00 0.  1.
     999902    2    1    2    0    0 -0.32913602587E-03  0.29229516237E-01 -0.88274739023E-04  0.10146984974E+01  0.10142773585E+01 0.  0.
     999903    2    3    3    0    0  0.71319362555E-01 -0.47160524096E-02  0.10103053297E+00  0.12536682575E+00  0.20024479542E-01 0.  0.
         14    1    1    2    0    0  0.32913602587E-03 -0.29229516237E-01  0.88274739023E-04  0.29231502569E-01  0.00000000000E+00 0.  1.
     999901    1    3    3    0    0 -0.71648498581E-01  0.33945568647E-01 -0.10111880771E+00  0.88933167168E+00  0.88000000000E+00 0.  1.
        -11    1    4    4    0    0  0.30250394405E-01 -0.99589930154E-02  0.34081481704E-01  0.46648434269E-01  0.51100000000E-03 0.  1.
         11    1    4    4    0    0  0.41068968150E-01  0.52429406058E-02  0.66949051268E-01  0.78718391483E-01  0.51100000000E-03 0. -1.
</event>
<event>
 8    1  0.1112958E+005  0.1043930E+01  0.7957747E-01            NaN
         13   -1    0    0    0    0  0.00000000000E+00  0.00000000000E+00  0.74505805969E-08  0.10566000000E+00  0.10566000000E+00 0.  1.
     999900   -1    0    0    0    0 -0.00000000000E+00 -0.00000000000E+00 -0.74505805969E-08  0.93827000000E+00  0.93827000000E+00 0. -1.
     999902    2    1    2    0    0 -0.21856696485E-01  0.70720611128E-02  0.61598828616E-03  0.10209493849E+01  0.10206907160E+01 0.  0.
     999903    2    3    3    0    0 -0.24569785381E-02 -0.12007578803E+00  0.46745959133E-01  0.13040410315E+00  0.19895069950E-01 0.  0.
         14    1    1    2    0    0  0.21856696485E-01 -0.70720611128E-02 -0.61598828616E-03  0.22980615118E-01  0.00000000000E+00 0. -1.
     999901    1    3    3    0    0 -0.19399717947E-01  0.12714784915E+00 -0.46129970847E-01  0.89054528173E+00  0.88000000000E+00 0. -1.
        -11    1    4    4    0    0 -0.47381709515E-02 -0.71331245325E-01  0.37524261413E-01  0.80739879484E-01  0.51100000000E-03 0. -1.
         11    1    4    4    0    0  0.22811924134E-02 -0.48744542710E-01  0.92216977203E-02  0.49664223669E-01  0.51100000000E-03 0.  1.
</event>
<event>
 8    1  0.1112958E+005  0.1043930E+01  0.7957747E-01            NaN
         13   -1    0    0    0    0  0.00000000000E+00  0.00000000000E+00  0.74505805969E-08  0.10566000000E+00  0.10566000000E+00 0.  1.
     999900   -1    0    0    0    0 -0.00000000000E+00 -0.00000000000E+00 -0.74505805969E-08  0.93827000000E+00  0.93827000000E+00 0. -1.
     999902    2    1    2    0    0 -0.40460765213E-02  0.13053399114E-01 -0.19468655472E-01  0.10201436487E+01  0.10198663017E+01 0.  0.
     999903    2    3    3    0    0  0.12656827576E+00  0.31468923558E-02 -0.24685926852E-01  0.13043275865E+00  0.19335929925E-01 0.  0.
         14    1    1    2    0    0  0.40460765213E-02 -0.13053399114E-01  0.19468655472E-01  0.23786351328E-01  0.00000000000E+00 0.  1.
     999901    1    3    3    0    0 -0.13061435228E+00  0.99065067577E-02  0.52172713807E-02  0.88971089002E+00  0.88000000000E+00 0.  1.
        -11    1    4    4    0    0  0.57675999781E-01 -0.55557969282E-02 -0.45149648365E-02  0.58120855626E-01  0.51100000000E-03 0. -1.
         11    1    4    4    0    0  0.68892275975E-01  0.87026892840E-02 -0.20170962016E-01  0.72311903027E-01  0.51100000000E-03 0.  1.
</event>
<event>
 8    1  0.1112958E+005  0.1043930E+01  0.7957747E-01            NaN
         13   -1    0    0    0    0  0.00000000000E+00  0.00000000000E+00  0.74505805969E-08  0.10566000000E+00  0.10566000000E+00 0. -1.
     999900   -1    0    0    0    0 -0.00000000000E+00 -0.00000000000E+00 -0.74505805969E-08  0.93827000000E+00  0.93827000000E+00 0. -1.
     999902    2    1    2    0    0 -0.30921786422E-04 -0.20383091236E-01  0.15318957004E-01  0.10184321215E+01  0.10181128839E+01 0.  0.
     999903    2    3    3    0    0  0.11449698470E+00 -0.43726150509E-01  0.39488410746E-01  0.13037485855E+00  0.20414049472E-01 0.  0.
         14    1    1    2    0    0  0.30921786422E-04  0.20383091236E-01 -0.15318957004E-01  0.25497878503E-01  0.00000000000E+00 0.  1.
     999901    1    3    3    0    0 -0.11452790648E+00  0.23343059274E-01 -0.24169453743E-01  0.88805726295E+00  0.88000000000E+00 0.  1.
        -11    1    4    4    0    0  0.70183800001E-01 -0.36862568396E-01  0.22355228671E-01  0.82368878233E-01  0.51100000000E-03 0. -1.
         11    1    4    4    0    0  0.44313184694E-01 -0.68635821132E-02  0.17133182076E-01  0.48005980317E-01  0.51100000000E-03 0.  1.
</event>
<event>
 8    1  0.1112958E+005  0.1043930E+01  0.7957747E-01            NaN
         13   -1    0    0    0    0  0.00000000000E+00  0.00000000000E+00  0.74505805969E-08  0.10566000000E+00  0.10566000000E+00 0.  1.
     999900   -1    0    0    0    0 -0.00000000000E+00 -0.00000000000E+00 -0.74505805969E-08  0.93827000000E+00  0.93827000000E+00 0.  1.
     999902    2    1    2    0    0 -0.96850357947E-02 -0.65084721733E-02 -0.20256638622E-01  0.10205528416E+01  0.10202850635E+01 0.  0.
     999903    2    3    3    0    0  0.91674515976E-01 -0.40456947449E-01 -0.83647419024E-01  0.13182079603E+00  0.18407880958E-01 0.  0.
         14    1    1    2    0    0  0.96850357947E-02  0.65084721733E-02  0.20256638622E-01  0.23377158438E-01  0.00000000000E+00 0.  1.
     999901    1    3    3    0    0 -0.10135955177E+00  0.33948475276E-01  0.63390780402E-01  0.88873204553E+00  0.88000000000E+00 0. -1.
        -11    1    4    4    0    0  0.30240852335E-01 -0.64335984426E-02 -0.18528880062E-01  0.36048312807E-01  0.51100000000E-03 0. -1.
         11    1    4    4    0    0  0.61433663641E-01 -0.34023349007E-01 -0.65118538962E-01  0.95772483227E-01  0.51100000000E-03 0.  1.
</event>
<event>
 8    1  0.1112958E+005  0.1043930E+01  0.7957747E-01            NaN
         13   -1    0    0    0    0  0.00000000000E+00  0.00000000000E+00  0.74505805969E-08  0.10566000000E+00  0.10566000000E+00 0.  1.
     999900   -1    0    0    0    0 -0.00000000000E+00 -0.00000000000E+00 -0.74505805969E-08  0.93827000000E+00  0.93827000000E+00 0.  1.
     999902    2    1    2    0    0  0.15518734250E-01 -0.39016048396E-02 -0.14810481652E-01  0.10221262389E+01  0.10218936560E+01 0.  0.
     999903    2    3    3    0    0 -0.38549815753E-01  0.90068961002E-01 -0.87207997518E-01  0.13252223952E+00  0.18931537314E-01 0.  0.
         14    1    1    2    0    0 -0.15518734250E-01  0.39016048396E-02  0.14810481652E-01  0.21803761139E-01  0.00000000000E+00 0.  1.
     999901    1    3    3    0    0  0.54068550003E-01 -0.93970565842E-01  0.72397515866E-01  0.88960399934E+00  0.88000000000E+00 0. -1.
        -11    1    4    4    0    0 -0.14686728420E-01  0.35003917692E-01 -0.46378394907E-01  0.59934888676E-01  0.51100000000E-03 0.  1.
         11    1    4    4    0    0 -0.23863087333E-01  0.55065043310E-01 -0.40829602612E-01  0.72587350842E-01  0.51100000000E-03 0. -1.
</event>
<event>
 8    1  0.1112958E+005  0.1043930E+01  0.7957747E-01            NaN
         13   -1    0    0    0    0  0.00000000000E+00  0.00000000000E+00  0.74505805969E-08  0.10566000000E+00  0.10566000000E+00 0. -1.
     999900   -1    0    0    0    0 -0.00000000000E+00 -0.00000000000E+00 -0.74505805969E-08  0.93827000000E+00  0.93827000000E+00 0. -1.
     999902    2    1    2    0    0 -0.13411635224E-01 -0.20097421921E-01  0.89369648167E-02  0.10181686400E+01  0.10178426852E+01 0.  0.
     999903    2    3    3    0    0  0.10714117769E+00  0.63029640403E-01  0.56215548346E-02  0.12606209867E+00  0.20201072159E-01 0.  0.
         14    1    1    2    0    0  0.13411635224E-01  0.20097421921E-01 -0.89369648167E-02  0.25761359968E-01  0.00000000000E+00 0. -1.
     999901    1    3    3    0    0 -0.12055281292E+00 -0.83127062324E-01  0.33154099821E-02  0.89210654136E+00  0.88000000000E+00 0. -1.
        -11    1    4    4    0    0  0.78604219023E-01  0.38649943214E-01  0.10454947921E-01  0.88215692571E-01  0.51100000000E-03 0.  1.
         11    1    4    4    0    0  0.28536958669E-01  0.24379697189E-01 -0.48333930863E-02  0.37846406102E-01  0.51100000000E-03 0. -1.
</event>
<event>
 8    1  0.1112958E+005  0.1043930E+01  0.7957747E-01            NaN
         13   -1    0    0    0    0  0.00000000000E+00  0.00000000000E+00  0.74505805969E-08  0.10566000000E+00  0.10566000000E+00 0.  1.
     999900   -1    0    0    0    0 -0.00000000000E+00 -0.00000000000E+00 -0.74505805969E-08  0.93827000000E+00  0.93827000000E+00 0. -1.
     999902    2    1    2    0    0  0.15524549689E-01  0.19439604541E-01  0.64161232786E-02  0.10182380459E+01  0.10179138675E+01 0.  0.
     999903    2    3    3    0    0  0.53870458248E-01  0.11752284347E+00 -0.13913802047E-01  0.13172575815E+00  0.21081661779E-01 0.  0.
         14    1    1    2    0    0 -0.15524549689E-01 -0.19439604541E-01 -0.64161232786E-02  0.25691954104E-01  0.00000000000E+00 0. -1.
     999901    1    3    3    0    0 -0.38345908559E-01 -0.98083238930E-01  0.20329925325E-01  0.88651228775E+00  0.88000000000E+00 0. -1.
        -11    1    4    4    0    0  0.26285421625E-01  0.68778956964E-01  0.14491604516E-02  0.73646653000E-01  0.51100000000E-03 0.  1.
         11    1    4    4    0    0  0.27585036623E-01  0.48743886507E-01 -0.15362962498E-01  0.58079105150E-01  0.51100000000E-03 0. -1.
</event>
<event>
 8    1  0.1112958E+005  0.1043930E+01  0.7957747E-01            NaN
         13   -1    0    0    0    0  0.00000000000E+00  0.00000000000E+00  0.74505805969E-08  0.10566000000E+00  0.10566000000E+00 0. -1.
     999900   -1    0    0    0    0 -0.00000000000E+00 -0.00000000000E+00 -0.74505805969E-08  0.93827000000E+00  0.93827000000E+00 0.  1.
     999902    2    1    2    0    0 -0.50503061715E-02 -0.14471057623E-01 -0.18157716826E-01  0.10201682707E+01  0.10198915044E+01 0.  0.
     999903    2    3    3    0    0  0.31096299513E-01 -0.12140528083E+00 -0.39946707721E-01  0.13269079752E+00  0.17460991711E-01 0.  0.
         14    1    1    2    0    0  0.50503061715E-02  0.14471057623E-01  0.18157716826E-01  0.23761729345E-01  0.00000000000E+00 0. -1.
     999901    1    3    3    0    0 -0.36146605685E-01  0.10693422321E+00  0.21788990895E-01  0.88747747313E+00  0.88000000000E+00 0.  1.
        -11    1    4    4    0    0  0.53081210964E-02 -0.47631629471E-01 -0.20666932865E-01  0.52195129186E-01  0.51100000000E-03 0. -1.
         11    1    4    4    0    0  0.25788178417E-01 -0.73773651361E-01 -0.19279774856E-01  0.80495668335E-01  0.51100000000E-03 0.  1.
</event>
<event>
 8    1  0.1112958E+005  0.1043930E+01  0.7957747E-01            NaN
         13   -1    0    0    0    0  0.00000000000E+00  0.00000000000E+00  0.74505805969E-08  0.10566000000E+00  0.10566000000E+00 0.  1.
     999900   -1    0    0    0    0 -0.00000000000E+00 -0.00000000000E+00 -0.74505805969E-08  0.93827000000E+00  0.93827000000E+00 0.  1.
     999902    2    1    2    0    0 -0.70743163553E-03  0.19204150308E-01 -0.12299033160E-01  0.10211140831E+01  0.10208591502E+01 0.  0.
     999903    2    3    3    0    0 -0.91672905027E-01  0.70794740754E-01  0.60015878653E-01  0.13197643746E+00  0.20001437949E-01 0.  0.
         14    1    1    2    0    0  0.70743163553E-03 -0.19204150308E-01  0.12299033160E-01  0.22815916928E-01  0.00000000000E+00 0.  1.
     999901    1    3    3    0    0  0.90965473391E-01 -0.51590590446E-01 -0.72314911813E-01  0.88913764561E+00  0.88000000000E+00 0.  1.
        -11    1    4    4    0    0 -0.36864666088E-01  0.39113538414E-01  0.21626117842E-01  0.57938092711E-01  0.51100000000E-03 0. -1.
         11    1    4    4    0    0 -0.54808238939E-01  0.31681202340E-01  0.38389760811E-01  0.74038344751E-01  0.51100000000E-03 0.  1.
</event>
<event>
 8    1  0.1112958E+005  0.1043930E+01  0.7957747E-01            NaN
         13   -1    0    0    0    0  0.00000000000E+00  0.00000000000E+00  0.74505805969E-08  0.10566000000E+00  0.10566000000E+00 0. -1.
     999900   -1    0    0    0    0 -0.00000000000E+00 -0.00000000000E+00 -0.74505805969E-08  0.93827000000E+00  0.93827000000E+00 0. -1.
     999902    2    1    2    0    0 -0.96732591689E-03 -0.16470471545E-01 -0.29312954391E-01  0.10102927967E+01  0.10097326743E+01 0.  0.
     999903    2    3    3    0    0 -0.24235113224E-01 -0.92405615676E-01  0.71198038264E-01  0.12101781351E+00  0.21213486569E-01 0.  0.
         14    1    1    2    0    0  0.96732591689E-03  0.16470471545E-01  0.29312954391E-01  0.33637203324E-01  0.00000000000E+00 0. -1.
     999901    1    3    3    0    0  0.23267787307E-01  0.75935144131E-01 -0.10051099266E+00  0.88927498317E+00  0.88000000000E+00 0. -1.
        -11    1    4    4    0    0 -0.10827189188E-01 -0.66289071270E-01  0.40007401493E-01  0.78181342344E-01  0.51100000000E-03 0. -1.
         11    1    4    4    0    0 -0.13407924036E-01 -0.26116544407E-01  0.31190636771E-01  0.42836471165E-01  0.51100000000E-03 0.  1.
</event>
<event>
 8    1  0.1112958E+005  0.1043930E+01  0.7957747E-01            NaN
         13   -1    0    0    0    0  0.00000000000E+00  0.00000000000E+00  0.74505805969E-08  0.10566000000E+00  0.10566000000E+00 0.  1.
     999900   -1    0    0    0    0 -0.00000000000E+00 -0.00000000000E+00 -0.74505805969E-08  0.93827000000E+00  0.93827000000E+00 0. -1.
     999902    2    1    2    0    0 -0.25320769135E-02  0.11080857987E-01  0.20579395965E-01  0.10204202496E+01  0.10201493897E+01 0.  0.
     999903    2    3    3    0    0 -0.82651013819E-01  0.97680342614E-01  0.29544247797E-01  0.13250196315E+00  0.17642795733E-01 0.  0.
         14    1    1    2    0    0  0.25320769135E-02 -0.11080857987E-01 -0.20579395965E-01  0.23509750435E-01  0.00000000000E+00 0.  1.
     999901    1    3    3    0    0  0.80118936905E-01 -0.86599484627E-01 -0.89648518325E-02  0.88791828642E+00  0.88000000000E+00 0.  1.
        -11    1    4    4    0    0 -0.51896547319E-01  0.54560820898E-01  0.24990868826E-01  0.79340654436E-01  0.51100000000E-03 0. -1.
         11    1    4    4    0    0 -0.30754466500E-01  0.43119521716E-01  0.45533789709E-02  0.53161308710E-01  0.51100000000E-03 0.  1.
</event>
<event>
 8    1  0.1112958E+005  0.1043930E+01  0.7957747E-01            NaN
         13   -1    0    0    0    0  0.00000000000E+00  0.00000000000E+00  0.74505805969E-08  0.10566000000E+00  0.10566000000E+00 0.  1.
     999900   -1    0    0    0    0 -0.00000000000E+00 -0.00000000000E+00 -0.74505805969E-08  0.93827000000E+00  0.93827000000E+00 0.  1.
     999902    2    1    2    0    0  0.59991903370E-03  0.66217281912E-02 -0.22994404639E-01  0.10199936295E+01  0.10197127313E+01 0.  0.
     999903    2    3    3    0    0  0.30320053427E-01  0.89642255151E-01  0.85307581592E-01  0.12898015347E+00  0.20086238149E-01 0.  0.
         14    1    1    2    0    0 -0.59991903370E-03 -0.66217281912E-02  0.22994404639E-01  0.23936370480E-01  0.00000000000E+00 0. -1.
     999901    1    3    3    0    0 -0.29720134393E-01 -0.83020526960E-01 -0.10830198623E+00  0.89101347605E+00  0.88000000000E+00 0.  1.
        -11    1    4    4    0    0  0.47102291315E-02  0.42180304081E-01  0.32082243671E-01  0.53206163090E-01  0.51100000000E-03 0.  1.
         11    1    4    4    0    0  0.25609824295E-01  0.47461951070E-01  0.53225337922E-01  0.75773990377E-01  0.51100000000E-03 0. -1.
</event>
<event>
 8    1  0.1112958E+005  0.1043930E+01  0.7957747E-01            NaN
         13   -1    0    0    0    0  0.00000000000E+00  0.00000000000E+00  0.74505805969E-08  0.10566000000E+00  0.10566000000E+00 0.  1.
     999900   -1    0    0    0    0 -0.00000000000E+00 -0.00000000000E+00 -0.74505805969E-08  0.93827000000E+00  0.93827000000E+00 0.  1.
     999902    2    1    2    0    0 -0.23516512935E-01 -0.18388362550E-02  0.29267156413E-02  0.10201608317E+01  0.10198838900E+01 0.  0.
     999903    2    3    3    0    0 -0.43038659342E-01  0.10629394035E+00  0.61139511644E-01  0.13141871991E+00  0.19547687970E-01 0.  0.
         14    1    1    2    0    0  0.23516512935E-01  0.18388362550E-02 -0.29267156413E-02  0.23769168345E-01  0.00000000000E+00 0.  1.
     999901    1    3    3    0    0  0.19522146407E-01 -0.10813277660E+00 -0.58212796003E-01  0.88874211175E+00  0.88000000000E+00 0.  1.
        -11    1    4    4    0    0 -0.19810763829E-01  0.25691447446E-01  0.17060621855E-01  0.36658461158E-01  0.51100000000E-03 0. -1.
         11    1    4    4    0    0 -0.23227895512E-01  0.80602492903E-01  0.44078889789E-01  0.94760258749E-01  0.51100000000E-03 0.  1.
</event>
<event>
 8    1  0.1112958E+005  0.1043930E+01  0.7957747E-01            NaN
         13   -1    0    0    0    0  0.00000000000E+00  0.00000000000E+00  0.74505805969E-08  0.10566000000E+00  0.10566000000E+00 0. -1.
     999900   -1    0    0    0    0 -0.00000000000E+00 -0.00000000000E+00 -0.74505805969E-08  0.93827000000E+00  0.93827000000E+00 0.  1.
     999902    2    1    2    0    0  0.21577847294E-01  0.91023147510E-02  0.22626308655E-03  0.10205097775E+01  0.10202410005E+01 0.  0.
     999903    2    3    3    0    0 -0.25783664637E-01 -0.20974385924E-01 -0.12396842173E+00  0.13002000187E+00  0.20792043501E-01 0.  0.
         14    1    1    2    0    0 -0.21577847294E-01 -0.91023147510E-02 -0.22626308655E-03  0.23420222515E-01  0.00000000000E+00 0. -1.
     999901    1    3    3    0    0  0.47361511930E-01  0.30076700675E-01  0.12419468482E+00  0.89048977561E+00  0.88000000000E+00 0.  1.
        -11    1    4    4    0    0 -0.21246083707E-01 -0.24237780152E-01 -0.90172223014E-01  0.95760936628E-01  0.51100000000E-03 0. -1.
         11    1    4    4    0    0 -0.45375809299E-02  0.32633942276E-02 -0.33796198718E-01  0.34259065243E-01  0.51100000000E-03 0.  1.
</event>
<event>
 8    1  0.1112958E+005  0.1043930E+01  0.7957747E-01            NaN
         13   -1    0    0    0    0  0.00000000000E+00  0.00000000000E+00  0.74505805969E-08  0.10566000000E+00  0.10566000000E+00 0. -1.
     999900   -1    0    0    0    0 -0.00000000000E+00 -0.00000000000E+00 -0.74505805969E-08  0.93827000000E+00  0.93827000000E+00 0. -1.
     999902    2    1    2    0    0 -0.14705420808E-01 -0.24955166910E-02 -0.19408996457E-01  0.10194517209E+01  0.10191578019E+01 0.  0.
     999903    2    3    3    0    0  0.11696989843E+00  0.47048561730E-01 -0.11609738130E-01  0.12824252332E+00  0.20392019713E-01 0.  0.
         14    1    1    2    0    0  0.14705420808E-01  0.24955166910E-02  0.19408996457E-01  0.24478279109E-01  0.00000000000E+00 0. -1.
     999901    1    3    3    0    0 -0.13167531924E+00 -0.49544078421E-01 -0.77992583262E-02  0.89120919757E+00  0.88000000000E+00 0. -1.
        -11    1    4    4    0    0  0.67666571724E-01  0.31292026981E-01  0.24869913307E-02  0.74594920258E-01  0.51100000000E-03 0. -1.
         11    1    4    4    0    0  0.49303326708E-01  0.15756534749E-01 -0.14096729461E-01  0.53647603062E-01  0.51100000000E-03 0.  1.
</event>
<event>
 8    1  0.1112958E+005  0.1043930E+01  0.7957747E-01            NaN
         13   -1    0    0    0    0  0.00000000000E+00  0.00000000000E+00  0.74505805969E-08  0.10566000000E+00  0.10566000000E+00 0.  1.
     999900   -1    0    0    0    0 -0.00000000000E+00 -0.00000000000E+00 -0.74505805969E-08  0.93827000000E+00  0.93827000000E+00 0. -1.
     999902    2    1    2    0    0  0.70868029671E-02  0.16010937301E-01 -0.17339908334E-01  0.10192876521E+01  0.10189897312E+01 0.  0.
     999903    2    3    3    0    0  0.39227512826E-01  0.30867770367E-01 -0.12034562431E+00  0.13257240566E+00  0.24510333404E-01 0.  0.
         14    1    1    2    0    0 -0.70868029671E-02 -0.16010937301E-01  0.17339908334E-01  0.24642347912E-01  0.00000000000E+00 0.  1.
     999901    1    3    3    0    0 -0.32140709859E-01 -0.14856833066E-01  0.10300571597E+00  0.88671524642E+00  0.88000000000E+00 0.  1.
        -11    1    4    4    0    0  0.39701482819E-01  0.20570047461E-01 -0.89564125394E-01  0.10010658454E+00  0.51100000000E-03 0. -1.
         11    1    4    4    0    0 -0.47396999250E-03  0.10297722906E-01 -0.30781498913E-01  0.32465821119E-01  0.51100000000E-03 0.  1.
</event>
<event>
 8    1  0.1112958E+005  0.1043930E+01  0.7957747E-01            NaN
         13   -1    0    0    0    0  0.00000000000E+00  0.00000000000E+00  0.74505805969E-08  0.10566000000E+00  0.10566000000E+00 0. -1.
     999900   -1    0    0    0    0 -0.00000000000E+00 -0.00000000000E+00 -0.74505805969E-08  0.93827000000E+00  0.93827000000E+00 0. -1.
     999902    2    1    2    0    0  0.26528141520E-01  0.22047601571E-02  0.88123886206E-02  0.10158896460E+01  0.10155025905E+01 0.  0.
     999903    2    3    3    0    0  0.10463022912E+00 -0.28268328401E-01  0.68666143008E-01  0.12988117135E+00  0.20186536111E-01 0.  0.
         14    1    1    2    0    0 -0.26528141520E-01 -0.22047601571E-02 -0.88123886206E-02  0.28040354011E-01  0.00000000000E+00 0.  1.
     999901    1    3    3    0    0 -0.78102087599E-01  0.30473088558E-01 -0.59853754387E-01  0.88600847464E+00  0.88000000000E+00 0. -1.
        -11    1    4    4    0    0  0.95164356988E-01 -0.19316883410E-01  0.62287927113E-01  0.11536656279E+00  0.51100000000E-03 0. -1.
         11    1    4    4    0    0  0.94658721311E-02 -0.89514449908E-02  0.63782158942E-02  0.14514608559E-01  0.51100000000E-03 0.  1.
</event>
<event>
 8    1  0.1112958E+005  0.1043930E+01  0.7957747E-01            NaN
         13   -1    0    0    0    0  0.00000000000E+00  0.00000000000E+00  0.74505805969E-08  0.10566000000E+00  0.10566000000E+00 0. -1.
     999900   -1    0    0    0    0 -0.00000000000E+00 -0.00000000000E+00 -0.74505805969E-08  0.93827000000E+00  0.93827000000E+00 0. -1.
     999902    2    1    2    0    0  0.31348418052E-02 -0.11576767842E-01  0.19981850372E-01  0.10206249977E+01  0.10203588892E+01 0.  0.
     999903    2    3    3    0    0 -0.20315299865E-01 -0.32486053601E-01 -0.12057473246E+00  0.12891693992E+00  0.24764010243E-01 0.  0.
         14    1    1    2    0    0 -0.31348418052E-02  0.11576767842E-01 -0.19981850372E-01  0.23305002276E-01  0.00000000000E+00 0.  1.
     999901    1    3    3    0    0  0.23450141670E-01  0.20909285760E-01  0.14055658283E+00  0.89170805780E+00  0.88000000000E+00 0.  1.
        -11    1    4    4    0    0 -0.19455780809E-01 -0.34816344173E-01 -0.92570485778E-01  0.10079812095E+00  0.51100000000E-03 0. -1.
         11    1    4    4    0    0 -0.85951905573E-03  0.23302905716E-02 -0.28004246681E-01  0.28118818971E-01  0.51100000000E-03 0.  1.
</event>
<event>
 8    1  0.1112958E+005  0.1043930E+01  0.7957747E-01            NaN
         13   -1    0    0    0    0  0.00000000000E+00  0.00000000000E+00  0.74505805969E-08  0.10566000000E+00  0.10566000000E+00 0. -1.
     999900   -1    0    0    0    0 -0.00000000000E+00 -0.00000000000E+00 -0.74505805969E-08  0.93827000000E+00  0.93827000000E+00 0. -1.
     999902    2    1    2    0    0  0.31769089636E-02 -0.14810539182E-01 -0.17850121682E-01  0.10205190695E+01  0.10202505083E+01 0.  0.
     999903    2    3    3    0    0 -0.94221237895E-01 -0.49711135500E-01 -0.76302651619E-01  0.13253193624E+00  0.19843911303E-01 0.  0.
         14    1    1    2    0    0 -0.31769089636E-02  0.14810539182E-01  0.17850121682E-01  0.23410930471E-01  0.00000000000E+00 0. -1.
     999901    1    3    3    0    0  0.97398146858E-01  0.34900596318E-01  0.58452529936E-01  0.88798713329E+00  0.88000000000E+00 0. -1.
        -11    1    4    4    0    0 -0.80432553539E-02 -0.98952261931E-02 -0.46085877864E-02  0.13568701503E-01  0.51100000000E-03 0. -1.
         11    1    4    4    0    0 -0.86177982541E-01 -0.39815909307E-01 -0.71694063832E-01  0.11896323473E+00  0.51100000000E-03 0.  1.
</event>
<event>
 8    1  0.1112958E+005  0.1043930E+01  0.7957747E-01            NaN
         13   -1    0    0    0    0  0.00000000000E+00  0.00000000000E+00  0.74505805969E-08  0.10566000000E+00  0.10566000000E+00 0. -1.
     999900   -1    0    0    0    0 -0.00000000000E+00 -0.00000000000E+00 -0.74505805969E-08  0.93827000000E+00  0.93827000000E+00 0.  1.
     999902    2    1    2    0    0  0.10046841967E-01  0.21415409506E-01  0.35645202214E-02  0.10200079474E+01  0.10197273891E+01 0.  0.
     999903    2    3    3    0    0  0.24913034830E-01  0.91655560394E-01  0.90629574549E-01  0.13280165446E+00  0.20028943779E-01 0.  0.
         14    1    1    2    0    0 -0.10046841967E-01 -0.21415409506E-01 -0.35645202214E-02  0.23922052634E-01  0.00000000000E+00 0. -1.
     999901    1    3    3    0    0 -0.14866192863E-01 -0.70240150888E-01 -0.87065054328E-01  0.88720629291E+00  0.88000000000E+00 0.  1.
        -11    1    4    4    0    0  0.16450403296E-01  0.36981858127E-01  0.27918724213E-01  0.49173060529E-01  0.51100000000E-03 0.  1.
         11    1    4    4    0    0  0.84626315339E-02  0.54673702267E-01  0.62710850336E-01  0.83628593931E-01  0.51100000000E-03 0. -1.
</event>
<event>
 8    1  0.1112958E+005  0.1043930E+01  0.7957747E-01            NaN
         13   -1    0    0    0    0  0.00000000000E+00  0.00000000000E+00  0.74505805969E-08  0.10566000000E+00  0.10566000000E+00 0. -1.
     999900   -1    0    0    0    0 -0.00000000000E+00 -0.00000000000E+00 -0.74505805969E-08  0.93827000000E+00  0.93827000000E+00 0. -1.
     999902    2    1    2    0    0 -0.89880967563E-02  0.11766437133E-01 -0.17413600696E-01  0.10210724320E+01  0.10208165570E+01 0.  0.
     999903    2    3    3    0    0 -0.67193370832E-01 -0.77036735327E-01  0.77009512762E-01  0.12967488784E+00  0.20868727941E-01 0.  0.
         14    1    1    2    0    0  0.89880967563E-02 -0.11766437133E-01  0.17413600696E-01  0.22857568010E-01  0.00000000000E+00 0. -1.
     999901    1    3    3    0    0  0.58205274076E-01  0.88803172461E-01 -0.94423113458E-01  0.89139754415E+00  0.88000000000E+00 0. -1.
        -11    1    4    4    0    0 -0.24799708115E-01 -0.16833216675E-01  0.15595458422E-01  0.33791450850E-01  0.51100000000E-03 0.  1.
         11    1    4    4    0    0 -0.42393662717E-01 -0.60203518652E-01  0.61414054340E-01  0.95883436986E-01  0.51100000000E-03 0. -1.
</event>
<event>
 8    1  0.1112958E+005  0.1043930E+01  0.7957747E-01            NaN
         13   -1    0    0    0    0  0.00000000000E+00  0.00000000000E+00  0.74505805969E-08  0.10566000000E+00  0.10566000000E+00 0. -1.
     999900   -1    0    0    0    0 -0.00000000000E+00 -0.00000000000E+00 -0.74505805969E-08  0.93827000000E+00  0.93827000000E+00 0.  1.
     999902    2    1    2    0    0 -0.14730714012E-01 -0.53327932392E-02  0.28123126646E-01  0.10117377203E+01  0.10112254308E+01 0.  0.
     999903    2    3    3    0    0 -0.53037475762E-01  0.23961108185E-01 -0.10390001566E+00  0.12058360864E+00  0.18923130766E-01 0.  0.
         14    1    1    2    0    0  0.14730714012E-01  0.53327932392E-02 -0.28123126646E-01  0.32192279686E-01  0.00000000000E+00 0.  1.
     999901    1    3    3    0    0  0.38306761749E-01 -0.29293901424E-01  0.13202314230E+00  0.89115411168E+00  0.88000000000E+00 0. -1.
        -11    1    4    4    0    0 -0.57218127574E-02  0.77577052624E-02 -0.28610078374E-01  0.30194682275E-01  0.51100000000E-03 0. -1.
         11    1    4    4    0    0 -0.47315663004E-01  0.16203402923E-01 -0.75289937282E-01  0.90388926361E-01  0.51100000000E-03 0.  1.
</event>
<event>
 8    1  0.1112958E+005  0.1043930E+01  0.7957747E-01            NaN
         13   -1    0    0    0    0  0.00000000000E+00  0.00000000000E+00  0.74505805969E-08  0.10566000000E+00  0.10566000000E+00 0. -1.
     999900   -1    0    0    0    0 -0.00000000000E+00 -0.00000000000E+00 -0.74505805969E-08  0.93827000000E+00  0.93827000000E+00 0.  1.
     999902    2    1    2    0    0 -0.13196594015E-01  0.18482756469E-01  0.80382486738E-02  0.10198390095E+01  0.10195544270E+01 0.  0.
     999903    2    3    3    0    0 -0.24676382388E-01 -0.12103733746E+00  0.30188779509E-01  0.12849828446E+00  0.18479334185E-01 0.  0.
         14    1    1    2    0    0  0.13196594015E-01 -0.18482756469E-01 -0.80382486738E-02  0.24090990474E-01  0.00000000000E+00 0.  1.
     999901    1    3    3    0    0  0.11479788373E-01  0.13952009393E+00 -0.22150530835E-01  0.89134072507E+00  0.88000000000E+00 0. -1.
        -11    1    4    4    0    0 -0.11348874735E-01 -0.62680744395E-01  0.24930045826E-01  0.68406439620E-01  0.51100000000E-03 0. -1.
         11    1    4    4    0    0 -0.13327507653E-01 -0.58356593068E-01  0.52587336829E-02  0.60091844835E-01  0.51100000000E-03 0.  1.
</event>
<event>
 8    1  0.1112958E+005  0.1043930E+01  0.7957747E-01            NaN
         13   -1    0    0    0    0  0.00000000000E+00  0.00000000000E+00  0.74505805969E-08  0.10566000000E+00  0.10566000000E+00 0.  1.
     999900   -1    0    0    0    0 -0.00000000000E+00 -0.00000000000E+00 -0.74505805969E-08  0.93827000000E+00  0.93827000000E+00 0. -1.
     999902    2    1    2    0    0 -0.14230047222E-01 -0.15441208576E-01 -0.14602729343E-01  0.10183533530E+01  0.10180321148E+01 0.  0.
     999903    2    3    3    0    0  0.19868093342E-01 -0.53189466382E-01  0.11288829425E+00  0.12771224952E+00  0.18514622127E-01 0.  0.
         14    1    1    2    0    0  0.14230047222E-01  0.15441208576E-01  0.14602729343E-01  0.25576646975E-01  0.00000000000E+00 0.  1.
     999901    1    3    3    0    0 -0.34098140564E-01  0.37748257806E-01 -0.12749102359E+00  0.89064110351E+00  0.88000000000E+00 0. -1.
        -11    1    4    4    0    0  0.14907766484E-01 -0.15772140470E-01  0.35566988881E-01  0.41668618115E-01  0.51100000000E-03 0. -1.
         11    1    4    4    0    0  0.49603268583E-02 -0.37417325911E-01  0.77321305365E-01  0.86043631404E-01  0.51100000000E-03 0.  1.
</event>
<event>
 8    1  0.1112958E+005  0.1043930E+01  0.7957747E-01            NaN
         13   -1    0    0    0    0  0.00000000000E+00  0.00000000000E+00  0.74505805969E-08  0.10566000000E+00  0.10566000000E+00 0. -1.
     999900   -1    0    0    0    0 -0.00000000000E+00 -0.00000000000E+00 -0.74505805969E-08  0.93827000000E+00  0.93827000000E+00 0. -1.
     999902    2    1    2    0    0  0.14896214207E-01  0.12890931394E-01  0.13534098685E-01  0.10200292649E+01  0.10197492124E+01 0.  0.
     999903    2    3    3    0    0 -0.81209796612E-01 -0.96715901247E-01 -0.25834670934E-02  0.12789149585E+00  0.20014089782E-01 0.  0.
         14    1    1    2    0    0 -0.14896214207E-01 -0.12890931394E-01 -0.13534098685E-01  0.23900735075E-01  0.00000000000E+00 0.  1.
     999901    1    3    3    0    0  0.96106010819E-01  0.10960683264E+00  0.16117565778E-01  0.89213776907E+00  0.88000000000E+00 0.  1.
        -11    1    4    4    0    0 -0.34731749798E-01 -0.27260372487E-01  0.19173163909E-02  0.44196827661E-01  0.51100000000E-03 0.  1.
         11    1    4    4    0    0 -0.46478046814E-01 -0.69455528759E-01 -0.45007834843E-02  0.83694668192E-01  0.51100000000E-03 0. -1.
</event>
<event>
 8    1  0.1112958E+005  0.1043930E+01  0.7957747E-01            NaN
         13   -1    0    0    0    0  0.00000000000E+00  0.00000000000E+00  0.74505805969E-08  0.10566000000E+00  0.10566000000E+00 0.  1.
     999900   -1    0    0    0    0 -0.00000000000E+00 -0.00000000000E+00 -0.74505805969E-08  0.93827000000E+00  0.93827000000E+00 0. -1.
     999902    2    1    2    0    0 -0.22748595874E-01 -0.19648509942E-02 -0.51768904102E-02  0.10205171948E+01  0.10202485900E+01 0.  0.
     999903    2    3    3    0    0  0.23320148298E-01  0.55446729412E-01 -0.11405005569E+00  0.13075779760E+00  0.21725959390E-01 0.  0.
         14    1    1    2    0    0  0.22748595874E-01  0.19648509942E-02  0.51768904102E-02  0.23412805214E-01  0.00000000000E+00 0.  1.
     999901    1    3    3    0    0 -0.46068744172E-01 -0.57411580407E-01  0.10887316528E+00  0.88975939718E+00  0.88000000000E+00 0.  1.
        -11    1    4    4    0    0  0.35830618188E-02  0.66714193429E-03 -0.18504362948E-01  0.18866795686E-01  0.51100000000E-03 0. -1.
         11    1    4    4    0    0  0.19737086479E-01  0.54779587478E-01 -0.95545692745E-01  0.11189100192E+00  0.51100000000E-03 0.  1.
</event>
<event>
 8    1  0.1112958E+005  0.1043930E+01  0.7957747E-01            NaN
         13   -1    0    0    0    0  0.00000000000E+00  0.00000000000E+00  0.74505805969E-08  0.10566000000E+00  0.10566000000E+00 0. -1.
     999900   -1    0    0    0    0 -0.00000000000E+00 -0.00000000000E+00 -0.74505805969E-08  0.93827000000E+00  0.93827000000E+00 0.  1.
     999902    2    1    2    0    0 -0.96548855835E-02 -0.12311760987E-01 -0.17223175215E-01  0.10206612648E+01  0.10203959934E+01 0.  0.
     999903    2    3    3    0    0  0.33590073896E-01 -0.86319193812E-01  0.89204183064E-01  0.13011423670E+00  0.19825035461E-01 0.  0.
         14    1    1    2    0    0  0.96548855835E-02  0.12311760987E-01  0.17223175215E-01  0.23268735220E-01  0.00000000000E+00 0. -1.
     999901    1    3    3    0    0 -0.43244959480E-01  0.74007432825E-01 -0.10642735828E+00  0.89054702808E+00  0.88000000000E+00 0.  1.
        -11    1    4    4    0    0  0.16504671408E-01 -0.22725488041E-01  0.19325605148E-01  0.34096805133E-01  0.51100000000E-03 0.  1.
         11    1    4    4    0    0  0.17085402488E-01 -0.63593705771E-01  0.69878577916E-01  0.96017431566E-01  0.51100000000E-03 0. -1.
</event>
<event>
 8    1  0.1112958E+005  0.1043930E+01  0.7957747E-01            NaN
         13   -1    0    0    0    0  0.00000000000E+00  0.00000000000E+00  0.74505805969E-08  0.10566000000E+00  0.10566000000E+00 0. -1.
     999900   -1    0    0    0    0 -0.00000000000E+00 -0.00000000000E+00 -0.74505805969E-08  0.93827000000E+00  0.93827000000E+00 0. -1.
     999902    2    1    2    0    0 -0.11738999749E-01 -0.11365993712E-01  0.16789139625E-01  0.10205021290E+01  0.10202331744E+01 0.  0.
     999903    2    3    3    0    0 -0.19104207280E-01 -0.36893621874E-01  0.12542778083E+00  0.13342363170E+00  0.18537184837E-01 0.  0.
         14    1    1    2    0    0  0.11738999749E-01  0.11365993712E-01 -0.16789139625E-01  0.23427870955E-01  0.00000000000E+00 0. -1.
     999901    1    3    3    0    0  0.73652075308E-02  0.25527628162E-01 -0.10863864121E+00  0.88707849734E+00  0.88000000000E+00 0. -1.
        -11    1    4    4    0    0 -0.13614459248E-01 -0.14160581082E-01  0.79366023018E-01  0.81762474816E-01  0.51100000000E-03 0.  1.
         11    1    4    4    0    0 -0.54897480317E-02 -0.22733040792E-01  0.46061757814E-01  0.51661156888E-01  0.51100000000E-03 0. -1.
</event>
<event>
 8    1  0.1112958E+005  0.1043930E+01  0.7957747E-01            NaN
         13   -1    0    0    0    0  0.00000000000E+00  0.00000000000E+00  0.74505805969E-08  0.10566000000E+00  0.10566000000E+00 0. -1.
     999900   -1    0    0    0    0 -0.00000000000E+00 -0.00000000000E+00 -0.74505805969E-08  0.93827000000E+00  0.93827000000E+00 0.  1.
     999902    2    1    2    0    0  0.22663144688E-01 -0.71473065205E-02  0.35765510892E-02  0.10198988986E+01  0.10196157460E+01 0.  0.
     999903    2    3    3    0    0 -0.11362539672E+00 -0.23649958790E-01 -0.49302549192E-01  0.12768642204E+00  0.20075599295E-01 0.  0.
         14    1    1    2    0    0 -0.22663144688E-01  0.71473065205E-02 -0.35765510892E-02  0.24031101418E-01  0.00000000000E+00 0. -1.
     999901    1    3    3    0    0  0.13628854140E+00  0.16502652270E-01  0.52879100282E-01  0.89221247654E+00  0.88000000000E+00 0.  1.
        -11    1    4    4    0    0 -0.80665893371E-01 -0.23603454028E-01 -0.28703146786E-01  0.88815770851E-01  0.51100000000E-03 0.  1.
         11    1    4    4    0    0 -0.32959503344E-01 -0.46504762499E-04 -0.20599402406E-01  0.38870651190E-01  0.51100000000E-03 0. -1.
</event>
<event>
 7    1  0.1112958E+005  0.1043930E+01  0.7957747E-01            NaN
         13   -1    0    0    0    0  0.00000000000E+00  0.00000000000E+00  0.74505805969E-08  0.10566000000E+00  0.10566000000E+00 0.  1.
     999900   -1    0    0    0    0 -0.00000000000E+00 -0.00000000000E+00 -0.74505805969E-08  0.93827000000E+00  0.93827000000E+00 0. -1.
     999903    2    1    2    0    0 -0.73607304604E-01 -0.71987311845E-01  0.36043247909E-01  0.11102833914E+00  0.20687387791E-01 0.  0.
         14    1    1    2    0    0  0.22796756734E-01 -0.63413294075E-02  0.38113034474E-01  0.44860984977E-01  0.00000000000E+00 0.  1.
     999901    1    1    2    0    0  0.50810547870E-01  0.78328641252E-01 -0.74156282383E-01  0.88804067589E+00  0.88000000000E+00 0. -1.
        -11    1    3    3    0    0 -0.50697760875E-01 -0.54279190642E-01  0.34848259315E-01  0.82043621280E-01  0.51100000000E-03 0.  1.
         11    1    3    3    0    0 -0.22909543729E-01 -0.17708121203E-01  0.11949885941E-02  0.28984717855E-01  0.51100000000E-03 0. -1.
</event>
<event>
 8    1  0.1112958E+005  0.1043930E+01  0.7957747E-01            NaN
         13   -1    0    0    0    0  0.00000000000E+00  0.00000000000E+00  0.74505805969E-08  0.10566000000E+00  0.10566000000E+00 0. -1.
     999900   -1    0    0    0    0 -0.00000000000E+00 -0.00000000000E+00 -0.74505805969E-08  0.93827000000E+00  0.93827000000E+00 0. -1.
     999902    2    1    2    0    0  0.14014672973E-01  0.60544503875E-02 -0.20424374766E-01  0.10184305390E+01  0.10181112612E+01 0.  0.
     999903    2    3    3    0    0 -0.89791952143E-01 -0.54258779491E-01  0.66789909271E-01  0.12600696664E+00  0.20254723888E-01 0.  0.
         14    1    1    2    0    0 -0.14014672973E-01 -0.60544503875E-02  0.20424374766E-01  0.25499461026E-01  0.00000000000E+00 0. -1.
     999901    1    3    3    0    0  0.10380662512E+00  0.60313229878E-01 -0.87214284038E-01  0.89242357233E+00  0.88000000000E+00 0.  1.
        -11    1    4    4    0    0 -0.86360298711E-01 -0.50135353720E-01  0.67555564948E-01  0.12056396793E+00  0.51100000000E-03 0. -1.
         11    1    4    4    0    0 -0.34316534319E-02 -0.41234257709E-02 -0.76565567614E-03  0.54429987121E-02  0.51100000000E-03 0.  1.
</event>
<event>
 8    1  0.1112958E+005  0.1043930E+01  0.7957747E-01            NaN
         13   -1    0    0    0    0  0.00000000000E+00  0.00000000000E+00  0.74505805969E-08  0.10566000000E+00  0.10566000000E+00 0. -1.
     999900   -1    0    0    0    0 -0.00000000000E+00 -0.00000000000E+00 -0.74505805969E-08  0.93827000000E+00  0.93827000000E+00 0. -1.
     999902    2    1    2    0    0  0.86323333439E-02  0.14841569905E-01 -0.88789179403E-02  0.10246006296E+01  0.10244182865E+01 0.  0.
     999903    2    3    3    0    0  0.12153193132E+00  0.37658842463E-02  0.55253013051E-01  0.13500415107E+00  0.19723923061E-01 0.  0.
         14    1    1    2    0    0 -0.86323333439E-02 -0.14841569905E-01  0.88789179403E-02  0.19329370398E-01  0.00000000000E+00 0.  1.
     999901    1    3    3    0    0 -0.11289959798E+00  0.11075685658E-01 -0.64131930991E-01  0.88959647853E+00  0.88000000000E+00 0. -1.
        -11    1    4    4    0    0  0.55075940155E-01  0.70587152652E-02  0.16168379872E-01  0.57834784290E-01  0.51100000000E-03 0.  1.
         11    1    4    4    0    0  0.66455991167E-01 -0.32928310189E-02  0.39084633179E-01  0.77169366784E-01  0.51100000000E-03 0. -1.
</event>
<event>
 8    1  0.1112958E+005  0.1043930E+01  0.7957747E-01            NaN
         13   -1    0    0    0    0  0.00000000000E+00  0.00000000000E+00  0.74505805969E-08  0.10566000000E+00  0.10566000000E+00 0.  1.
     999900   -1    0    0    0    0 -0.00000000000E+00 -0.00000000000E+00 -0.74505805969E-08  0.93827000000E+00  0.93827000000E+00 0. -1.
     999902    2    1    2    0    0  0.79518362647E-02  0.10374958218E-01  0.19226701699E-01  0.10206805373E+01  0.10204157102E+01 0.  0.
     999903    2    3    3    0    0 -0.56386192531E-01  0.66614081733E-01  0.98342410130E-01  0.13300857295E+00  0.20080145762E-01 0.  0.
         14    1    1    2    0    0 -0.79518362647E-02 -0.10374958218E-01 -0.19226701699E-01  0.23249462709E-01  0.00000000000E+00 0.  1.
     999901    1    3    3    0    0  0.64338028795E-01 -0.56239123515E-01 -0.79115708431E-01  0.88767196434E+00  0.88000000000E+00 0. -1.
        -11    1    4    4    0    0 -0.18244795305E-01  0.29287830961E-01  0.26491269370E-01  0.43505149948E-01  0.51100000000E-03 0. -1.
         11    1    4    4    0    0 -0.38141397225E-01  0.37326250772E-01  0.71851140760E-01  0.89503422999E-01  0.51100000000E-03 0.  1.
</event>
<event>
 8    1  0.1112958E+005  0.1043930E+01  0.7957747E-01            NaN
         13   -1    0    0    0    0  0.00000000000E+00  0.00000000000E+00  0.74505805969E-08  0.10566000000E+00  0.10566000000E+00 0. -1.
     999900   -1    0    0    0    0 -0.00000000000E+00 -0.00000000000E+00 -0.74505805969E-08  0.93827000000E+00  0.93827000000E+00 0. -1.
     999902    2    1    2    0    0  0.19869636301E-01 -0.86526319521E-02 -0.10052523800E-01  0.10200401754E+01  0.10197603815E+01 0.  0.
     999903    2    3    3    0    0  0.52663121781E-01  0.95801124708E-01 -0.69889923105E-01  0.13123957099E+00  0.19696795478E-01 0.  0.
         14    1    1    2    0    0 -0.19869636301E-01  0.86526319521E-02  0.10052523800E-01  0.23889824637E-01  0.00000000000E+00 0. -1.
     999901    1    3    3    0    0 -0.32793485480E-01 -0.10445375666E+00  0.59837399305E-01  0.88880060437E+00  0.88000000000E+00 0.  1.
        -11    1    4    4    0    0  0.22666732028E-01  0.43902313030E-01 -0.43149426798E-01  0.65599755977E-01  0.51100000000E-03 0. -1.
         11    1    4    4    0    0  0.29996389753E-01  0.51898811678E-01 -0.26740496308E-01  0.65639815017E-01  0.51100000000E-03 0.  1.
</event>
<event>
 8    1  0.1112958E+005  0.1043930E+01  0.7957747E-01            NaN
         13   -1    0    0    0    0  0.00000000000E+00  0.00000000000E+00  0.74505805969E-08  0.10566000000E+00  0.10566000000E+00 0. -1.
     999900   -1    0    0    0    0 -0.00000000000E+00 -0.00000000000E+00 -0.74505805969E-08  0.93827000000E+00  0.93827000000E+00 0.  1.
     999902    2    1    2    0    0 -0.14218237914E-01 -0.45308344214E-02  0.17215480092E-01  0.10211471226E+01  0.10208929358E+01 0.  0.
     999903    2    3    3    0    0 -0.34285930113E-02  0.12910800888E+00 -0.88116486958E-03  0.13080828512E+00  0.20721915930E-01 0.  0.
         14    1    1    2    0    0  0.14218237914E-01  0.45308344214E-02 -0.17215480092E-01  0.22782877447E-01  0.00000000000E+00 0.  1.
     999901    1    3    3    0    0 -0.10789644903E-01 -0.13363884330E+00  0.18096644962E-01  0.89033883743E+00  0.88000000000E+00 0.  1.
        -11    1    4    4    0    0 -0.83848657295E-02  0.29818758650E-01  0.42079988253E-02  0.31263920353E-01  0.51100000000E-03 0. -1.
         11    1    4    4    0    0  0.49562727181E-02  0.99289250226E-01 -0.50891636949E-02  0.99544364772E-01  0.51100000000E-03 0.  1.
</event>
<event>
 8    1  0.1112958E+005  0.1043930E+01  0.7957747E-01            NaN
         13   -1    0    0    0    0  0.00000000000E+00  0.00000000000E+00  0.74505805969E-08  0.10566000000E+00  0.10566000000E+00 0. -1.
     999900   -1    0    0    0    0 -0.00000000000E+00 -0.00000000000E+00 -0.74505805969E-08  0.93827000000E+00  0.93827000000E+00 0. -1.
     999902    2    1    2    0    0  0.55738002266E-02 -0.23061752443E-02  0.21194050500E-01  0.10218942683E+01  0.10216566557E+01 0.  0.
     999903    2    3    3    0    0  0.26016652940E-01 -0.12832869104E+00  0.12973656738E-02  0.13245879413E+00  0.19963211431E-01 0.  0.
         14    1    1    2    0    0 -0.55738002266E-02  0.23061752443E-02 -0.21194050500E-01  0.22035731661E-01  0.00000000000E+00 0.  1.
     999901    1    3    3    0    0 -0.20442852713E-01  0.12602251580E+00  0.19896684826E-01  0.88943547421E+00  0.88000000000E+00 0.  1.
        -11    1    4    4    0    0 -0.28430134429E-02 -0.13542301334E-01  0.26144885753E-02  0.14091604677E-01  0.51100000000E-03 0.  1.
         11    1    4    4    0    0  0.28859666383E-01 -0.11478638971E+00 -0.13171229015E-02  0.11836718945E+00  0.51100000000E-03 0. -1.
</event>
<event>
 7    1  0.1112958E+005  0.1043930E+01  0.7957747E-01            NaN
         13   -1    0    0    0    0  0.00000000000E+00  0.00000000000E+00  0.74505805969E-08  0.10566000000E+00  0.10566000000E+00 0.  1.
     999900   -1    0    0    0    0 -0.00000000000E+00 -0.00000000000E+00 -0.74505805969E-08  0.93827000000E+00  0.93827000000E+00 0. -1.
     999903    2    1    2    0    0 -0.42142806652E-02 -0.11192810629E+00  0.84681129415E-02  0.11410441317E+00  0.20061082463E-01 0.  0.
         14    1    1    2    0    0 -0.30511898094E-01  0.23360761742E-01 -0.22608936393E-01  0.44585481037E-01  0.00000000000E+00 0.  1.
     999901    1    1    2    0    0  0.34726178760E-01  0.88567344548E-01  0.14140823451E-01  0.88524010579E+00  0.88000000000E+00 0.  1.
        -11    1    3    3    0    0 -0.37374864696E-03 -0.37535885980E-01  0.12322104497E-01  0.39511742616E-01  0.51100000000E-03 0. -1.
         11    1    3    3    0    0 -0.38405320183E-02 -0.74392220310E-01 -0.38539915558E-02  0.74592670557E-01  0.51100000000E-03 0.  1.
</event>
<event>
 8    1  0.1112958E+005  0.1043930E+01  0.7957747E-01            NaN
         13   -1    0    0    0    0  0.00000000000E+00  0.00000000000E+00  0.74505805969E-08  0.10566000000E+00  0.10566000000E+00 0. -1.
     999900   -1    0    0    0    0 -0.00000000000E+00 -0.00000000000E+00 -0.74505805969E-08  0.93827000000E+00  0.93827000000E+00 0. -1.
     999902    2    1    2    0    0  0.20475763211E-01 -0.15625101368E-01 -0.56793437080E-02  0.10175547158E+01  0.10172128312E+01 0.  0.
     999903    2    3    3    0    0  0.10571790440E+00  0.94346156418E-02 -0.73525137115E-01  0.13048241675E+00  0.18826258537E-01 0.  0.
         14    1    1    2    0    0 -0.20475763211E-01  0.15625101368E-01  0.56793437080E-02  0.26375284203E-01  0.00000000000E+00 0.  1.
     999901    1    3    3    0    0 -0.85242141188E-01 -0.25059717010E-01  0.67845793407E-01  0.88707229905E+00  0.88000000000E+00 0.  1.
        -11    1    4    4    0    0  0.35830761418E-01  0.12006389359E-01 -0.23625213895E-01  0.44569145178E-01  0.51100000000E-03 0.  1.
         11    1    4    4    0    0  0.69887142981E-01 -0.25717737175E-02 -0.49899923220E-01  0.85913271574E-01  0.51100000000E-03 0. -1.
</event>
<event>
 8    1  0.1112958E+005  0.1043930E+01  0.7957747E-01            NaN
         13   -1    0    0    0    0  0.00000000000E+00  0.00000000000E+00  0.74505805969E-08  0.10566000000E+00  0.10566000000E+00 0.  1.
     999900   -1    0    0    0    0 -0.00000000000E+00 -0.00000000000E+00 -0.74505805969E-08  0.93827000000E+00  0.93827000000E+00 0. -1.
     999902    2    1    2    0    0  0.39083506201E-02  0.92433992215E-02  0.23185594648E-01  0.10186656490E+01  0.10183523049E+01 0.  0.
     999903    2    3    3    0    0  0.84864515282E-01 -0.89408448010E-02  0.98115042684E-01  0.13159237719E+00  0.20200680020E-01 0.  0.
         14    1    1    2    0    0 -0.39083506201E-02 -0.92433992215E-02 -0.23185594648E-01  0.25264351029E-01  0.00000000000E+00 0. -1.
     999901    1    3    3    0    0 -0.80956164662E-01  0.18184244022E-01 -0.74929448036E-01  0.88707327178E+00  0.88000000000E+00 0. -1.
        -11    1    4    4    0    0  0.46215585377E-01  0.43377936457E-02  0.45872934085E-01  0.65263190146E-01  0.51100000000E-03 0. -1.
         11    1    4    4    0    0  0.38648929906E-01 -0.13278638447E-01  0.52242108599E-01  0.66329187043E-01  0.51100000000E-03 0.  1.
</event>
<event>
 8    1  0.1112958E+005  0.1043930E+01  0.7957747E-01            NaN
         13   -1    0    0    0    0  0.00000000000E+00  0.00000000000E+00  0.74505805969E-08  0.10566000000E+00  0.10566000000E+00 0. -1.
     999900   -1    0    0    0    0 -0.00000000000E+00 -0.00000000000E+00 -0.74505805969E-08  0.93827000000E+00  0.93827000000E+00 0.  1.
     999902    2    1    2    0    0  0.17644770711E-01 -0.14789454125E-01  0.51797392244E-02  0.10203313648E+01  0.10200584289E+01 0.  0.
     999903    2    3    3    0    0  0.10098632499E+00 -0.80809375246E-01  0.27478771375E-01  0.13365121302E+00  0.19472311195E-01 0.  0.
         14    1    1    2    0    0 -0.17644770711E-01  0.14789454125E-01 -0.51797392244E-02  0.23598635240E-01  0.00000000000E+00 0. -1.
     999901    1    3    3    0    0 -0.83341554277E-01  0.66019921121E-01 -0.22299032151E-01  0.88668015174E+00  0.88000000000E+00 0.  1.
        -11    1    4    4    0    0  0.52185746027E-01 -0.33653326219E-01  0.56085641610E-02  0.62350746323E-01  0.51100000000E-03 0. -1.
         11    1    4    4    0    0  0.48800578961E-01 -0.47156049027E-01  0.21870207214E-01  0.71300466698E-01  0.51100000000E-03 0.  1.
</event>
<event>
 8    1  0.1112958E+005  0.1043930E+01  0.7957747E-01            NaN
         13   -1    0    0    0    0  0.00000000000E+00  0.00000000000E+00  0.74505805969E-08  0.10566000000E+00  0.10566000000E+00 0. -1.
     999900   -1    0    0    0    0 -0.00000000000E+00 -0.00000000000E+00 -0.74505805969E-08  0.93827000000E+00  0.93827000000E+00 0. -1.
     999902    2    1    2    0    0 -0.21856774464E-01  0.92947102904E-02 -0.68597868751E-03  0.10201690910E+01  0.10198923441E+01 0.  0.
     999903    2    3    3    0    0 -0.52253667613E-01  0.20515839529E-01  0.11750593892E+00  0.13167642686E+00  0.19485642352E-01 0.  0.
         14    1    1    2    0    0  0.21856774464E-01 -0.92947102904E-02  0.68597868751E-03  0.23760908992E-01  0.00000000000E+00 0.  1.
     999901    1    3    3    0    0  0.30396893149E-01 -0.11221129239E-01 -0.11819191761E+00  0.88849266415E+00  0.88000000000E+00 0. -1.
        -11    1    4    4    0    0 -0.79274224970E-02  0.68618906760E-02  0.39968600622E-01  0.41324081693E-01  0.51100000000E-03 0.  1.
         11    1    4    4    0    0 -0.44326245116E-01  0.13653948853E-01  0.77537338302E-01  0.90352345168E-01  0.51100000000E-03 0. -1.
</event>
<event>
 8    1  0.1119904E+005  0.1043930E+01  0.7957747E-01            NaN
         13   -1    0    0    0    0  0.00000000000E+00  0.00000000000E+00  0.74505805969E-08  0.10566000000E+00  0.10566000000E+00 0. -1.
     999900   -1    0    0    0    0 -0.00000000000E+00 -0.00000000000E+00 -0.74505805969E-08  0.93827000000E+00  0.93827000000E+00 0.  1.
     999902    2    1    2    0    0  0.21800834946E-01 -0.15854463864E-02 -0.77902149213E-02  0.10207248822E+01  0.10204610760E+01 0.  0.
     999903    2    3    3    0    0 -0.25359970842E-01  0.86885701217E-01 -0.92267012084E-01  0.13101278559E+00  0.21421840988E-01 0.  0.
         14    1    1    2    0    0 -0.21800834946E-01  0.15854463864E-02  0.77902149213E-02  0.23205117822E-01  0.00000000000E+00 0. -1.
     999901    1    3    3    0    0  0.47160805789E-01 -0.88471147604E-01  0.84476797163E-01  0.88971209659E+00  0.88000000000E+00 0.  1.
        -11    1    4    4    0    0 -0.43064716191E-02  0.28773927377E-01 -0.17310813855E-01  0.33858676759E-01  0.51100000000E-03 0.  1.
         11    1    4    4    0    0 -0.21053499223E-01  0.58111773840E-01 -0.74956198229E-01  0.97154108829E-01  0.51100000000E-03 0. -1.
</event>
<event>
 8    1  0.1112958E+005  0.1043930E+01  0.7957747E-01            NaN
         13   -1    0    0    0    0  0.00000000000E+00  0.00000000000E+00  0.74505805969E-08  0.10566000000E+00  0.10566000000E+00 0. -1.
     999900   -1    0    0    0    0 -0.00000000000E+00 -0.00000000000E+00 -0.74505805969E-08  0.93827000000E+00  0.93827000000E+00 0.  1.
     999902    2    1    2    0    0  0.85455172492E-02 -0.10211282832E-01 -0.20024933655E-01  0.10198822531E+01  0.10195987035E+01 0.  0.
     999903    2    3    3    0    0  0.11189823421E+00  0.49504650801E-01 -0.43295128773E-01  0.13151899475E+00  0.21233288371E-01 0.  0.
         14    1    1    2    0    0 -0.85455172492E-02  0.10211282832E-01  0.20024933655E-01  0.24047746881E-01  0.00000000000E+00 0. -1.
     999901    1    3    3    0    0 -0.10335271696E+00 -0.59715933633E-01  0.23270195118E-01  0.88836325837E+00  0.88000000000E+00 0. -1.
        -11    1    4    4    0    0  0.84637978337E-01  0.29526732806E-01 -0.24896003377E-01  0.93034872130E-01  0.51100000000E-03 0. -1.
         11    1    4    4    0    0  0.27260255874E-01  0.19977917995E-01 -0.18399125397E-01  0.38484122623E-01  0.51100000000E-03 0.  1.
</event>
<event>
 8    1  0.1112958E+005  0.1043930E+01  0.7957747E-01            NaN
         13   -1    0    0    0    0  0.00000000000E+00  0.00000000000E+00  0.74505805969E-08  0.10566000000E+00  0.10566000000E+00 0.  1.
     999900   -1    0    0    0    0 -0.00000000000E+00 -0.00000000000E+00 -0.74505805969E-08  0.93827000000E+00  0.93827000000E+00 0.  1.
     999902    2    1    2    0    0  0.18920024114E-01 -0.11707441433E-01 -0.85931111525E-02  0.10200789401E+01  0.10198000643E+01 0.  0.
     999903    2    3    3    0    0  0.27689567154E-01 -0.21356802991E-01  0.12364496725E+00  0.13010314021E+00  0.20394214950E-01 0.  0.
         14    1    1    2    0    0 -0.18920024114E-01  0.11707441433E-01  0.85931111525E-02  0.23851059865E-01  0.00000000000E+00 0.  1.
     999901    1    3    3    0    0 -0.87695430398E-02  0.96493615584E-02 -0.13223807841E+00  0.88997579992E+00  0.88000000000E+00 0.  1.
        -11    1    4    4    0    0  0.79144785634E-02  0.19668922050E-02  0.44712454102E-01  0.45452968096E-01  0.51100000000E-03 0.  1.
         11    1    4    4    0    0  0.19775088590E-01 -0.23323695196E-01  0.78932513152E-01  0.84650172119E-01  0.51100000000E-03 0. -1.
</event>
<event>
 8    1  0.1112958E+005  0.1043930E+01  0.7957747E-01            NaN
         13   -1    0    0    0    0  0.00000000000E+00  0.00000000000E+00  0.74505805969E-08  0.10566000000E+00  0.10566000000E+00 0. -1.
     999900   -1    0    0    0    0 -0.00000000000E+00 -0.00000000000E+00 -0.74505805969E-08  0.93827000000E+00  0.93827000000E+00 0.  1.
     999902    2    1    2    0    0  0.87381106076E-02  0.21406233019E-02 -0.21768142068E-01  0.10203760438E+01  0.10201041524E+01 0.  0.
     999903    2    3    3    0    0 -0.55989525257E-01 -0.11267799513E+00 -0.28656191943E-01  0.13053312099E+00  0.19661149853E-01 0.  0.
         14    1    1    2    0    0 -0.87381106076E-02 -0.21406233019E-02  0.21768142068E-01  0.23553956233E-01  0.00000000000E+00 0. -1.
     999901    1    3    3    0    0  0.64727635865E-01  0.11481861843E+00  0.68880498745E-02  0.88984292278E+00  0.88000000000E+00 0. -1.
        -11    1    4    4    0    0 -0.84216118948E-02 -0.35278193719E-01 -0.46878790937E-02  0.36574743067E-01  0.51100000000E-03 0.  1.
         11    1    4    4    0    0 -0.47567913362E-01 -0.77399801413E-01 -0.23968312849E-01  0.93958377925E-01  0.51100000000E-03 0. -1.
</event>
<event>
 8    1  0.1112958E+005  0.1043930E+01  0.7957747E-01            NaN
         13   -1    0    0    0    0  0.00000000000E+00  0.00000000000E+00  0.74505805969E-08  0.10566000000E+00  0.10566000000E+00 0. -1.
     999900   -1    0    0    0    0 -0.00000000000E+00 -0.00000000000E+00 -0.74505805969E-08  0.93827000000E+00  0.93827000000E+00 0. -1.
     999902    2    1    2    0    0  0.18544516712E-01  0.51269749727E-02 -0.14197577325E-01  0.10200185765E+01  0.10197382704E+01 0.  0.
     999903    2    3    3    0    0  0.36626939167E-01  0.37295218268E-01 -0.12038981158E+00  0.13286663883E+00  0.20672953383E-01 0.  0.
         14    1    1    2    0    0 -0.18544516712E-01 -0.51269749727E-02  0.14197577325E-01  0.23911423511E-01  0.00000000000E+00 0. -1.
     999901    1    3    3    0    0 -0.18082422455E-01 -0.32168243295E-01  0.10619223426E+00  0.88715193766E+00  0.88000000000E+00 0.  1.
        -11    1    4    4    0    0  0.25283404422E-01  0.36228460414E-01 -0.86871893311E-01  0.97461473678E-01  0.51100000000E-03 0.  1.
         11    1    4    4    0    0  0.11343534744E-01  0.10667578533E-02 -0.33517918274E-01  0.35405165149E-01  0.51100000000E-03 0. -1.
</event>
<event>
 8    1  0.1112958E+005  0.1043930E+01  0.7957747E-01            NaN
         13   -1    0    0    0    0  0.00000000000E+00  0.00000000000E+00  0.74505805969E-08  0.10566000000E+00  0.10566000000E+00 0.  1.
     999900   -1    0    0    0    0 -0.00000000000E+00 -0.00000000000E+00 -0.74505805969E-08  0.93827000000E+00  0.93827000000E+00 0.  1.
     999902    2    1    2    0    0  0.14122652306E-01 -0.11091922638E-01  0.16930942357E-01  0.10192493018E+01  0.10189504415E+01 0.  0.
     999903    2    3    3    0    0 -0.11808707183E+00 -0.45154115139E-01 -0.96975559806E-02  0.12832353548E+00  0.19734146011E-01 0.  0.
         14    1    1    2    0    0 -0.14122652306E-01  0.11091922638E-01 -0.16930942357E-01  0.24680698228E-01  0.00000000000E+00 0. -1.
     999901    1    3    3    0    0  0.13220972414E+00  0.34062192501E-01  0.26628498337E-01  0.89092576629E+00  0.88000000000E+00 0. -1.
        -11    1    4    4    0    0 -0.51505269146E-01 -0.26500976438E-01 -0.11926161935E-01  0.59140417326E-01  0.51100000000E-03 0. -1.
         11    1    4    4    0    0 -0.66581802686E-01 -0.18653138701E-01  0.22286059546E-02  0.69183118156E-01  0.51100000000E-03 0.  1.
</event>
<event>
 8    1  0.1112958E+005  0.1043930E+01  0.7957747E-01            NaN
         13   -1    0    0    0    0  0.00000000000E+00  0.00000000000E+00  0.74505805969E-08  0.10566000000E+00  0.10566000000E+00 0.  1.
     999900   -1    0    0    0    0 -0.00000000000E+00 -0.00000000000E+00 -0.74505805969E-08  0.93827000000E+00  0.93827000000E+00 0. -1.
     999902    2    1    2    0    0 -0.23084817831E-01  0.11711878773E-02 -0.52524286888E-02  0.10202262344E+01  0.10199508326E+01 0.  0.
     999903    2    3    3    0    0 -0.76098543252E-01  0.10604301752E+00 -0.64349372876E-02  0.13241434328E+00  0.21355093956E-01 0.  0.
         14    1    1    2    0    0  0.23084817831E-01 -0.11711878773E-02  0.52524286888E-02  0.23703765576E-01  0.00000000000E+00 0. -1.
     999901    1    3    3    0    0  0.53013725421E-01 -0.10487182964E+00  0.11825085988E-02  0.88781189115E+00  0.88000000000E+00 0.  1.
        -11    1    4    4    0    0 -0.46195900035E-01  0.46543671613E-01 -0.80768719946E-03  0.65584205620E-01  0.51100000000E-03 0. -1.
         11    1    4    4    0    0 -0.29902643218E-01  0.59499345906E-01 -0.56272500882E-02  0.66830137657E-01  0.51100000000E-03 0.  1.
</event>
<event>
 8    1  0.1112958E+005  0.1043930E+01  0.7957747E-01            NaN
         13   -1    0    0    0    0  0.00000000000E+00  0.00000000000E+00  0.74505805969E-08  0.10566000000E+00  0.10566000000E+00 0. -1.
     999900   -1    0    0    0    0 -0.00000000000E+00 -0.00000000000E+00 -0.74505805969E-08  0.93827000000E+00  0.93827000000E+00 0.  1.
     999902    2    1    2    0    0  0.85689858087E-02  0.21500202833E-01  0.49482691282E-02  0.10202620553E+01  0.10199874949E+01 0.  0.
     999903    2    3    3    0    0 -0.60137399258E-02 -0.30312334519E-01  0.12483215694E+00  0.13050403117E+00  0.22208828257E-01 0.  0.
         14    1    1    2    0    0 -0.85689858087E-02 -0.21500202833E-01 -0.49482691282E-02  0.23667944715E-01  0.00000000000E+00 0.  1.
     999901    1    3    3    0    0  0.14582725734E-01  0.51812537352E-01 -0.11988388782E+00  0.88975802411E+00  0.88000000000E+00 0.  1.
        -11    1    4    4    0    0 -0.12122710084E-01 -0.21434189297E-01  0.61314175532E-01  0.66076272691E-01  0.51100000000E-03 0.  1.
         11    1    4    4    0    0  0.61089701583E-02 -0.88781452211E-02  0.63517981413E-01  0.64427758480E-01  0.51100000000E-03 0. -1.
</event>
<event>
 8    1  0.1112958E+005  0.1043930E+01  0.7957747E-01            NaN
         13   -1    0    0    0    0  0.00000000000E+00  0.00000000000E+00  0.74505805969E-08  0.10566000000E+00  0.10566000000E+00 0.  1.
     999900   -1    0    0    0    0 -0.00000000000E+00 -0.00000000000E+00 -0.74505805969E-08  0.93827000000E+00  0.93827000000E+00 0. -1.
     999902    2    1    2    0    0  0.99471860267E-02 -0.18720784604E-01  0.13711395930E-01  0.10186828880E+01  0.10183699768E+01 0.  0.
     999903    2    3    3    0    0  0.17230290544E-02  0.10111614572E+00 -0.72918872463E-01  0.12630778188E+00  0.20224985728E-01 0.  0.
         14    1    1    2    0    0 -0.99471860267E-02  0.18720784604E-01 -0.13711395930E-01  0.25247112001E-01  0.00000000000E+00 0. -1.
     999901    1    3    3    0    0  0.82241569723E-02 -0.11983693032E+00  0.86630268393E-01  0.89237510612E+00  0.88000000000E+00 0.  1.
        -11    1    4    4    0    0 -0.22126303852E-02  0.41728941855E-03 -0.22348821092E-02  0.32133600363E-02  0.51100000000E-03 0. -1.
         11    1    4    4    0    0  0.39356594397E-02  0.10069885630E+00 -0.70683990354E-01  0.12309442184E+00  0.51100000000E-03 0.  1.
</event>
<event>
 8    1  0.1112958E+005  0.1043930E+01  0.7957747E-01            NaN
         13   -1    0    0    0    0  0.00000000000E+00  0.00000000000E+00  0.74505805969E-08  0.10566000000E+00  0.10566000000E+00 0.  1.
     999900   -1    0    0    0    0 -0.00000000000E+00 -0.00000000000E+00 -0.74505805969E-08  0.93827000000E+00  0.93827000000E+00 0.  1.
     999902    2    1    2    0    0  0.34021070957E-02  0.22222744896E-01 -0.57338690500E-02  0.10207286643E+01  0.10204649451E+01 0.  0.
     999903    2    3    3    0    0  0.11540864354E+00 -0.56139886024E-01  0.62871877870E-02  0.13009368188E+00  0.20346880019E-01 0.  0.
         14    1    1    2    0    0 -0.34021070957E-02 -0.22222744896E-01  0.57338690500E-02  0.23201335688E-01  0.00000000000E+00 0. -1.
     999901    1    3    3    0    0 -0.11200653645E+00  0.78362630920E-01 -0.12021056837E-01  0.89063498244E+00  0.88000000000E+00 0.  1.
        -11    1    4    4    0    0  0.77785551120E-01 -0.26971811885E-01  0.44028740339E-02  0.82448268752E-01  0.51100000000E-03 0. -1.
         11    1    4    4    0    0  0.37623092423E-01 -0.29168074139E-01  0.18843137531E-02  0.47645413124E-01  0.51100000000E-03 0.  1.
</event>
<event>
 8    1  0.1112958E+005  0.1043930E+01  0.7957747E-01            NaN
         13   -1    0    0    0    0  0.00000000000E+00  0.00000000000E+00  0.74505805969E-08  0.10566000000E+00  0.10566000000E+00 0. -1.
     999900   -1    0    0    0    0 -0.00000000000E+00 -0.00000000000E+00 -0.74505805969E-08  0.93827000000E+00  0.93827000000E+00 0.  1.
     999902    2    1    2    0    0 -0.38063135104E-02  0.12311407025E-01  0.18376792200E-01  0.10214852844E+01  0.10212386700E+01 0.  0.
     999903    2    3    3    0    0 -0.11438923005E+00  0.42726208472E-01  0.50529923164E-01  0.13346081100E+00  0.18657172782E-01 0.  0.
         14    1    1    2    0    0  0.38063135104E-02 -0.12311407025E-01 -0.18376792200E-01  0.22444715570E-01  0.00000000000E+00 0.  1.
     999901    1    3    3    0    0  0.11058291654E+00 -0.30414801447E-01 -0.32153130963E-01  0.88802447343E+00  0.88000000000E+00 0.  1.
        -11    1    4    4    0    0 -0.85471944314E-01  0.26266094258E-01  0.29793843820E-01  0.94251234596E-01  0.51100000000E-03 0. -1.
         11    1    4    4    0    0 -0.28917285736E-01  0.16460114213E-01  0.20736079343E-01  0.39209576404E-01  0.51100000000E-03 0.  1.
</event>
<event>
 8    1  0.1112958E+005  0.1043930E+01  0.7957747E-01            NaN
         13   -1    0    0    0    0  0.00000000000E+00  0.00000000000E+00  0.74505805969E-08  0.10566000000E+00  0.10566000000E+00 0. -1.
     999900   -1    0    0    0    0 -0.00000000000E+00 -0.00000000000E+00 -0.74505805969E-08  0.93827000000E+00  0.93827000000E+00 0.  1.
     999902    2    1    2    0    0 -0.64981765482E-02  0.22092677201E-01 -0.81130067608E-02  0.10195141534E+01  0.10192217499E+01 0.  0.
     999903    2    3    3    0    0 -0.59355887036E-01 -0.97199511262E-01  0.54216457489E-01  0.12771287182E+00  0.20007174996E-01 0.  0.
         14    1    1    2    0    0  0.64981765482E-02 -0.22092677201E-01  0.81130067608E-02  0.24415846556E-01  0.00000000000E+00 0. -1.
     999901    1    3    3    0    0  0.52857710488E-01  0.11929218846E+00 -0.62329464250E-01  0.89180128162E+00  0.88000000000E+00 0. -1.
        -11    1    4    4    0    0 -0.26564477945E-01 -0.62031920796E-01  0.33760355610E-01  0.75456301381E-01  0.51100000000E-03 0.  1.
         11    1    4    4    0    0 -0.32791409091E-01 -0.35167590466E-01  0.20456101879E-01  0.52256570442E-01  0.51100000000E-03 0. -1.
</event>
<event>
 8    1  0.1112958E+005  0.1043930E+01  0.7957747E-01            NaN
         13   -1    0    0    0    0  0.00000000000E+00  0.00000000000E+00  0.74505805969E-08  0.10566000000E+00  0.10566000000E+00 0. -1.
     999900   -1    0    0    0    0 -0.00000000000E+00 -0.00000000000E+00 -0.74505805969E-08  0.93827000000E+00  0.93827000000E+00 0. -1.
     999902    2    1    2    0    0  0.76495269657E-02 -0.51232037235E-02  0.16442016602E-01  0.10250858394E+01  0.10249126186E+01 0.  0.
     999903    2    3    3    0    0  0.13133489586E+00 -0.29940306193E-01 -0.72116843579E-03  0.13592413645E+00  0.18154172507E-01 0.  0.
         14    1    1    2    0    0 -0.76495269657E-02  0.51232037235E-02 -0.16442016602E-01  0.18844160611E-01  0.00000000000E+00 0.  1.
     999901    1    3    3    0    0 -0.12368536890E+00  0.24817102470E-01  0.17163185038E-01  0.88916170294E+00  0.88000000000E+00 0.  1.
        -11    1    4    4    0    0  0.89111156739E-01 -0.17489095081E-01 -0.85312537262E-02  0.91212444947E-01  0.51100000000E-03 0. -1.
         11    1    4    4    0    0  0.42223739124E-01 -0.12451211112E-01  0.78100852904E-02  0.44711691502E-01  0.51100000000E-03 0.  1.
</event>
<event>
 8    1  0.1112958E+005  0.1043930E+01  0.7957747E-01            NaN
         13   -1    0    0    0    0  0.00000000000E+00  0.00000000000E+00  0.74505805969E-08  0.10566000000E+00  0.10566000000E+00 0.  1.
     999900   -1    0    0    0    0 -0.00000000000E+00 -0.00000000000E+00 -0.74505805969E-08  0.93827000000E+00  0.93827000000E+00 0. -1.
     999902    2    1    2    0    0  0.20389862402E-01 -0.79643740694E-02 -0.76065970054E-02  0.10207559183E+01  0.10204928254E+01 0.  0.
     999903    2    3    3    0    0 -0.10219979111E+00  0.34868697408E-01  0.66086404104E-01  0.12817900088E+00  0.20045450798E-01 0.  0.
         14    1    1    2    0    0 -0.20389862402E-01  0.79643740694E-02  0.76065970054E-02  0.23174081666E-01  0.00000000000E+00 0.  1.
     999901    1    3    3    0    0  0.12258965351E+00 -0.42833071478E-01 -0.73693001109E-01  0.89257691745E+00  0.88000000000E+00 0. -1.
        -11    1    4    4    0    0 -0.90161970006E-01  0.34857863222E-01  0.52440339451E-01  0.10997500528E+00  0.51100000000E-03 0.  1.
         11    1    4    4    0    0 -0.12037821101E-01  0.10834186804E-04  0.13646064653E-01  0.18203995598E-01  0.51100000000E-03 0. -1.
</event>
<event>
 7    1  0.1112958E+005  0.1043930E+01  0.7957747E-01            NaN
         13   -1    0    0    0    0  0.00000000000E+00  0.00000000000E+00  0.74505805969E-08  0.10566000000E+00  0.10566000000E+00 0.  1.
     999900   -1    0    0    0    0 -0.00000000000E+00 -0.00000000000E+00 -0.74505805969E-08  0.93827000000E+00  0.93827000000E+00 0. -1.
     999903    2    1    2    0    0  0.40372364374E-01 -0.97631552249E-01  0.39051474864E-01  0.11423514402E+00  0.19047378863E-01 0.  0.
         14    1    1    2    0    0 -0.38846091785E-02 -0.35046864133E-02  0.39345190388E-01  0.39691523301E-01  0.00000000000E+00 0.  1.
     999901    1    1    2    0    0 -0.36487755195E-01  0.10113623866E+00 -0.78396665251E-01  0.89000333267E+00  0.88000000000E+00 0. -1.
        -11    1    3    3    0    0  0.12765797798E-01 -0.55249653646E-01  0.22586832596E-01  0.61040281365E-01  0.51100000000E-03 0.  1.
         11    1    3    3    0    0  0.27606566576E-01 -0.42381898603E-01  0.16464642267E-01  0.53194862659E-01  0.51100000000E-03 0. -1.
</event>
<event>
 8    1  0.1112958E+005  0.1043930E+01  0.7957747E-01            NaN
         13   -1    0    0    0    0  0.00000000000E+00  0.00000000000E+00  0.74505805969E-08  0.10566000000E+00  0.10566000000E+00 0. -1.
     999900   -1    0    0    0    0 -0.00000000000E+00 -0.00000000000E+00 -0.74505805969E-08  0.93827000000E+00  0.93827000000E+00 0.  1.
     999902    2    1    2    0    0  0.82415157283E-02 -0.19632901050E-01 -0.11258356462E-01  0.10198442371E+01  0.10195597795E+01 0.  0.
     999903    2    3    3    0    0  0.12173444942E+00  0.25841338351E-01 -0.36263903239E-01  0.13103951735E+00  0.19215449145E-01 0.  0.
         14    1    1    2    0    0 -0.82415157283E-02  0.19632901050E-01  0.11258356462E-01  0.24085762919E-01  0.00000000000E+00 0.  1.
     999901    1    3    3    0    0 -0.11349293369E+00 -0.45474239401E-01  0.25005546778E-01  0.88880471973E+00  0.88000000000E+00 0. -1.
        -11    1    4    4    0    0  0.69655869196E-01  0.17954954437E-01 -0.11552580757E-01  0.72856322618E-01  0.51100000000E-03 0. -1.
         11    1    4    4    0    0  0.52078580224E-01  0.78863839140E-02 -0.24711322483E-01  0.58183194732E-01  0.51100000000E-03 0.  1.
</event>
<event>
 8    1  0.1112958E+005  0.1043930E+01  0.7957747E-01            NaN
         13   -1    0    0    0    0  0.00000000000E+00  0.00000000000E+00  0.74505805969E-08  0.10566000000E+00  0.10566000000E+00 0. -1.
     999900   -1    0    0    0    0 -0.00000000000E+00 -0.00000000000E+00 -0.74505805969E-08  0.93827000000E+00  0.93827000000E+00 0. -1.
     999902    2    1    2    0    0  0.94260289644E-02 -0.15803416311E-01  0.15651766110E-01  0.10197726870E+01  0.10194865165E+01 0.  0.
     999903    2    3    3    0    0 -0.40452838925E-01  0.43740741362E-01 -0.11090449213E+00  0.12733227180E+00  0.19079214763E-01 0.  0.
         14    1    1    2    0    0 -0.94260289644E-02  0.15803416311E-01 -0.15651766110E-01  0.24157313002E-01  0.00000000000E+00 0.  1.
     999901    1    3    3    0    0  0.49878867889E-01 -0.59544157673E-01  0.12655625824E+00  0.89244041520E+00  0.88000000000E+00 0.  1.
        -11    1    4    4    0    0 -0.20154825746E-01  0.32749288965E-01 -0.57791860493E-01  0.69418248241E-01  0.51100000000E-03 0. -1.
         11    1    4    4    0    0 -0.20298013179E-01  0.10991452397E-01 -0.53112631636E-01  0.57914023561E-01  0.51100000000E-03 0.  1.
</event>
<event>
 8    1  0.1112958E+005  0.1043930E+01  0.7957747E-01            NaN
         13   -1    0    0    0    0  0.00000000000E+00  0.00000000000E+00  0.74505805969E-08  0.10566000000E+00  0.10566000000E+00 0.  1.
     999900   -1    0    0    0    0 -0.00000000000E+00 -0.00000000000E+00 -0.74505805969E-08  0.93827000000E+00  0.93827000000E+00 0. -1.
     999902    2    1    2    0    0  0.83556886562E-02 -0.20897702795E-01  0.80186512270E-02  0.10200379452E+01  0.10197580985E+01 0.  0.
     999903    2    3    3    0    0  0.47644015621E-01 -0.59782586521E-01  0.10661116098E+00  0.13280849923E+00  0.20694152488E-01 0.  0.
         14    1    1    2    0    0 -0.83556886562E-02  0.20897702795E-01 -0.80186512270E-02  0.23892054799E-01  0.00000000000E+00 0. -1.
     999901    1    3    3    0    0 -0.39288326965E-01  0.38884883726E-01 -0.98592509751E-01  0.88722944597E+00  0.88000000000E+00 0. -1.
        -11    1    4    4    0    0  0.35734084978E-01 -0.37777675726E-01  0.56460472833E-01  0.76760170180E-01  0.51100000000E-03 0.  1.
         11    1    4    4    0    0  0.11909930643E-01 -0.22004910795E-01  0.50150688144E-01  0.56048329051E-01  0.51100000000E-03 0. -1.
</event>
<event>
 8    1  0.1112958E+005  0.1043930E+01  0.7957747E-01            NaN
         13   -1    0    0    0    0  0.00000000000E+00  0.00000000000E+00  0.74505805969E-08  0.10566000000E+00  0.10566000000E+00 0. -1.
     999900   -1    0    0    0    0 -0.00000000000E+00 -0.00000000000E+00 -0.74505805969E-08  0.93827000000E+00  0.93827000000E+00 0. -1.
     999902    2    1    2    0    0 -0.66034595451E-02  0.10738010933E-01 -0.21305168250E-01  0.10191747834E+01  0.10188740934E+01 0.  0.
     999903    2    3    3    0    0 -0.90831087140E-01  0.73881335451E-01 -0.57834038028E-01  0.13214844158E+00  0.20240961897E-01 0.  0.
         14    1    1    2    0    0  0.66034595451E-02 -0.10738010933E-01  0.21305168250E-01  0.24755216641E-01  0.00000000000E+00 0. -1.
     999901    1    3    3    0    0  0.84227627595E-01 -0.63143324518E-01  0.36528869777E-01  0.88702634178E+00  0.88000000000E+00 0.  1.
        -11    1    4    4    0    0 -0.39379135603E-01  0.44288982897E-01 -0.25086023130E-01  0.64356817854E-01  0.51100000000E-03 0.  1.
         11    1    4    4    0    0 -0.51451951538E-01  0.29592352554E-01 -0.32748014898E-01  0.67791623726E-01  0.51100000000E-03 0. -1.
</event>
<event>
 8    1  0.1112958E+005  0.1043930E+01  0.7957747E-01            NaN
         13   -1    0    0    0    0  0.00000000000E+00  0.00000000000E+00  0.74505805969E-08  0.10566000000E+00  0.10566000000E+00 0.  1.
     999900   -1    0    0    0    0 -0.00000000000E+00 -0.00000000000E+00 -0.74505805969E-08  0.93827000000E+00  0.93827000000E+00 0. -1.
     999902    2    1    2    0    0 -0.10282508051E-01 -0.20514967377E-01  0.49898085413E-02  0.10204461322E+01  0.10201758753E+01 0.  0.
     999903    2    3    3    0    0 -0.16926708334E-01 -0.98335848722E-01 -0.84515518581E-01  0.13246446652E+00  0.21154418234E-01 0.  0.
         14    1    1    2    0    0  0.10282508051E-01  0.20514967377E-01 -0.49898085413E-02  0.23483867815E-01  0.00000000000E+00 0. -1.
     999901    1    3    3    0    0  0.66442002833E-02  0.77820881345E-01  0.89505327123E-01  0.88798166566E+00  0.88000000000E+00 0.  1.
        -11    1    4    4    0    0 -0.19938159670E-01 -0.64135307212E-01 -0.61982137140E-01  0.91394279294E-01  0.51100000000E-03 0.  1.
         11    1    4    4    0    0  0.30114513358E-02 -0.34200541510E-01 -0.22533381441E-01  0.41070187227E-01  0.51100000000E-03 0. -1.
</event>
<event>
 8    1  0.1112958E+005  0.1043930E+01  0.7957747E-01            NaN
         13   -1    0    0    0    0  0.00000000000E+00  0.00000000000E+00  0.74505805969E-08  0.10566000000E+00  0.10566000000E+00 0.  1.
     999900   -1    0    0    0    0 -0.00000000000E+00 -0.00000000000E+00 -0.74505805969E-08  0.93827000000E+00  0.93827000000E+00 0. -1.
     999902    2    1    2    0    0 -0.22802627777E-02 -0.18538822836E-01  0.12166889552E-01  0.10216382806E+01  0.10213950537E+01 0.  0.
     999903    2    3    3    0    0  0.71379823873E-01  0.19396128853E-01 -0.10428120055E+00  0.13010868124E+00  0.24133194480E-01 0.  0.
         14    1    1    2    0    0  0.22802627777E-02  0.18538822836E-01 -0.12166889552E-01  0.22291719356E-01  0.00000000000E+00 0. -1.
     999901    1    3    3    0    0 -0.73660086650E-01 -0.37934951689E-01  0.11644809010E+00  0.89152959940E+00  0.88000000000E+00 0.  1.
        -11    1    4    4    0    0  0.21253795192E-01  0.17078279965E-02 -0.48874000590E-01  0.53325130485E-01  0.51100000000E-03 0.  1.
         11    1    4    4    0    0  0.50126028680E-01  0.17688300857E-01 -0.55407199957E-01  0.76783550755E-01  0.51100000000E-03 0. -1.
</event>
<event>
 8    1  0.1112958E+005  0.1043930E+01  0.7957747E-01            NaN
         13   -1    0    0    0    0  0.00000000000E+00  0.00000000000E+00  0.74505805969E-08  0.10566000000E+00  0.10566000000E+00 0.  1.
     999900   -1    0    0    0    0 -0.00000000000E+00 -0.00000000000E+00 -0.74505805969E-08  0.93827000000E+00  0.93827000000E+00 0. -1.
     999902    2    1    2    0    0  0.16154324105E-01  0.17244435006E-01  0.13940268955E-02  0.10202598492E+01  0.10199852371E+01 0.  0.
     999903    2    3    3    0    0 -0.34751628323E-01  0.73919039598E-01  0.10097892890E+00  0.13137257883E+00  0.19756272415E-01 0.  0.
         14    1    1    2    0    0 -0.16154324105E-01 -0.17244435006E-01 -0.13940268955E-02  0.23670150759E-01  0.00000000000E+00 0.  1.
     999901    1    3    3    0    0  0.50905952428E-01 -0.56674604592E-01 -0.99584902004E-01  0.88888727041E+00  0.88000000000E+00 0. -1.
        -11    1    4    4    0    0 -0.20296448783E-01  0.60372315397E-01  0.70442831868E-01  0.94969552922E-01  0.51100000000E-03 0.  1.
         11    1    4    4    0    0 -0.14455179540E-01  0.13546724200E-01  0.30536097031E-01  0.36403025904E-01  0.51100000000E-03 0. -1.
</event>
<event>
 8    1  0.1112958E+005  0.1043930E+01  0.7957747E-01            NaN
         13   -1    0    0    0    0  0.00000000000E+00  0.00000000000E+00  0.74505805969E-08  0.10566000000E+00  0.10566000000E+00 0.  1.
     999900   -1    0    0    0    0 -0.00000000000E+00 -0.00000000000E+00 -0.74505805969E-08  0.93827000000E+00  0.93827000000E+00 0.  1.
     999902    2    1    2    0    0 -0.21898575150E-01  0.89636060639E-02 -0.70052974283E-03  0.10202575568E+01  0.10199828908E+01 0.  0.
     999903    2    3    3    0    0 -0.10844648876E+00  0.27281309406E-01 -0.68941174110E-01  0.13319337354E+00  0.21969945371E-01 0.  0.
         14    1    1    2    0    0  0.21898575150E-01 -0.89636060639E-02  0.70052974283E-03  0.23672443245E-01  0.00000000000E+00 0. -1.
     999901    1    3    3    0    0  0.86547913607E-01 -0.18317703342E-01  0.68240644367E-01  0.88706418322E+00  0.88000000000E+00 0.  1.
        -11    1    4    4    0    0 -0.27842554258E-01  0.69152270705E-02 -0.70481464294E-02  0.29545992658E-01  0.51100000000E-03 0.  1.
         11    1    4    4    0    0 -0.80603934499E-01  0.20366082336E-01 -0.61893027681E-01  0.10364738088E+00  0.51100000000E-03 0. -1.
</event>
<event>
 8    1  0.1112958E+005  0.1043930E+01  0.7957747E-01            NaN
         13   -1    0    0    0    0  0.00000000000E+00  0.00000000000E+00  0.74505805969E-08  0.10566000000E+00  0.10566000000E+00 0.  1.
     999900   -1    0    0    0    0 -0.00000000000E+00 -0.00000000000E+00 -0.74505805969E-08  0.93827000000E+00  0.93827000000E+00 0. -1.
     999902    2    1    2    0    0  0.12854332503E-01  0.11584661659E-01  0.16318672395E-01  0.10201447668E+01  0.10198674462E+01 0.  0.
     999903    2    3    3    0    0 -0.10334642255E+00 -0.67403436133E-01 -0.27174704620E-01  0.12793772305E+00  0.20146715672E-01 0.  0.
         14    1    1    2    0    0 -0.12854332503E-01 -0.11584661659E-01 -0.16318672395E-01  0.23785233205E-01  0.00000000000E+00 0. -1.
     999901    1    3    3    0    0  0.11620075505E+00  0.78988097792E-01  0.43493377015E-01  0.89220704375E+00  0.88000000000E+00 0.  1.
        -11    1    4    4    0    0 -0.56637098361E-01 -0.42965941446E-01 -0.24339731175E-01  0.75143307551E-01  0.51100000000E-03 0.  1.
         11    1    4    4    0    0 -0.46709324184E-01 -0.24437494687E-01 -0.28349734452E-02  0.52794415498E-01  0.51100000000E-03 0. -1.
</event>
<event>
 8    1  0.1112958E+005  0.1043930E+01  0.7957747E-01            NaN
         13   -1    0    0    0    0  0.00000000000E+00  0.00000000000E+00  0.74505805969E-08  0.10566000000E+00  0.10566000000E+00 0.  1.
     999900   -1    0    0    0    0 -0.00000000000E+00 -0.00000000000E+00 -0.74505805969E-08  0.93827000000E+00  0.93827000000E+00 0. -1.
     999902    2    1    2    0    0 -0.92122718320E-02  0.17075471969E-01  0.13312860584E-01  0.10203998076E+01  0.10201284711E+01 0.  0.
     999903    2    3    3    0    0 -0.10279985481E+00  0.37682463574E-01 -0.69777710686E-01  0.13130626542E+00  0.19611940767E-01 0.  0.
         14    1    1    2    0    0  0.92122718320E-02 -0.17075471969E-01 -0.13312860584E-01  0.23530192354E-01  0.00000000000E+00 0. -1.
     999901    1    3    3    0    0  0.93587582978E-01 -0.20606991605E-01  0.83090571269E-01  0.88909354222E+00  0.88000000000E+00 0.  1.
        -11    1    4    4    0    0 -0.45958722069E-01  0.69186362504E-02 -0.26221794923E-01  0.53365862794E-01  0.51100000000E-03 0.  1.
         11    1    4    4    0    0 -0.56841132741E-01  0.30763827324E-01 -0.43555915763E-01  0.77940402628E-01  0.51100000000E-03 0. -1.
</event>
<event>
 8    1  0.1112958E+005  0.1043930E+01  0.7957747E-01            NaN
         13   -1    0    0    0    0  0.00000000000E+00  0.00000000000E+00  0.74505805969E-08  0.10566000000E+00  0.10566000000E+00 0. -1.
     999900   -1    0    0    0    0 -0.00000000000E+00 -0.00000000000E+00 -0.74505805969E-08  0.93827000000E+00  0.93827000000E+00 0. -1.
     999902    2    1    2    0    0  0.72620432657E-02  0.22017766765E-01 -0.28103664035E-02  0.10205758251E+01  0.10203085795E+01 0.  0.
     999903    2    3    3    0    0  0.41316441678E-01 -0.11961768251E+00 -0.13295152855E-01  0.12853869959E+00  0.18165843784E-01 0.  0.
         14    1    1    2    0    0 -0.72620432657E-02 -0.22017766765E-01  0.28103664035E-02  0.23354174896E-01  0.00000000000E+00 0. -1.
     999901    1    3    3    0    0 -0.34054398412E-01  0.14163544928E+00  0.10484786452E-01  0.89203712551E+00  0.88000000000E+00 0. -1.
        -11    1    4    4    0    0  0.17868484791E-01 -0.72338880566E-01 -0.18621187216E-02  0.74538077500E-01  0.51100000000E-03 0.  1.
         11    1    4    4    0    0  0.23447956887E-01 -0.47278801949E-01 -0.11433034134E-01  0.54000622093E-01  0.51100000000E-03 0. -1.
</event>
<event>
 8    1  0.1112958E+005  0.1043930E+01  0.7957747E-01            NaN
         13   -1    0    0    0    0  0.00000000000E+00  0.00000000000E+00  0.74505805969E-08  0.10566000000E+00  0.10566000000E+00 0. -1.
     999900   -1    0    0    0    0 -0.00000000000E+00 -0.00000000000E+00 -0.74505805969E-08  0.93827000000E+00  0.93827000000E+00 0.  1.
     999902    2    1    2    0    0  0.73030696570E-03  0.18713380797E-01 -0.13728478736E-01  0.10207094251E+01  0.10204452633E+01 0.  0.
     999903    2    3    3    0    0 -0.64260009594E-01 -0.10496169747E+00 -0.34654159548E-01  0.12944226521E+00  0.20201051453E-01 0.  0.
         14    1    1    2    0    0 -0.73030696570E-03 -0.18713380797E-01  0.13728478736E-01  0.23220574875E-01  0.00000000000E+00 0. -1.
     999901    1    3    3    0    0  0.64990316560E-01  0.12367507826E+00  0.20925680812E-01  0.89126715992E+00  0.88000000000E+00 0. -1.
        -11    1    4    4    0    0 -0.19473914413E-01 -0.20819093267E-01 -0.14608934907E-01  0.32036699067E-01  0.51100000000E-03 0. -1.
         11    1    4    4    0    0 -0.44786095181E-01 -0.84142604200E-01 -0.20045224641E-01  0.97405566140E-01  0.51100000000E-03 0.  1.
</event>
<event>
 8    1  0.1112958E+005  0.1043930E+01  0.7957747E-01            NaN
         13   -1    0    0    0    0  0.00000000000E+00  0.00000000000E+00  0.74505805969E-08  0.10566000000E+00  0.10566000000E+00 0.  1.
     999900   -1    0    0    0    0 -0.00000000000E+00 -0.00000000000E+00 -0.74505805969E-08  0.93827000000E+00  0.93827000000E+00 0. -1.
     999902    2    1    2    0    0 -0.11562559321E-01 -0.18576367158E-01  0.98574360100E-02  0.10199311825E+01  0.10196487993E+01 0.  0.
     999903    2    3    3    0    0  0.10323542173E+00 -0.77066229664E-01  0.86924718476E-02  0.13054881392E+00  0.19252991806E-01 0.  0.
         14    1    1    2    0    0  0.11562559321E-01  0.18576367158E-01 -0.98574360100E-02  0.23998817461E-01  0.00000000000E+00 0. -1.
     999901    1    3    3    0    0 -0.11479798106E+00  0.58489862506E-01  0.11649641624E-02  0.88938236862E+00  0.88000000000E+00 0.  1.
        -11    1    4    4    0    0  0.18569577855E-01 -0.63156912663E-02 -0.18586411321E-02  0.19708699747E-01  0.51100000000E-03 0. -1.
         11    1    4    4    0    0  0.84665843880E-01 -0.70750538398E-01  0.10551112980E-01  0.11084011417E+00  0.51100000000E-03 0.  1.
</event>
<event>
 7    1  0.1112958E+005  0.1043930E+01  0.7957747E-01            NaN
         13   -1    0    0    0    0  0.00000000000E+00  0.00000000000E+00  0.74505805969E-08  0.10566000000E+00  0.10566000000E+00 0.  1.
     999900   -1    0    0    0    0 -0.00000000000E+00 -0.00000000000E+00 -0.74505805969E-08  0.93827000000E+00  0.93827000000E+00 0. -1.
     999903    2    1    2    0    0  0.70594323763E-01 -0.23379982782E-03 -0.56114550196E-01  0.92343452578E-01  0.19871016087E-01 0.  0.
         14    1    1    2    0    0  0.53802903798E-01  0.16769861542E-01 -0.19106860137E-01  0.59506745984E-01  0.00000000000E+00 0. -1.
     999901    1    1    2    0    0 -0.12439722756E+00 -0.16536061714E-01  0.75221410333E-01  0.89207980144E+00  0.88000000000E+00 0. -1.
        -11    1    3    3    0    0  0.10810574153E-01 -0.68277661746E-02 -0.13684697921E-01  0.18735500597E-01  0.51100000000E-03 0. -1.
         11    1    3    3    0    0  0.59783749610E-01  0.65939663468E-02 -0.42429852276E-01  0.73607951980E-01  0.51100000000E-03 0.  1.
</event>
<event>
 8    1  0.1112958E+005  0.1043930E+01  0.7957747E-01            NaN
         13   -1    0    0    0    0  0.00000000000E+00  0.00000000000E+00  0.74505805969E-08  0.10566000000E+00  0.10566000000E+00 0.  1.
     999900   -1    0    0    0    0 -0.00000000000E+00 -0.00000000000E+00 -0.74505805969E-08  0.93827000000E+00  0.93827000000E+00 0.  1.
     999902    2    1    2    0    0 -0.17828583308E-01 -0.11981009077E-01  0.98497811716E-02  0.10202990637E+01  0.10200253714E+01 0.  0.
     999903    2    3    3    0    0  0.12497988156E-01  0.97657621072E-03  0.12942591334E+00  0.13159998564E+00  0.20256746249E-01 0.  0.
         14    1    1    2    0    0  0.17828583308E-01  0.11981009077E-01 -0.98497811716E-02  0.23630936300E-01  0.00000000000E+00 0.  1.
     999901    1    3    3    0    0 -0.30326571464E-01 -0.12957585288E-01 -0.11957613217E+00  0.88869907806E+00  0.88000000000E+00 0.  1.
        -11    1    4    4    0    0  0.25172532958E-02  0.63532493523E-02  0.97071044057E-01  0.97312635648E-01  0.51100000000E-03 0.  1.
         11    1    4    4    0    0  0.99807348602E-02 -0.53766731416E-02  0.32354869284E-01  0.34287349997E-01  0.51100000000E-03 0. -1.
</event>
<event>
 8    1  0.1112958E+005  0.1043930E+01  0.7957747E-01            NaN
         13   -1    0    0    0    0  0.00000000000E+00  0.00000000000E+00  0.74505805969E-08  0.10566000000E+00  0.10566000000E+00 0. -1.
     999900   -1    0    0    0    0 -0.00000000000E+00 -0.00000000000E+00 -0.74505805969E-08  0.93827000000E+00  0.93827000000E+00 0.  1.
     999902    2    1    2    0    0 -0.54346304117E-02  0.21650827875E-01 -0.78159080139E-02  0.10202787427E+01  0.10200045739E+01 0.  0.
     999903    2    3    3    0    0 -0.10274259840E+00  0.81549692531E-01  0.24842107223E-02  0.13283138813E+00  0.20775285620E-01 0.  0.
         14    1    1    2    0    0  0.54346304117E-02 -0.21650827875E-01  0.78159080139E-02  0.23651257334E-01  0.00000000000E+00 0.  1.
     999901    1    3    3    0    0  0.97307967989E-01 -0.59898864656E-01 -0.10300118736E-01  0.88744735453E+00  0.88000000000E+00 0. -1.
        -11    1    4    4    0    0 -0.63369420257E-01  0.57000211337E-01 -0.68133170337E-02  0.85506665975E-01  0.51100000000E-03 0. -1.
         11    1    4    4    0    0 -0.39373178144E-01  0.24549481194E-01  0.92975277560E-02  0.47324722159E-01  0.51100000000E-03 0.  1.
</event>
<event>
 8    1  0.1112958E+005  0.1043930E+01  0.7957747E-01            NaN
         13   -1    0    0    0    0  0.00000000000E+00  0.00000000000E+00  0.74505805969E-08  0.10566000000E+00  0.10566000000E+00 0. -1.
     999900   -1    0    0    0    0 -0.00000000000E+00 -0.00000000000E+00 -0.74505805969E-08  0.93827000000E+00  0.93827000000E+00 0. -1.
     999902    2    1    2    0    0  0.13357247426E-01 -0.21714004905E-01  0.27120480837E-02  0.10182927366E+01  0.10179699545E+01 0.  0.
     999903    2    3    3    0    0  0.49234051819E-01  0.10567085691E+00 -0.46783380253E-01  0.12702182073E+00  0.18855673345E-01 0.  0.
         14    1    1    2    0    0 -0.13357247426E-01  0.21714004905E-01 -0.27120480837E-02  0.25637263360E-01  0.00000000000E+00 0.  1.
     999901    1    3    3    0    0 -0.35876804394E-01 -0.12738486181E+00  0.49495428337E-01  0.89127091590E+00  0.88000000000E+00 0. -1.
        -11    1    4    4    0    0  0.92352807167E-02  0.27606310807E-01 -0.38708159782E-02  0.29370787249E-01  0.51100000000E-03 0.  1.
         11    1    4    4    0    0  0.39998771103E-01  0.78064546098E-01 -0.42912564275E-01  0.97651033486E-01  0.51100000000E-03 0. -1.
</event>
<event>
 8    1  0.1112958E+005  0.1043930E+01  0.7957747E-01            NaN
         13   -1    0    0    0    0  0.00000000000E+00  0.00000000000E+00  0.74505805969E-08  0.10566000000E+00  0.10566000000E+00 0.  1.
     999900   -1    0    0    0    0 -0.00000000000E+00 -0.00000000000E+00 -0.74505805969E-08  0.93827000000E+00  0.93827000000E+00 0. -1.
     999902    2    1    2    0    0 -0.25745243134E-03  0.43085894174E-04  0.24106828106E-01  0.10198217587E+01  0.10195367635E+01 0.  0.
     999903    2    3    3    0    0 -0.17199115393E-01  0.11657053167E+00  0.54231655110E-01  0.13146756650E+00  0.21404443513E-01 0.  0.
         14    1    1    2    0    0  0.25745243134E-03 -0.43085894174E-04 -0.24106828106E-01  0.24108241319E-01  0.00000000000E+00 0. -1.
     999901    1    3    3    0    0  0.16941662962E-01 -0.11652744577E+00 -0.30124827003E-01  0.88835419218E+00  0.88000000000E+00 0.  1.
        -11    1    4    4    0    0  0.39120439210E-02  0.16382048474E-01  0.12117351466E-01  0.20754925376E-01  0.51100000000E-03 0. -1.
         11    1    4    4    0    0 -0.21111159314E-01  0.10018848319E+00  0.42114303644E-01  0.11071264112E+00  0.51100000000E-03 0.  1.
</event>
<event>
 8    1  0.1112958E+005  0.1043930E+01  0.7957747E-01            NaN
         13   -1    0    0    0    0  0.00000000000E+00  0.00000000000E+00  0.74505805969E-08  0.10566000000E+00  0.10566000000E+00 0. -1.
     999900   -1    0    0    0    0 -0.00000000000E+00 -0.00000000000E+00 -0.74505805969E-08  0.93827000000E+00  0.93827000000E+00 0. -1.
     999902    2    1    2    0    0 -0.16801511664E-02 -0.18919604272E-01  0.14011989589E-01  0.10203268183E+01  0.10200537760E+01 0.  0.
     999903    2    3    3    0    0  0.30166370703E-01 -0.34365511729E-02  0.12734397682E+00  0.13235268286E+00  0.19465981161E-01 0.  0.
         14    1    1    2    0    0  0.16801511664E-02  0.18919604272E-01 -0.14011989589E-01  0.23603181692E-01  0.00000000000E+00 0.  1.
     999901    1    3    3    0    0 -0.31846521870E-01 -0.15483053099E-01 -0.11333198723E+00  0.88797413544E+00  0.88000000000E+00 0. -1.
        -11    1    4    4    0    0  0.18462503552E-01 -0.10628967175E-01  0.61448349803E-01  0.65038448591E-01  0.51100000000E-03 0. -1.
         11    1    4    4    0    0  0.11703867151E-01  0.71924160024E-02  0.65895627021E-01  0.67314234273E-01  0.51100000000E-03 0.  1.
</event>
<event>
 8    1  0.1112958E+005  0.1043930E+01  0.7957747E-01            NaN
         13   -1    0    0    0    0  0.00000000000E+00  0.00000000000E+00  0.74505805969E-08  0.10566000000E+00  0.10566000000E+00 0. -1.
     999900   -1    0    0    0    0 -0.00000000000E+00 -0.00000000000E+00 -0.74505805969E-08  0.93827000000E+00  0.93827000000E+00 0.  1.
     999902    2    1    2    0    0 -0.12541275327E-01  0.17759806791E-01 -0.88506595925E-02  0.10204560038E+01  0.10201859767E+01 0.  0.
     999903    2    3    3    0    0 -0.37514264394E-01 -0.11524215254E+00 -0.40681846499E-01  0.12954276678E+00  0.20934231223E-01 0.  0.
         14    1    1    2    0    0  0.12541275327E-01 -0.17759806791E-01  0.88506595925E-02  0.23473996236E-01  0.00000000000E+00 0. -1.
     999901    1    3    3    0    0  0.24972989067E-01  0.13300195933E+00  0.31831186906E-01  0.89091323698E+00  0.88000000000E+00 0.  1.
        -11    1    4    4    0    0 -0.19126770145E-01 -0.43583356230E-01 -0.25574944528E-01  0.54034074297E-01  0.51100000000E-03 0. -1.
         11    1    4    4    0    0 -0.18387494249E-01 -0.71658796306E-01 -0.15106901970E-01  0.75508692486E-01  0.51100000000E-03 0.  1.
</event>
<event>
 8    1  0.1112958E+005  0.1043930E+01  0.7957747E-01            NaN
         13   -1    0    0    0    0  0.00000000000E+00  0.00000000000E+00  0.74505805969E-08  0.10566000000E+00  0.10566000000E+00 0. -1.
     999900   -1    0    0    0    0 -0.00000000000E+00 -0.00000000000E+00 -0.74505805969E-08  0.93827000000E+00  0.93827000000E+00 0.  1.
     999902    2    1    2    0    0  0.16982504173E-01  0.13223402091E-01  0.91555548760E-02  0.10205400877E+01  0.10202720141E+01 0.  0.
     999903    2    3    3    0    0 -0.11806387182E+00  0.35620393046E-01  0.35055513004E-01  0.12957995579E+00  0.18819822603E-01 0.  0.
         14    1    1    2    0    0 -0.16982504173E-01 -0.13223402091E-01 -0.91555548760E-02  0.23389912269E-01  0.00000000000E+00 0.  1.
     999901    1    3    3    0    0  0.13504637599E+00 -0.22396990955E-01 -0.25899958128E-01  0.89096013194E+00  0.88000000000E+00 0.  1.
        -11    1    4    4    0    0 -0.11418609637E+00  0.30298755031E-01  0.32938406179E-01  0.12264452243E+00  0.51100000000E-03 0. -1.
         11    1    4    4    0    0 -0.38777754453E-02  0.53216380154E-02  0.21171068252E-02  0.69354333592E-02  0.51100000000E-03 0.  1.
</event>
<event>
 8    1  0.1112958E+005  0.1043930E+01  0.7957747E-01            NaN
         13   -1    0    0    0    0  0.00000000000E+00  0.00000000000E+00  0.74505805969E-08  0.10566000000E+00  0.10566000000E+00 0.  1.
     999900   -1    0    0    0    0 -0.00000000000E+00 -0.00000000000E+00 -0.74505805969E-08  0.93827000000E+00  0.93827000000E+00 0.  1.
     999902    2    1    2    0    0 -0.24690944826E-02 -0.19308473417E-01  0.13090649017E-01  0.10204719808E+01  0.10202023255E+01 0.  0.
     999903    2    3    3    0    0 -0.39462979511E-01  0.11845661965E+00 -0.21286441428E-01  0.12832314078E+00  0.20601416956E-01 0.  0.
         14    1    1    2    0    0  0.24690944826E-02  0.19308473417E-01 -0.13090649017E-01  0.23458019203E-01  0.00000000000E+00 0. -1.
     999901    1    3    3    0    0  0.36993885029E-01 -0.13776509306E+00  0.34377090444E-01  0.89214884002E+00  0.88000000000E+00 0. -1.
        -11    1    4    4    0    0 -0.89449019435E-02  0.15176685756E-01 -0.93983487497E-02  0.19973310730E-01  0.51100000000E-03 0. -1.
         11    1    4    4    0    0 -0.30518077568E-01  0.10327993389E+00 -0.11888092678E-01  0.10834983005E+00  0.51100000000E-03 0.  1.
</event>
<event>
 8    1  0.1112958E+005  0.1043930E+01  0.7957747E-01            NaN
         13   -1    0    0    0    0  0.00000000000E+00  0.00000000000E+00  0.74505805969E-08  0.10566000000E+00  0.10566000000E+00 0.  1.
     999900   -1    0    0    0    0 -0.00000000000E+00 -0.00000000000E+00 -0.74505805969E-08  0.93827000000E+00  0.93827000000E+00 0. -1.
     999902    2    1    2    0    0  0.16756532020E-01  0.65208014925E-02  0.16172391301E-01  0.10197463597E+01  0.10194595576E+01 0.  0.
     999903    2    3    3    0    0  0.20191422438E-01  0.10233804717E+00  0.78924726917E-01  0.13231715201E+00  0.19948602943E-01 0.  0.
         14    1    1    2    0    0 -0.16756532020E-01 -0.65208014925E-02 -0.16172391301E-01  0.24183640294E-01  0.00000000000E+00 0. -1.
     999901    1    3    3    0    0 -0.34348904181E-02 -0.95817245677E-01 -0.62752335616E-01  0.88742920769E+00  0.88000000000E+00 0. -1.
        -11    1    4    4    0    0  0.37830252377E-02  0.10148385820E-01  0.16618246968E-01  0.19842587230E-01  0.51100000000E-03 0.  1.
         11    1    4    4    0    0  0.16408397201E-01  0.92189661350E-01  0.62306479949E-01  0.11247456478E+00  0.51100000000E-03 0. -1.
</event>
<event>
 8    1  0.1112958E+005  0.1043930E+01  0.7957747E-01            NaN
         13   -1    0    0    0    0  0.00000000000E+00  0.00000000000E+00  0.74505805969E-08  0.10566000000E+00  0.10566000000E+00 0.  1.
     999900   -1    0    0    0    0 -0.00000000000E+00 -0.00000000000E+00 -0.74505805969E-08  0.93827000000E+00  0.93827000000E+00 0.  1.
     999902    2    1    2    0    0  0.88314855760E-06  0.15612364284E-01 -0.20634956387E-01  0.10180543871E+01  0.10177254972E+01 0.  0.
     999903    2    3    3    0    0 -0.47169098968E-01  0.96812607292E-01 -0.72702545533E-01  0.13152772615E+00  0.20402886860E-01 0.  0.
         14    1    1    2    0    0 -0.88314855761E-06 -0.15612364284E-01  0.20634956387E-01  0.25875612928E-01  0.00000000000E+00 0.  1.
     999901    1    3    3    0    0  0.47169982117E-01 -0.81200243009E-01  0.52067589145E-01  0.88652666092E+00  0.88000000000E+00 0.  1.
        -11    1    4    4    0    0 -0.24558589753E-01  0.66659685282E-01 -0.39426932224E-01  0.81248889703E-01  0.51100000000E-03 0.  1.
         11    1    4    4    0    0 -0.22610509216E-01  0.30152922011E-01 -0.33275613309E-01  0.50278836451E-01  0.51100000000E-03 0. -1.
</event>
<event>
 8    1  0.1112958E+005  0.1043930E+01  0.7957747E-01            NaN
         13   -1    0    0    0    0  0.00000000000E+00  0.00000000000E+00  0.74505805969E-08  0.10566000000E+00  0.10566000000E+00 0.  1.
     999900   -1    0    0    0    0 -0.00000000000E+00 -0.00000000000E+00 -0.74505805969E-08  0.93827000000E+00  0.93827000000E+00 0.  1.
     999902    2    1    2    0    0  0.18697366872E-01  0.11940933135E-01 -0.40173245496E-02  0.10213841288E+01  0.10211352615E+01 0.  0.
     999903    2    3    3    0    0  0.21005344773E-02 -0.12845235590E+00  0.12485916374E-02  0.13008537959E+00  0.20401642617E-01 0.  0.
         14    1    1    2    0    0 -0.18697366872E-01 -0.11940933135E-01  0.40173245496E-02  0.22545871210E-01  0.00000000000E+00 0.  1.
     999901    1    3    3    0    0  0.16596832395E-01  0.14039328903E+00 -0.52659161869E-02  0.89129874920E+00  0.88000000000E+00 0.  1.
        -11    1    4    4    0    0  0.12877224024E-02 -0.10288369961E+00  0.91692615930E-02  0.10330077616E+00  0.51100000000E-03 0. -1.
         11    1    4    4    0    0  0.81281207491E-03 -0.25568656284E-01 -0.79206699557E-02  0.26784603435E-01  0.51100000000E-03 0.  1.
</event>
<event>
 8    1  0.1112958E+005  0.1043930E+01  0.7957747E-01            NaN
         13   -1    0    0    0    0  0.00000000000E+00  0.00000000000E+00  0.74505805969E-08  0.10566000000E+00  0.10566000000E+00 0.  1.
     999900   -1    0    0    0    0 -0.00000000000E+00 -0.00000000000E+00 -0.74505805969E-08  0.93827000000E+00  0.93827000000E+00 0.  1.
     999902    2    1    2    0    0  0.21871524985E-01 -0.65306462548E-02 -0.73413124531E-02  0.10199527647E+01  0.10196708951E+01 0.  0.
     999903    2    3    3    0    0 -0.24025005790E-01 -0.33090352655E-01  0.12081677249E+00  0.12909003434E+00  0.19883966128E-01 0.  0.
         14    1    1    2    0    0 -0.21871524985E-01  0.65306462548E-02  0.73413124531E-02  0.23977235333E-01  0.00000000000E+00 0. -1.
     999901    1    3    3    0    0  0.45896530775E-01  0.26559706400E-01 -0.12815808495E+00  0.89086273032E+00  0.88000000000E+00 0.  1.
        -11    1    4    4    0    0 -0.22486095902E-01 -0.35819531673E-01  0.11234564496E+00  0.12004361049E+00  0.51100000000E-03 0.  1.
         11    1    4    4    0    0 -0.15389098881E-02  0.27291790180E-02  0.84711275373E-02  0.90464238520E-02  0.51100000000E-03 0. -1.
</event>
<event>
 8    1  0.1112958E+005  0.1043930E+01  0.7957747E-01            NaN
         13   -1    0    0    0    0  0.00000000000E+00  0.00000000000E+00  0.74505805969E-08  0.10566000000E+00  0.10566000000E+00 0. -1.
     999900   -1    0    0    0    0 -0.00000000000E+00 -0.00000000000E+00 -0.74505805969E-08  0.93827000000E+00  0.93827000000E+00 0. -1.
     999902    2    1    2    0    0 -0.58552726048E-02 -0.15132943537E-01  0.17432445722E-01  0.10201144513E+01  0.10198364150E+01 0.  0.
     999903    2    3    3    0    0 -0.92804195899E-01  0.45319846760E-01 -0.75774862041E-01  0.12887808681E+00  0.14185353570E-01 0.  0.
         14    1    1    2    0    0  0.58552726048E-02  0.15132943537E-01 -0.17432445722E-01  0.23815548728E-01  0.00000000000E+00 0.  1.
     999901    1    3    3    0    0  0.86948923294E-01 -0.60452790297E-01  0.93207307763E-01  0.89123636446E+00  0.88000000000E+00 0.  1.
        -11    1    4    4    0    0 -0.69661906684E-01  0.40310218434E-01 -0.56414436635E-01  0.98288070155E-01  0.51100000000E-03 0.  1.
         11    1    4    4    0    0 -0.23142289215E-01  0.50096283259E-02 -0.19360425406E-01  0.30590016655E-01  0.51100000000E-03 0. -1.
</event>
<event>
 8    1  0.1112958E+005  0.1043930E+01  0.7957747E-01            NaN
         13   -1    0    0    0    0  0.00000000000E+00  0.00000000000E+00  0.74505805969E-08  0.10566000000E+00  0.10566000000E+00 0. -1.
     999900   -1    0    0    0    0 -0.00000000000E+00 -0.00000000000E+00 -0.74505805969E-08  0.93827000000E+00  0.93827000000E+00 0. -1.
     999902    2    1    2    0    0 -0.12260588672E-01 -0.19614926938E-01 -0.20023893985E-02  0.10207119691E+01  0.10204478659E+01 0.  0.
     999903    2    3    3    0    0  0.10974143685E+00  0.37812312414E-01  0.52249434172E-01  0.12878952722E+00  0.19590431810E-01 0.  0.
         14    1    1    2    0    0  0.12260588672E-01  0.19614926938E-01  0.20023893985E-02  0.23218030853E-01  0.00000000000E+00 0.  1.
     999901    1    3    3    0    0 -0.12200202552E+00 -0.57427239352E-01 -0.54251823571E-01  0.89192244193E+00  0.88000000000E+00 0. -1.
        -11    1    4    4    0    0  0.20895313403E-01  0.40401307568E-02  0.22939978800E-02  0.21411686669E-01  0.51100000000E-03 0.  1.
         11    1    4    4    0    0  0.88846123447E-01  0.33772181657E-01  0.49955436292E-01  0.10737784055E+00  0.51100000000E-03 0. -1.
</event>
<event>
 8    1  0.1112958E+005  0.1043930E+01  0.7957747E-01            NaN
         13   -1    0    0    0    0  0.00000000000E+00  0.00000000000E+00  0.74505805969E-08  0.10566000000E+00  0.10566000000E+00 0. -1.
     999900   -1    0    0    0    0 -0.00000000000E+00 -0.00000000000E+00 -0.74505805969E-08  0.93827000000E+00  0.93827000000E+00 0. -1.
     999902    2    1    2    0    0 -0.37004828639E-02  0.16455538616E-01 -0.15885796391E-01  0.10207602600E+01  0.10204972668E+01 0.  0.
     999903    2    3    3    0    0 -0.74704454628E-02 -0.84070449129E-01  0.94360523164E-01  0.12819433089E+00  0.20155152424E-01 0.  0.
         14    1    1    2    0    0  0.37004828639E-02 -0.16455538616E-01  0.15885796391E-01  0.23169739998E-01  0.00000000000E+00 0. -1.
     999901    1    3    3    0    0  0.37699625989E-02  0.10052598775E+00 -0.11024631956E+00  0.89256592911E+00  0.88000000000E+00 0. -1.
        -11    1    4    4    0    0 -0.13654401060E-01 -0.65240894978E-01  0.76986173843E-01  0.10183294717E+00  0.51100000000E-03 0. -1.
         11    1    4    4    0    0  0.61839555972E-02 -0.18829554152E-01  0.17374349321E-01  0.26361383722E-01  0.51100000000E-03 0.  1.
</event>
<event>
 8    1  0.1112958E+005  0.1043930E+01  0.7957747E-01            NaN
         13   -1    0    0    0    0  0.00000000000E+00  0.00000000000E+00  0.74505805969E-08  0.10566000000E+00  0.10566000000E+00 0. -1.
     999900   -1    0    0    0    0 -0.00000000000E+00 -0.00000000000E+00 -0.74505805969E-08  0.93827000000E+00  0.93827000000E+00 0. -1.
     999902    2    1    2    0    0 -0.20823102919E-02 -0.20611322338E-01  0.12269740188E-01  0.10198528501E+01  0.10195685983E+01 0.  0.
     999903    2    3    3    0    0  0.42176914406E-01 -0.10038083796E+00 -0.70487250393E-01  0.13127489958E+00  0.20234674542E-01 0.  0.
         14    1    1    2    0    0  0.20823102919E-02  0.20611322338E-01 -0.12269740188E-01  0.24077149934E-01  0.00000000000E+00 0. -1.
     999901    1    3    3    0    0 -0.44259224698E-01  0.79769515624E-01  0.82756990581E-01  0.88857795048E+00  0.88000000000E+00 0.  1.
        -11    1    4    4    0    0  0.29589305050E-01 -0.81658509780E-01 -0.47218827214E-01  0.98861104371E-01  0.51100000000E-03 0. -1.
         11    1    4    4    0    0  0.12587609356E-01 -0.18722328181E-01 -0.23268423179E-01  0.32413795213E-01  0.51100000000E-03 0.  1.
</event>
<event>
 8    1  0.1112958E+005  0.1043930E+01  0.7957747E-01            NaN
         13   -1    0    0    0    0  0.00000000000E+00  0.00000000000E+00  0.74505805969E-08  0.10566000000E+00  0.10566000000E+00 0.  1.
     999900   -1    0    0    0    0 -0.00000000000E+00 -0.00000000000E+00 -0.74505805969E-08  0.93827000000E+00  0.93827000000E+00 0. -1.
     999902    2    1    2    0    0  0.12515449910E-01  0.39306390264E-02 -0.21369008105E-01  0.10188556921E+01  0.10185471027E+01 0.  0.
     999903    2    3    3    0    0  0.55631811575E-02 -0.16390457193E-01 -0.12885021597E+00  0.13205611438E+00  0.23169875185E-01 0.  0.
         14    1    1    2    0    0 -0.12515449910E-01 -0.39306390264E-02  0.21369008105E-01  0.25074307907E-01  0.00000000000E+00 0.  1.
     999901    1    3    3    0    0  0.69522687522E-02  0.20321096219E-01  0.10748120787E+00  0.88679957772E+00  0.88000000000E+00 0.  1.
        -11    1    4    4    0    0  0.18987939809E-02 -0.19497650102E-01 -0.61812275179E-01  0.64844292439E-01  0.51100000000E-03 0.  1.
         11    1    4    4    0    0  0.36643871765E-02  0.31071929092E-02 -0.67037940796E-01  0.67211821938E-01  0.51100000000E-03 0. -1.
</event>
<event>
 8    1  0.1112958E+005  0.1043930E+01  0.7957747E-01            NaN
         13   -1    0    0    0    0  0.00000000000E+00  0.00000000000E+00  0.74505805969E-08  0.10566000000E+00  0.10566000000E+00 0.  1.
     999900   -1    0    0    0    0 -0.00000000000E+00 -0.00000000000E+00 -0.74505805969E-08  0.93827000000E+00  0.93827000000E+00 0.  1.
     999902    2    1    2    0    0  0.21180588736E-01  0.73037369539E-04 -0.11136969995E-01  0.10199997937E+01  0.10197190419E+01 0.  0.
     999903    2    3    3    0    0 -0.35370109742E-01  0.11816493876E+00  0.33221463703E-01  0.12920725369E+00  0.19412659287E-01 0.  0.
         14    1    1    2    0    0 -0.21180588736E-01 -0.73037369539E-04  0.11136969995E-01  0.23930206316E-01  0.00000000000E+00 0. -1.
     999901    1    3    3    0    0  0.56550698478E-01 -0.11809190139E+00 -0.44358433698E-01  0.89079254000E+00  0.88000000000E+00 0. -1.
        -11    1    4    4    0    0 -0.18688904838E-01  0.33402395860E-01  0.68919466270E-02  0.38894154606E-01  0.51100000000E-03 0. -1.
         11    1    4    4    0    0 -0.16681204904E-01  0.84762542897E-01  0.26329517076E-01  0.90313099083E-01  0.51100000000E-03 0.  1.
</event>
<event>
 8    1  0.1112958E+005  0.1043930E+01  0.7957747E-01            NaN
         13   -1    0    0    0    0  0.00000000000E+00  0.00000000000E+00  0.74505805969E-08  0.10566000000E+00  0.10566000000E+00 0. -1.
     999900   -1    0    0    0    0 -0.00000000000E+00 -0.00000000000E+00 -0.74505805969E-08  0.93827000000E+00  0.93827000000E+00 0.  1.
     999902    2    1    2    0    0 -0.11097595311E-01 -0.18805979872E-01 -0.10378835026E-01  0.10197527024E+01  0.10194660526E+01 0.  0.
     999903    2    3    3    0    0  0.19818192616E-01 -0.10471716089E+00  0.73265502984E-01  0.13108353327E+00  0.21368533487E-01 0.  0.
         14    1    1    2    0    0  0.11097595311E-01  0.18805979872E-01  0.10378835026E-01  0.24177297556E-01  0.00000000000E+00 0. -1.
     999901    1    3    3    0    0 -0.30915787927E-01  0.85911181014E-01 -0.83644338010E-01  0.88866916918E+00  0.88000000000E+00 0.  1.
        -11    1    4    4    0    0  0.76254313102E-03 -0.30538103535E-01  0.11329496959E-01  0.32584902361E-01  0.51100000000E-03 0.  1.
         11    1    4    4    0    0  0.19055649485E-01 -0.74179057351E-01  0.61936006026E-01  0.98498630905E-01  0.51100000000E-03 0. -1.
</event>
<event>
 8    1  0.1112958E+005  0.1043930E+01  0.7957747E-01            NaN
         13   -1    0    0    0    0  0.00000000000E+00  0.00000000000E+00  0.74505805969E-08  0.10566000000E+00  0.10566000000E+00 0. -1.
     999900   -1    0    0    0    0 -0.00000000000E+00 -0.00000000000E+00 -0.74505805969E-08  0.93827000000E+00  0.93827000000E+00 0. -1.
     999902    2    1    2    0    0 -0.32398529337E-02 -0.66930007301E-02 -0.21280692198E-01  0.10213875785E+01  0.10211387882E+01 0.  0.
     999903    2    3    3    0    0 -0.12145181656E+00 -0.43060597173E-01 -0.24613669456E-01  0.13273253906E+00  0.20182552555E-01 0.  0.
         14    1    1    2    0    0  0.32398529337E-02  0.66930007301E-02  0.21280692198E-01  0.22542421481E-01  0.00000000000E+00 0. -1.
     999901    1    3    3    0    0  0.11821196362E+00  0.36367596443E-01  0.33329772589E-02  0.88865503946E+00  0.88000000000E+00 0.  1.
        -11    1    4    4    0    0 -0.10024916168E+00 -0.27477348628E-01 -0.16946556849E-01  0.10532020706E+00  0.51100000000E-03 0.  1.
         11    1    4    4    0    0 -0.21202654883E-01 -0.15583248545E-01 -0.76671126071E-02  0.27412332006E-01  0.51100000000E-03 0. -1.
</event>
<event>
 8    1  0.1112958E+005  0.1043930E+01  0.7957747E-01            NaN
         13   -1    0    0    0    0  0.00000000000E+00  0.00000000000E+00  0.74505805969E-08  0.10566000000E+00  0.10566000000E+00 0. -1.
     999900   -1    0    0    0    0 -0.00000000000E+00 -0.00000000000E+00 -0.74505805969E-08  0.93827000000E+00  0.93827000000E+00 0. -1.
     999902    2    1    2    0    0  0.12053121088E-01  0.10651059723E-01  0.16848295233E-01  0.10206364847E+01  0.10203706415E+01 0.  0.
     999903    2    3    3    0    0 -0.69162111258E-01  0.10961347956E+00 -0.32368304506E-02  0.13114624489E+00  0.19757225088E-01 0.  0.
         14    1    1    2    0    0 -0.12053121088E-01 -0.10651059723E-01 -0.16848295233E-01  0.23293515266E-01  0.00000000000E+00 0.  1.
     999901    1    3    3    0    0  0.81215232346E-01 -0.98962419834E-01  0.20085125683E-01  0.88949023984E+00  0.88000000000E+00 0.  1.
        -11    1    4    4    0    0 -0.36602536198E-01  0.51033386630E-01  0.75662406860E-02  0.63258685777E-01  0.51100000000E-03 0.  1.
         11    1    4    4    0    0 -0.32559575060E-01  0.58580092927E-01 -0.10803071137E-01  0.67887559113E-01  0.51100000000E-03 0. -1.
</event>
<event>
 8    1  0.1112958E+005  0.1043930E+01  0.7957747E-01            NaN
         13   -1    0    0    0    0  0.00000000000E+00  0.00000000000E+00  0.74505805969E-08  0.10566000000E+00  0.10566000000E+00 0.  1.
     999900   -1    0    0    0    0 -0.00000000000E+00 -0.00000000000E+00 -0.74505805969E-08  0.93827000000E+00  0.93827000000E+00 0. -1.
     999902    2    1    2    0    0 -0.19245585929E-01  0.13774315447E-01  0.14586359271E-01  0.10161291687E+01  0.10157487885E+01 0.  0.
     999903    2    3    3    0    0  0.31960921452E-01 -0.66100847238E-01 -0.97783270134E-01  0.12392455001E+00  0.20122218355E-01 0.  0.
         14    1    1    2    0    0  0.19245585929E-01 -0.13774315447E-01 -0.14586359271E-01  0.27800831293E-01  0.00000000000E+00 0.  1.
     999901    1    3    3    0    0 -0.51206507381E-01  0.79875162685E-01  0.11236962941E+00  0.89220461870E+00  0.88000000000E+00 0.  1.
        -11    1    4    4    0    0  0.20295564742E-01 -0.39034948060E-01 -0.41973437988E-01  0.60808451187E-01  0.51100000000E-03 0.  1.
         11    1    4    4    0    0  0.11665356710E-01 -0.27065899177E-01 -0.55809832146E-01  0.63116098823E-01  0.51100000000E-03 0. -1.
</event>
<event>
 8    1  0.1112958E+005  0.1043930E+01  0.7957747E-01            NaN
         13   -1    0    0    0    0  0.00000000000E+00  0.00000000000E+00  0.74505805969E-08  0.10566000000E+00  0.10566000000E+00 0. -1.
     999900   -1    0    0    0    0 -0.00000000000E+00 -0.00000000000E+00 -0.74505805969E-08  0.93827000000E+00  0.93827000000E+00 0.  1.
     999902    2    1    2    0    0  0.18190921747E-01 -0.14143000886E-01 -0.54937453237E-02  0.10202421266E+01  0.10199670983E+01 0.  0.
     999903    2    3    3    0    0 -0.34178685637E-01 -0.11709767590E-01  0.12268248251E+00  0.12941237757E+00  0.19780564799E-01 0.  0.
         14    1    1    2    0    0 -0.18190921747E-01  0.14143000886E-01  0.54937453237E-02  0.23687873390E-01  0.00000000000E+00 0. -1.
     999901    1    3    3    0    0  0.52369607384E-01 -0.24332332959E-02 -0.12817622783E+00  0.89082974904E+00  0.88000000000E+00 0.  1.
        -11    1    4    4    0    0 -0.12371829926E-01  0.43729028568E-02  0.54065484277E-01  0.55637416962E-01  0.51100000000E-03 0. -1.
         11    1    4    4    0    0 -0.21806855712E-01 -0.16082670447E-01  0.68616998231E-01  0.73774960603E-01  0.51100000000E-03 0.  1.
</event>
<event>
 8    1  0.1112958E+005  0.1043930E+01  0.7957747E-01            NaN
         13   -1    0    0    0    0  0.00000000000E+00  0.00000000000E+00  0.74505805969E-08  0.10566000000E+00  0.10566000000E+00 0. -1.
     999900   -1    0    0    0    0 -0.00000000000E+00 -0.00000000000E+00 -0.74505805969E-08  0.93827000000E+00  0.93827000000E+00 0. -1.
     999902    2    1    2    0    0  0.10667744432E-01 -0.11380017684E-01  0.18018788596E-01  0.10200976204E+01  0.10198191864E+01 0.  0.
     999903    2    3    3    0    0 -0.23185230508E-01  0.18403683442E-01 -0.12273119780E+00  0.12777276286E+00  0.19664219698E-01 0.  0.
         14    1    1    2    0    0 -0.10667744432E-01  0.11380017684E-01 -0.18018788596E-01  0.23832379576E-01  0.00000000000E+00 0.  1.
     999901    1    3    3    0    0  0.33852974941E-01 -0.29783701126E-01  0.14074998640E+00  0.89232485757E+00  0.88000000000E+00 0.  1.
        -11    1    4    4    0    0 -0.25586796063E-01  0.12577165059E-01 -0.10878490488E+00  0.11246015234E+00  0.51100000000E-03 0.  1.
         11    1    4    4    0    0  0.24015655550E-02  0.58265183826E-02 -0.13946292924E-01  0.15312610519E-01  0.51100000000E-03 0. -1.
</event>
<event>
 8    1  0.1112958E+005  0.1043930E+01  0.7957747E-01            NaN
         13   -1    0    0    0    0  0.00000000000E+00  0.00000000000E+00  0.74505805969E-08  0.10566000000E+00  0.10566000000E+00 0.  1.
     999900   -1    0    0    0    0 -0.00000000000E+00 -0.00000000000E+00 -0.74505805969E-08  0.93827000000E+00  0.93827000000E+00 0. -1.
     999902    2    1    2    0    0  0.19111042717E-01  0.11775422970E-01  0.44734289405E-02  0.10210410484E+01  0.10207844622E+01 0.  0.
     999903    2    3    3    0    0 -0.29871957886E-01 -0.17947654219E-01 -0.12355829262E+00  0.12993223494E+00  0.20032020421E-01 0.  0.
         14    1    1    2    0    0 -0.19111042717E-01 -0.11775422970E-01 -0.44734289405E-02  0.22888951622E-01  0.00000000000E+00 0. -1.
     999901    1    3    3    0    0  0.48983000603E-01  0.29723077189E-01  0.12803172156E+00  0.89110881344E+00  0.88000000000E+00 0.  1.
        -11    1    4    4    0    0 -0.73804665717E-02  0.42433964067E-02 -0.29456551325E-01  0.30666386107E-01  0.51100000000E-03 0. -1.
         11    1    4    4    0    0 -0.22491491314E-01 -0.22191050625E-01 -0.94101741290E-01  0.99265848831E-01  0.51100000000E-03 0.  1.
</event>
<event>
 8    1  0.1112958E+005  0.1043930E+01  0.7957747E-01            NaN
         13   -1    0    0    0    0  0.00000000000E+00  0.00000000000E+00  0.74505805969E-08  0.10566000000E+00  0.10566000000E+00 0. -1.
     999900   -1    0    0    0    0 -0.00000000000E+00 -0.00000000000E+00 -0.74505805969E-08  0.93827000000E+00  0.93827000000E+00 0. -1.
     999902    2    1    2    0    0  0.18242220758E-01  0.37227196203E-02  0.14557463238E-01  0.10202961896E+01  0.10200224299E+01 0.  0.
     999903    2    3    3    0    0  0.43045622917E-01  0.20784264368E-01  0.12262359995E+00  0.13317466747E+00  0.20347813014E-01 0.  0.
         14    1    1    2    0    0 -0.18242220758E-01 -0.37227196203E-02 -0.14557463238E-01  0.23633810431E-01  0.00000000000E+00 0. -1.
     999901    1    3    3    0    0 -0.24803402159E-01 -0.17061544748E-01 -0.10806613671E+00  0.88712152210E+00  0.88000000000E+00 0. -1.
        -11    1    4    4    0    0  0.32435239041E-01  0.23412762524E-01  0.10573964835E+00  0.11305457326E+00  0.51100000000E-03 0.  1.
         11    1    4    4    0    0  0.10610383877E-01 -0.26284981556E-02  0.16883951593E-01  0.20120094208E-01  0.51100000000E-03 0. -1.
</event>
<event>
 8    1  0.1112958E+005  0.1043930E+01  0.7957747E-01            NaN
         13   -1    0    0    0    0  0.00000000000E+00  0.00000000000E+00  0.74505805969E-08  0.10566000000E+00  0.10566000000E+00 0. -1.
     999900   -1    0    0    0    0 -0.00000000000E+00 -0.00000000000E+00 -0.74505805969E-08  0.93827000000E+00  0.93827000000E+00 0.  1.
     999902    2    1    2    0    0  0.15374663438E-01 -0.17458323031E-01 -0.79641983883E-02  0.10193413487E+01  0.10190447406E+01 0.  0.
     999903    2    3    3    0    0  0.40938051400E-01  0.99603834026E-01  0.63786413984E-01  0.12832777649E+00  0.28327792071E-01 0.  0.
         14    1    1    2    0    0 -0.15374663438E-01  0.17458323031E-01  0.79641983883E-02  0.24588651343E-01  0.00000000000E+00 0.  1.
     999901    1    3    3    0    0 -0.25563387962E-01 -0.11706215706E+00 -0.71750612372E-01  0.89101357217E+00  0.88000000000E+00 0.  1.
        -11    1    4    4    0    0  0.10791659264E-01  0.24331283160E-01  0.31003386053E-01  0.40864927721E-01  0.51100000000E-03 0.  1.
         11    1    4    4    0    0  0.30146392136E-01  0.75272550866E-01  0.32783027931E-01  0.87462848764E-01  0.51100000000E-03 0. -1.
</event>
<event>
 8    1  0.1112958E+005  0.1043930E+01  0.7957747E-01            NaN
         13   -1    0    0    0    0  0.00000000000E+00  0.00000000000E+00  0.74505805969E-08  0.10566000000E+00  0.10566000000E+00 0. -1.
     999900   -1    0    0    0    0 -0.00000000000E+00 -0.00000000000E+00 -0.74505805969E-08  0.93827000000E+00  0.93827000000E+00 0.  1.
     999902    2    1    2    0    0  0.50682449338E-02  0.18899921356E-01  0.13264054602E-01  0.10202904298E+01  0.10200165351E+01 0.  0.
     999903    2    3    3    0    0  0.11919331614E+00 -0.13292982384E-01 -0.46677148794E-01  0.13031634997E+00  0.20490116121E-01 0.  0.
         14    1    1    2    0    0 -0.50682449338E-02 -0.18899921356E-01 -0.13264054602E-01  0.23639570183E-01  0.00000000000E+00 0.  1.
     999901    1    3    3    0    0 -0.11412507120E+00  0.32192903740E-01  0.59941203395E-01  0.88997407984E+00  0.88000000000E+00 0. -1.
        -11    1    4    4    0    0  0.98520956769E-01 -0.10858589599E-01 -0.46523701059E-01  0.10949430931E+00  0.51100000000E-03 0. -1.
         11    1    4    4    0    0  0.20672359368E-01 -0.24343927850E-02 -0.15344773456E-03  0.20822040661E-01  0.51100000000E-03 0.  1.
</event>
<event>
 8    1  0.1112958E+005  0.1043930E+01  0.7957747E-01            NaN
         13   -1    0    0    0    0  0.00000000000E+00  0.00000000000E+00  0.74505805969E-08  0.10566000000E+00  0.10566000000E+00 0.  1.
     999900   -1    0    0    0    0 -0.00000000000E+00 -0.00000000000E+00 -0.74505805969E-08  0.93827000000E+00  0.93827000000E+00 0. -1.
     999902    2    1    2    0    0 -0.85222835082E-02  0.17974656613E-01 -0.83607451154E-02  0.10223517782E+01  0.10221240330E+01 0.  0.
     999903    2    3    3    0    0 -0.11177467165E+00  0.60327080054E-01 -0.40205873795E-01  0.13473198593E+00  0.20081382833E-01 0.  0.
         14    1    1    2    0    0  0.85222835082E-02 -0.17974656613E-01  0.83607451154E-02  0.21578221786E-01  0.00000000000E+00 0.  1.
     999901    1    3    3    0    0  0.10325238814E+00 -0.42352423441E-01  0.31845128679E-01  0.88761979228E+00  0.88000000000E+00 0. -1.
        -11    1    4    4    0    0 -0.59131436648E-01  0.31512679072E-01 -0.31666732154E-01  0.74112204046E-01  0.51100000000E-03 0. -1.
         11    1    4    4    0    0 -0.52643234999E-01  0.28814400982E-01 -0.85391416411E-02  0.60619781887E-01  0.51100000000E-03 0.  1.
</event>
<event>
 8    1  0.1112958E+005  0.1043930E+01  0.7957747E-01            NaN
         13   -1    0    0    0    0  0.00000000000E+00  0.00000000000E+00  0.74505805969E-08  0.10566000000E+00  0.10566000000E+00 0.  1.
     999900   -1    0    0    0    0 -0.00000000000E+00 -0.00000000000E+00 -0.74505805969E-08  0.93827000000E+00  0.93827000000E+00 0.  1.
     999902    2    1    2    0    0 -0.43117263554E-02 -0.13051300377E-01  0.18322399180E-01  0.10210250281E+01  0.10207680786E+01 0.  0.
     999903    2    3    3    0    0 -0.66969973024E-01  0.10985594250E+00  0.32780256987E-02  0.13014985200E+00  0.19363190159E-01 0.  0.
         14    1    1    2    0    0  0.43117263554E-02  0.13051300377E-01 -0.18322399180E-01  0.22904971893E-01  0.00000000000E+00 0. -1.
     999901    1    3    3    0    0  0.62658246669E-01 -0.12290724288E+00  0.15044373482E-01  0.89087517611E+00  0.88000000000E+00 0. -1.
        -11    1    4    4    0    0 -0.57698450852E-01  0.86292114935E-01 -0.37224948732E-02  0.10387279923E+00  0.51100000000E-03 0. -1.
         11    1    4    4    0    0 -0.92715221721E-02  0.23563827569E-01  0.70005205719E-02  0.26277052771E-01  0.51100000000E-03 0.  1.
</event>
<event>
 8    1  0.1112958E+005  0.1043930E+01  0.7957747E-01            NaN
         13   -1    0    0    0    0  0.00000000000E+00  0.00000000000E+00  0.74505805969E-08  0.10566000000E+00  0.10566000000E+00 0.  1.
     999900   -1    0    0    0    0 -0.00000000000E+00 -0.00000000000E+00 -0.74505805969E-08  0.93827000000E+00  0.93827000000E+00 0. -1.
     999902    2    1    2    0    0  0.13506982670E-01 -0.67463909757E-02 -0.18926366723E-01  0.10197192642E+01  0.10194318113E+01 0.  0.
     999903    2    3    3    0    0  0.40762800771E-04 -0.11594782641E+00  0.54258769950E-01  0.12985278160E+00  0.21767651714E-01 0.  0.
         14    1    1    2    0    0 -0.13506982670E-01  0.67463909757E-02  0.18926366723E-01  0.24210735829E-01  0.00000000000E+00 0.  1.
     999901    1    3    3    0    0  0.13466219870E-01  0.10920143543E+00 -0.73185136674E-01  0.88986648257E+00  0.88000000000E+00 0.  1.
        -11    1    4    4    0    0  0.87299324113E-02 -0.78176303654E-01  0.30380022030E-01  0.84326466974E-01  0.51100000000E-03 0.  1.
         11    1    4    4    0    0 -0.86891696106E-02 -0.37771522756E-01  0.23878747921E-01  0.45526314622E-01  0.51100000000E-03 0. -1.
</event>
<event>
 8    1  0.1112958E+005  0.1043930E+01  0.7957747E-01            NaN
         13   -1    0    0    0    0  0.00000000000E+00  0.00000000000E+00  0.74505805969E-08  0.10566000000E+00  0.10566000000E+00 0. -1.
     999900   -1    0    0    0    0 -0.00000000000E+00 -0.00000000000E+00 -0.74505805969E-08  0.93827000000E+00  0.93827000000E+00 0. -1.
     999902    2    1    2    0    0 -0.16513935840E-01 -0.17283228326E-01  0.32043896546E-02  0.10198117876E+01  0.10195265538E+01 0.  0.
     999903    2    3    3    0    0 -0.93742030790E-03 -0.12869729661E+00  0.23019741331E-01  0.13242891044E+00  0.21062642708E-01 0.  0.
         14    1    1    2    0    0  0.16513935840E-01  0.17283228326E-01 -0.32043896546E-02  0.24118212442E-01  0.00000000000E+00 0.  1.
     999901    1    3    3    0    0 -0.15576515532E-01  0.11141406828E+00 -0.19815351677E-01  0.88738287712E+00  0.88000000000E+00 0.  1.
        -11    1    4    4    0    0 -0.18268286939E-02 -0.83095891580E-02  0.68924515386E-02  0.10961459039E-01  0.51100000000E-03 0.  1.
         11    1    4    4    0    0  0.88940838599E-03 -0.12038770745E+00  0.16127289793E-01  0.12146745140E+00  0.51100000000E-03 0. -1.
</event>
<event>
 8    1  0.1112958E+005  0.1043930E+01  0.7957747E-01            NaN
         13   -1    0    0    0    0  0.00000000000E+00  0.00000000000E+00  0.74505805969E-08  0.10566000000E+00  0.10566000000E+00 0.  1.
     999900   -1    0    0    0    0 -0.00000000000E+00 -0.00000000000E+00 -0.74505805969E-08  0.93827000000E+00  0.93827000000E+00 0. -1.
     999902    2    1    2    0    0  0.82769383792E-02 -0.48464051354E-02  0.21787278755E-01  0.10201249403E+01  0.10198471518E+01 0.  0.
     999903    2    3    3    0    0  0.10216634573E+00 -0.10754509023E-01  0.82524342779E-01  0.13302905064E+00  0.18243889400E-01 0.  0.
         14    1    1    2    0    0 -0.82769383792E-02  0.48464051354E-02 -0.21787278755E-01  0.23805059698E-01  0.00000000000E+00 0. -1.
     999901    1    3    3    0    0 -0.93889407348E-01  0.59081038874E-02 -0.60737064024E-01  0.88709588966E+00  0.88000000000E+00 0.  1.
        -11    1    4    4    0    0  0.42818941060E-01 -0.98696288844E-02  0.25974637871E-01  0.51047176429E-01  0.51100000000E-03 0. -1.
         11    1    4    4    0    0  0.59347404667E-01 -0.88488013840E-03  0.56549704907E-01  0.81981874214E-01  0.51100000000E-03 0.  1.
</event>
<event>
 8    1  0.1112958E+005  0.1043930E+01  0.7957747E-01            NaN
         13   -1    0    0    0    0  0.00000000000E+00  0.00000000000E+00  0.74505805969E-08  0.10566000000E+00  0.10566000000E+00 0.  1.
     999900   -1    0    0    0    0 -0.00000000000E+00 -0.00000000000E+00 -0.74505805969E-08  0.93827000000E+00  0.93827000000E+00 0. -1.
     999902    2    1    2    0    0  0.97552728408E-02  0.16114403130E-01 -0.14826454545E-01  0.10199578685E+01  0.10196761203E+01 0.  0.
     999903    2    3    3    0    0  0.11361203584E-01  0.12962797293E+00  0.14118332503E-01  0.13219342321E+00  0.18527965785E-01 0.  0.
         14    1    1    2    0    0 -0.97552728408E-02 -0.16114403130E-01  0.14826454545E-01  0.23972131545E-01  0.00000000000E+00 0.  1.
     999901    1    3    3    0    0 -0.16059307433E-02 -0.11351356979E+00 -0.28944787047E-01  0.88776444524E+00  0.88000000000E+00 0. -1.
        -11    1    4    4    0    0  0.15598985419E-01  0.11471450214E+00  0.14503794953E-01  0.11667633237E+00  0.51100000000E-03 0. -1.
         11    1    4    4    0    0 -0.42377818348E-02  0.14913470788E-01 -0.38546245058E-03  0.15517090840E-01  0.51100000000E-03 0.  1.
</event>
<event>
 8    1  0.1112958E+005  0.1043930E+01  0.7957747E-01            NaN
         13   -1    0    0    0    0  0.00000000000E+00  0.00000000000E+00  0.74505805969E-08  0.10566000000E+00  0.10566000000E+00 0. -1.
     999900   -1    0    0    0    0 -0.00000000000E+00 -0.00000000000E+00 -0.74505805969E-08  0.93827000000E+00  0.93827000000E+00 0. -1.
     999902    2    1    2    0    0  0.18214107401E-01  0.14299557672E-01  0.60520690990E-02  0.10199955353E+01  0.10197146824E+01 0.  0.
     999903    2    3    3    0    0 -0.47817799650E-01 -0.10559569880E+00 -0.49587098813E-01  0.12767787762E+00  0.20143646546E-01 0.  0.
         14    1    1    2    0    0 -0.18214107401E-01 -0.14299557672E-01 -0.60520690990E-02  0.23934464657E-01  0.00000000000E+00 0.  1.
     999901    1    3    3    0    0  0.66031907051E-01  0.11989525648E+00  0.55639167912E-01  0.89231765772E+00  0.88000000000E+00 0.  1.
        -11    1    4    4    0    0 -0.38468749595E-01 -0.65677011868E-01 -0.37977588780E-01  0.85063934507E-01  0.51100000000E-03 0.  1.
         11    1    4    4    0    0 -0.93490500556E-02 -0.39918686936E-01 -0.11609510034E-01  0.42613943115E-01  0.51100000000E-03 0. -1.
</event>
<event>
 8    1  0.1112958E+005  0.1043930E+01  0.7957747E-01            NaN
         13   -1    0    0    0    0  0.00000000000E+00  0.00000000000E+00  0.74505805969E-08  0.10566000000E+00  0.10566000000E+00 0.  1.
     999900   -1    0    0    0    0 -0.00000000000E+00 -0.00000000000E+00 -0.74505805969E-08  0.93827000000E+00  0.93827000000E+00 0.  1.
     999902    2    1    2    0    0  0.19921323422E-01  0.25842319101E-02 -0.13161687671E-01  0.10199140177E+01  0.10196312256E+01 0.  0.
     999903    2    3    3    0    0 -0.21879814583E-01 -0.36646374904E-01 -0.12266502617E+00  0.13127609553E+00  0.19105536692E-01 0.  0.
         14    1    1    2    0    0 -0.19921323422E-01 -0.25842319101E-02  0.13161687671E-01  0.24015982258E-01  0.00000000000E+00 0.  1.
     999901    1    3    3    0    0  0.41801138005E-01  0.39230606814E-01  0.10950333850E+00  0.88863792221E+00  0.88000000000E+00 0. -1.
        -11    1    4    4    0    0  0.13504812497E-02 -0.49769455250E-02 -0.32728092348E-01  0.33135825568E-01  0.51100000000E-03 0.  1.
         11    1    4    4    0    0 -0.23230295833E-01 -0.31669429379E-01 -0.89936933824E-01  0.98140269963E-01  0.51100000000E-03 0. -1.
</event>
<event>
 8    1  0.1112958E+005  0.1043930E+01  0.7957747E-01            NaN
         13   -1    0    0    0    0  0.00000000000E+00  0.00000000000E+00  0.74505805969E-08  0.10566000000E+00  0.10566000000E+00 0. -1.
     999900   -1    0    0    0    0 -0.00000000000E+00 -0.00000000000E+00 -0.74505805969E-08  0.93827000000E+00  0.93827000000E+00 0.  1.
     999902    2    1    2    0    0  0.19103631834E-01  0.10007745430E-01 -0.87717558354E-02  0.10206480882E+01  0.10203825128E+01 0.  0.
     999903    2    3    3    0    0  0.97690589354E-01  0.29839396800E-01 -0.83463556536E-01  0.13377263504E+00  0.22251107051E-01 0.  0.
         14    1    1    2    0    0 -0.19103631834E-01 -0.10007745430E-01  0.87717558354E-02  0.23281911826E-01  0.00000000000E+00 0. -1.
     999901    1    3    3    0    0 -0.78586957520E-01 -0.19831651370E-01  0.74691800701E-01  0.88687545314E+00  0.88000000000E+00 0.  1.
        -11    1    4    4    0    0  0.40059806557E-01  0.19039026775E-01 -0.24754147749E-01  0.50796669120E-01  0.51100000000E-03 0. -1.
         11    1    4    4    0    0  0.57630782797E-01  0.10800370025E-01 -0.58709408787E-01  0.82975965915E-01  0.51100000000E-03 0.  1.
</event>
<event>
 8    1  0.1112958E+005  0.1043930E+01  0.7957747E-01            NaN
         13   -1    0    0    0    0  0.00000000000E+00  0.00000000000E+00  0.74505805969E-08  0.10566000000E+00  0.10566000000E+00 0.  1.
     999900   -1    0    0    0    0 -0.00000000000E+00 -0.00000000000E+00 -0.74505805969E-08  0.93827000000E+00  0.93827000000E+00 0. -1.
     999902    2    1    2    0    0  0.19354620637E-02 -0.12920831176E-01 -0.19774548764E-01  0.10202292264E+01  0.10199538949E+01 0.  0.
     999903    2    3    3    0    0  0.82948127401E-01 -0.10009687522E+00  0.77099402232E-02  0.13179345957E+00  0.20255777906E-01 0.  0.
         14    1    1    2    0    0 -0.19354620637E-02  0.12920831176E-01  0.19774548764E-01  0.23700773627E-01  0.00000000000E+00 0.  1.
     999901    1    3    3    0    0 -0.81012665338E-01  0.87176044046E-01 -0.27484488987E-01  0.88843576680E+00  0.88000000000E+00 0.  1.
        -11    1    4    4    0    0  0.59218383202E-01 -0.71542184111E-01 -0.37064482973E-02  0.92946758396E-01  0.51100000000E-03 0. -1.
         11    1    4    4    0    0  0.23729744199E-01 -0.28554691112E-01  0.11416388520E-01  0.38846701174E-01  0.51100000000E-03 0.  1.
</event>
<event>
 8    1  0.1112958E+005  0.1043930E+01  0.7957747E-01            NaN
         13   -1    0    0    0    0  0.00000000000E+00  0.00000000000E+00  0.74505805969E-08  0.10566000000E+00  0.10566000000E+00 0.  1.
     999900   -1    0    0    0    0 -0.00000000000E+00 -0.00000000000E+00 -0.74505805969E-08  0.93827000000E+00  0.93827000000E+00 0.  1.
     999902    2    1    2    0    0 -0.20544216225E-01 -0.81795990974E-02 -0.85826663609E-02  0.10202101175E+01  0.10199343367E+01 0.  0.
     999903    2    3    3    0    0  0.11948689503E-01 -0.20281785210E-01  0.12562087036E+00  0.12936061224E+00  0.19986068584E-01 0.  0.
         14    1    1    2    0    0  0.20544216225E-01  0.81795990974E-02  0.85826663609E-02  0.23719882453E-01  0.00000000000E+00 0. -1.
     999901    1    3    3    0    0 -0.32492905729E-01  0.12102186113E-01 -0.13420353672E+00  0.89084950530E+00  0.88000000000E+00 0.  1.
        -11    1    4    4    0    0  0.51982819703E-02 -0.16182086023E-01  0.41221442720E-01  0.44590924014E-01  0.51100000000E-03 0. -1.
         11    1    4    4    0    0  0.67504075329E-02 -0.40996991872E-02  0.84399427641E-01  0.84769688229E-01  0.51100000000E-03 0.  1.
</event>
<event>
 8    1  0.1112958E+005  0.1043930E+01  0.7957747E-01            NaN
         13   -1    0    0    0    0  0.00000000000E+00  0.00000000000E+00  0.74505805969E-08  0.10566000000E+00  0.10566000000E+00 0. -1.
     999900   -1    0    0    0    0 -0.00000000000E+00 -0.00000000000E+00 -0.74505805969E-08  0.93827000000E+00  0.93827000000E+00 0.  1.
     999902    2    1    2    0    0  0.22324671732E-01  0.68231074502E-02 -0.13202323662E-04  0.10205859229E+01  0.10203189109E+01 0.  0.
     999903    2    3    3    0    0  0.87589781964E-01 -0.42210977076E-01 -0.87705768946E-01  0.13246776501E+00  0.20041715760E-01 0.  0.
         14    1    1    2    0    0 -0.22324671732E-01 -0.68231074502E-02  0.13202323662E-04  0.23344077140E-01  0.00000000000E+00 0.  1.
     999901    1    3    3    0    0 -0.65265110232E-01  0.49034084527E-01  0.87692566623E-01  0.88811815785E+00  0.88000000000E+00 0. -1.
        -11    1    4    4    0    0  0.27679463750E-01 -0.12018004649E-01 -0.15586367192E-01  0.33967353628E-01  0.51100000000E-03 0.  1.
         11    1    4    4    0    0  0.59910318214E-01 -0.30192972428E-01 -0.72119401754E-01  0.98500411384E-01  0.51100000000E-03 0. -1.
</event>
<event>
 8    1  0.1112958E+005  0.1043930E+01  0.7957747E-01            NaN
         13   -1    0    0    0    0  0.00000000000E+00  0.00000000000E+00  0.74505805969E-08  0.10566000000E+00  0.10566000000E+00 0.  1.
     999900   -1    0    0    0    0 -0.00000000000E+00 -0.00000000000E+00 -0.74505805969E-08  0.93827000000E+00  0.93827000000E+00 0.  1.
     999902    2    1    2    0    0 -0.23686425791E-01 -0.35900934533E-02 -0.21844683714E-02  0.10198736611E+01  0.10195899064E+01 0.  0.
     999903    2    3    3    0    0 -0.10061706219E+00  0.30483693646E-01  0.77745779788E-01  0.13225426614E+00  0.19842778463E-01 0.  0.
         14    1    1    2    0    0  0.23686425791E-01  0.35900934533E-02  0.21844683714E-02  0.24056338869E-01  0.00000000000E+00 0.  1.
     999901    1    3    3    0    0  0.76930636397E-01 -0.34073787100E-01 -0.79930248160E-01  0.88761939499E+00  0.88000000000E+00 0.  1.
        -11    1    4    4    0    0 -0.39268820708E-01  0.93534720428E-02  0.18575087805E-01  0.44438977565E-01  0.51100000000E-03 0. -1.
         11    1    4    4    0    0 -0.61348241480E-01  0.21130221604E-01  0.59170691983E-01  0.87815288580E-01  0.51100000000E-03 0.  1.
</event>
<event>
 8    1  0.1112958E+005  0.1043930E+01  0.7957747E-01            NaN
         13   -1    0    0    0    0  0.00000000000E+00  0.00000000000E+00  0.74505805969E-08  0.10566000000E+00  0.10566000000E+00 0. -1.
     999900   -1    0    0    0    0 -0.00000000000E+00 -0.00000000000E+00 -0.74505805969E-08  0.93827000000E+00  0.93827000000E+00 0.  1.
     999902    2    1    2    0    0  0.16030248471E-02 -0.21826026097E-01 -0.67740975593E-02  0.10210207551E+01  0.10207637086E+01 0.  0.
     999903    2    3    3    0    0  0.71568453686E-01  0.57630675006E-01 -0.90754069155E-01  0.13070555013E+00  0.20107249988E-01 0.  0.
         14    1    1    2    0    0 -0.16030248471E-02  0.21826026097E-01  0.67740975593E-02  0.22909244894E-01  0.00000000000E+00 0. -1.
     999901    1    3    3    0    0 -0.69965428839E-01 -0.79456701103E-01  0.83979971595E-01  0.89031520498E+00  0.88000000000E+00 0. -1.
        -11    1    4    4    0    0  0.32037218033E-01  0.15324473757E-01 -0.42050173662E-01  0.55042720329E-01  0.51100000000E-03 0.  1.
         11    1    4    4    0    0  0.39531235653E-01  0.42306201249E-01 -0.48703895492E-01  0.75662829801E-01  0.51100000000E-03 0. -1.
</event>
<event>
 8    1  0.1112958E+005  0.1043930E+01  0.7957747E-01            NaN
         13   -1    0    0    0    0  0.00000000000E+00  0.00000000000E+00  0.74505805969E-08  0.10566000000E+00  0.10566000000E+00 0.  1.
     999900   -1    0    0    0    0 -0.00000000000E+00 -0.00000000000E+00 -0.74505805969E-08  0.93827000000E+00  0.93827000000E+00 0.  1.
     999902    2    1    2    0    0  0.12107294558E-01 -0.20702280967E-01 -0.60306995505E-02  0.10192006580E+01  0.10189006040E+01 0.  0.
     999903    2    3    3    0    0  0.36581692261E-01 -0.45774664748E-01  0.11466591627E+00  0.13027136180E+00  0.19718397771E-01 0.  0.
         14    1    1    2    0    0 -0.12107294558E-01  0.20702280967E-01  0.60306995505E-02  0.24729342002E-01  0.00000000000E+00 0.  1.
     999901    1    3    3    0    0 -0.24474397703E-01  0.25072383781E-01 -0.12069661582E+00  0.88892929620E+00  0.88000000000E+00 0.  1.
        -11    1    4    4    0    0  0.15840049104E-01 -0.10714362269E-01  0.22700235345E-01  0.29686133466E-01  0.51100000000E-03 0. -1.
         11    1    4    4    0    0  0.20741643158E-01 -0.35060302479E-01  0.91965680920E-01  0.10058522833E+00  0.51100000000E-03 0.  1.
</event>
<event>
 8    1  0.1112958E+005  0.1043930E+01  0.7957747E-01            NaN
         13   -1    0    0    0    0  0.00000000000E+00  0.00000000000E+00  0.74505805969E-08  0.10566000000E+00  0.10566000000E+00 0. -1.
     999900   -1    0    0    0    0 -0.00000000000E+00 -0.00000000000E+00 -0.74505805969E-08  0.93827000000E+00  0.93827000000E+00 0. -1.
     999902    2    1    2    0    0 -0.14162645817E-01 -0.13702280084E-01 -0.15225266794E-01  0.10190273543E+01  0.10187230276E+01 0.  0.
     999903    2    3    3    0    0  0.36126618947E-01 -0.12380499717E+00  0.29852160554E-02  0.13055493479E+00  0.20071610874E-01 0.  0.
         14    1    1    2    0    0  0.14162645817E-01  0.13702280084E-01  0.15225266794E-01  0.24902645743E-01  0.00000000000E+00 0. -1.
     999901    1    3    3    0    0 -0.50289264763E-01  0.11010271709E+00 -0.18210482849E-01  0.88847241946E+00  0.88000000000E+00 0. -1.
        -11    1    4    4    0    0  0.16336331893E-01 -0.88914209777E-01  0.18346314101E-02  0.90422560422E-01  0.51100000000E-03 0.  1.
         11    1    4    4    0    0  0.19790287054E-01 -0.34890787395E-01  0.11505846453E-02  0.40132374372E-01  0.51100000000E-03 0. -1.
</event>
<event>
 8    1  0.1112958E+005  0.1043930E+01  0.7957747E-01            NaN
         13   -1    0    0    0    0  0.00000000000E+00  0.00000000000E+00  0.74505805969E-08  0.10566000000E+00  0.10566000000E+00 0.  1.
     999900   -1    0    0    0    0 -0.00000000000E+00 -0.00000000000E+00 -0.74505805969E-08  0.93827000000E+00  0.93827000000E+00 0.  1.
     999902    2    1    2    0    0  0.69171924550E-03 -0.18029399993E-01  0.15565417421E-01  0.10201010269E+01  0.10198226734E+01 0.  0.
     999903    2    3    3    0    0 -0.11478382483E+00 -0.30386245949E-01  0.53312614319E-01  0.13166861878E+00  0.19893213439E-01 0.  0.
         14    1    1    2    0    0 -0.69171924550E-03  0.18029399993E-01 -0.15565417421E-01  0.23828973102E-01  0.00000000000E+00 0. -1.
     999901    1    3    3    0    0  0.11547554407E+00  0.12356845956E-01 -0.37747196898E-01  0.88843240812E+00  0.88000000000E+00 0.  1.
        -11    1    4    4    0    0 -0.99808857098E-01 -0.30601613312E-01  0.40583927457E-01  0.11200706666E+00  0.51100000000E-03 0. -1.
         11    1    4    4    0    0 -0.14974967730E-01  0.21536736317E-03  0.12728686862E-01  0.19661552122E-01  0.51100000000E-03 0.  1.
</event>
<event>
 8    1  0.1112958E+005  0.1043930E+01  0.7957747E-01            NaN
         13   -1    0    0    0    0  0.00000000000E+00  0.00000000000E+00  0.74505805969E-08  0.10566000000E+00  0.10566000000E+00 0.  1.
     999900   -1    0    0    0    0 -0.00000000000E+00 -0.00000000000E+00 -0.74505805969E-08  0.93827000000E+00  0.93827000000E+00 0.  1.
     999902    2    1    2    0    0 -0.12797137943E-01  0.15423464148E-01  0.10165909690E-01  0.10214578905E+01  0.10212106670E+01 0.  0.
     999903    2    3    3    0    0 -0.27259522061E-02 -0.27667211167E-01 -0.12536914760E+00  0.12998271595E+00  0.20129030914E-01 0.  0.
         14    1    1    2    0    0  0.12797137943E-01 -0.15423464148E-01 -0.10165909690E-01  0.22472109507E-01  0.00000000000E+00 0. -1.
     999901    1    3    3    0    0 -0.10071185737E-01  0.43090675315E-01  0.13553505729E+00  0.89147517455E+00  0.88000000000E+00 0. -1.
        -11    1    4    4    0    0 -0.10888703557E-01 -0.16489658110E-01 -0.86185575412E-01  0.88423340922E-01  0.51100000000E-03 0. -1.
         11    1    4    4    0    0  0.81627513506E-02 -0.11177553057E-01 -0.39183572187E-01  0.41559375023E-01  0.51100000000E-03 0.  1.
</event>
<event>
 8    1  0.1112958E+005  0.1043930E+01  0.7957747E-01            NaN
         13   -1    0    0    0    0  0.00000000000E+00  0.00000000000E+00  0.74505805969E-08  0.10566000000E+00  0.10566000000E+00 0.  1.
     999900   -1    0    0    0    0 -0.00000000000E+00 -0.00000000000E+00 -0.74505805969E-08  0.93827000000E+00  0.93827000000E+00 0.  1.
     999902    2    1    2    0    0 -0.51908483908E-02 -0.10438618822E-01 -0.17067710067E-01  0.10232607863E+01  0.10230520125E+01 0.  0.
     999903    2    3    3    0    0  0.12386989977E+00  0.42050960425E-02 -0.45217445274E-01  0.13328127936E+00  0.18916848799E-01 0.  0.
         14    1    1    2    0    0  0.51908483908E-02  0.10438618822E-01  0.17067710067E-01  0.20669213746E-01  0.00000000000E+00 0.  1.
     999901    1    3    3    0    0 -0.12906074816E+00 -0.14643714864E-01  0.28149735207E-01  0.88997950690E+00  0.88000000000E+00 0. -1.
        -11    1    4    4    0    0  0.17328571420E-01  0.72325228253E-02 -0.62847167294E-02  0.19807765125E-01  0.51100000000E-03 0.  1.
         11    1    4    4    0    0  0.10654132835E+00 -0.30274267828E-02 -0.38932728545E-01  0.11347351423E+00  0.51100000000E-03 0. -1.
</event>
<event>
 8    1  0.1407168E+005  0.1043930E+01  0.7957747E-01            NaN
         13   -1    0    0    0    0  0.00000000000E+00  0.00000000000E+00  0.74505805969E-08  0.10566000000E+00  0.10566000000E+00 0.  1.
     999900   -1    0    0    0    0 -0.00000000000E+00 -0.00000000000E+00 -0.74505805969E-08  0.93827000000E+00  0.93827000000E+00 0. -1.
     999902    2    1    2    0    0  0.21356967740E-01 -0.99325638854E-04  0.10411419007E-01  0.10201702108E+01  0.10198934902E+01 0.  0.
     999903    2    3    3    0    0  0.90202343845E-01  0.59267980038E-01  0.75810202060E-01  0.13307316786E+00  0.17667058997E-01 0.  0.
         14    1    1    2    0    0 -0.21356967740E-01  0.99325638854E-04 -0.10411419007E-01  0.23759789190E-01  0.00000000000E+00 0.  1.
     999901    1    3    3    0    0 -0.68845376105E-01 -0.59367305677E-01 -0.65398783053E-01  0.88709704295E+00  0.88000000000E+00 0. -1.
        -11    1    4    4    0    0  0.33775216217E-01  0.26673112330E-01  0.39784748090E-01  0.58611495916E-01  0.51100000000E-03 0.  1.
         11    1    4    4    0    0  0.56427127628E-01  0.32594867708E-01  0.36025453970E-01  0.74461671939E-01  0.51100000000E-03 0. -1.
</event>
<event>
 8    1  0.1112958E+005  0.1043930E+01  0.7957747E-01            NaN
         13   -1    0    0    0    0  0.00000000000E+00  0.00000000000E+00  0.74505805969E-08  0.10566000000E+00  0.10566000000E+00 0. -1.
     999900   -1    0    0    0    0 -0.00000000000E+00 -0.00000000000E+00 -0.74505805969E-08  0.93827000000E+00  0.93827000000E+00 0. -1.
     999902    2    1    2    0    0  0.21218670604E-01 -0.12122125918E-01  0.89148948148E-03  0.10194765202E+01  0.10191832037E+01 0.  0.
     999903    2    3    3    0    0  0.81811060443E-01  0.97967668580E-01  0.17358800258E-01  0.13039701149E+00  0.20281493050E-01 0.  0.
         14    1    1    2    0    0 -0.21218670604E-01  0.12122125918E-01 -0.89148948148E-03  0.24453479762E-01  0.00000000000E+00 0. -1.
     999901    1    3    3    0    0 -0.60592389839E-01 -0.11008979450E+00 -0.16467310776E-01  0.88907950875E+00  0.88000000000E+00 0.  1.
        -11    1    4    4    0    0  0.62323892078E-01  0.72101681982E-01  0.21624292553E-01  0.97728149567E-01  0.51100000000E-03 0. -1.
         11    1    4    4    0    0  0.19487168365E-01  0.25865986598E-01 -0.42654922950E-02  0.32668861919E-01  0.51100000000E-03 0.  1.
</event>
<event>
 8    1  0.1112958E+005  0.1043930E+01  0.7957747E-01            NaN
         13   -1    0    0    0    0  0.00000000000E+00  0.00000000000E+00  0.74505805969E-08  0.10566000000E+00  0.10566000000E+00 0. -1.
     999900   -1    0    0    0    0 -0.00000000000E+00 -0.00000000000E+00 -0.74505805969E-08  0.93827000000E+00  0.93827000000E+00 0.  1.
     999902    2    1    2    0    0 -0.15984980607E-01 -0.42318288891E-02 -0.16944384089E-01  0.10202542712E+01  0.10199795281E+01 0.  0.
     999903    2    3    3    0    0 -0.12654625534E+00 -0.12584560504E-01 -0.33534196590E-01  0.13314165973E+00  0.20732421731E-01 0.  0.
         14    1    1    2    0    0  0.15984980607E-01  0.42318288891E-02  0.16944384089E-01  0.23675728772E-01  0.00000000000E+00 0. -1.
     999901    1    3    3    0    0  0.11056127474E+00  0.83527316147E-02  0.16589812501E-01  0.88711261150E+00  0.88000000000E+00 0. -1.
        -11    1    4    4    0    0 -0.72822251929E-01 -0.10473174923E-01 -0.92792122012E-02  0.74156137096E-01  0.51100000000E-03 0.  1.
         11    1    4    4    0    0 -0.53724003414E-01 -0.21113855811E-02 -0.24254984389E-01  0.58985522635E-01  0.51100000000E-03 0. -1.
</event>
<event>
 8    1  0.1112958E+005  0.1043930E+01  0.7957747E-01            NaN
         13   -1    0    0    0    0  0.00000000000E+00  0.00000000000E+00  0.74505805969E-08  0.10566000000E+00  0.10566000000E+00 0.  1.
     999900   -1    0    0    0    0 -0.00000000000E+00 -0.00000000000E+00 -0.74505805969E-08  0.93827000000E+00  0.93827000000E+00 0.  1.
     999902    2    1    2    0    0 -0.14201110646E-01 -0.54219458963E-02  0.17957051001E-01  0.10204028939E+01  0.10201316293E+01 0.  0.
     999903    2    3    3    0    0  0.93126170464E-01 -0.56980510335E-01 -0.63889151130E-01  0.12862027933E+00  0.23282835744E-01 0.  0.
         14    1    1    2    0    0  0.14201110646E-01  0.54219458963E-02 -0.17957051001E-01  0.23527106102E-01  0.00000000000E+00 0. -1.
     999901    1    3    3    0    0 -0.10732728111E+00  0.51558564439E-01  0.81846202130E-01  0.89178261457E+00  0.88000000000E+00 0. -1.
        -11    1    4    4    0    0  0.86441799070E-01 -0.45087112855E-01 -0.51889341454E-01  0.11044363834E+00  0.51100000000E-03 0. -1.
         11    1    4    4    0    0  0.66843713934E-02 -0.11893397481E-01 -0.11999809676E-01  0.18176640994E-01  0.51100000000E-03 0.  1.
</event>
<event>
 8    1  0.1112958E+005  0.1043930E+01  0.7957747E-01            NaN
         13   -1    0    0    0    0  0.00000000000E+00  0.00000000000E+00  0.74505805969E-08  0.10566000000E+00  0.10566000000E+00 0. -1.
     999900   -1    0    0    0    0 -0.00000000000E+00 -0.00000000000E+00 -0.74505805969E-08  0.93827000000E+00  0.93827000000E+00 0. -1.
     999902    2    1    2    0    0  0.71512621593E-02 -0.16897311556E-01  0.14054308196E-01  0.10208175950E+01  0.10205559166E+01 0.  0.
     999903    2    3    3    0    0  0.93882112022E-01  0.85000204396E-01  0.25757661837E-01  0.13062530530E+00  0.18990195762E-01 0.  0.
         14    1    1    2    0    0 -0.71512621593E-02  0.16897311556E-01 -0.14054308196E-01  0.23112405050E-01  0.00000000000E+00 0. -1.
     999901    1    3    3    0    0 -0.86730849863E-01 -0.10189751595E+00 -0.11703353640E-01  0.89019228966E+00  0.88000000000E+00 0. -1.
        -11    1    4    4    0    0  0.41510417914E-01  0.30809617922E-01  0.18521964735E-01  0.54915131344E-01  0.51100000000E-03 0.  1.
         11    1    4    4    0    0  0.52371694108E-01  0.54190586474E-01  0.72356971014E-02  0.75710173951E-01  0.51100000000E-03 0. -1.
</event>
<event>
 8    1  0.1112958E+005  0.1043930E+01  0.7957747E-01            NaN
         13   -1    0    0    0    0  0.00000000000E+00  0.00000000000E+00  0.74505805969E-08  0.10566000000E+00  0.10566000000E+00 0.  1.
     999900   -1    0    0    0    0 -0.00000000000E+00 -0.00000000000E+00 -0.74505805969E-08  0.93827000000E+00  0.93827000000E+00 0.  1.
     999902    2    1    2    0    0  0.19658410163E-01  0.12074897950E-01  0.45370641473E-02  0.10204174246E+01  0.10201464989E+01 0.  0.
     999903    2    3    3    0    0 -0.22884816819E-03 -0.98586931551E-01  0.81959764286E-01  0.12989183932E+00  0.20857888572E-01 0.  0.
         14    1    1    2    0    0 -0.19658410163E-01 -0.12074897950E-01 -0.45370641473E-02  0.23512575395E-01  0.00000000000E+00 0. -1.
     999901    1    3    3    0    0  0.19887258331E-01  0.11066182950E+00 -0.77422700139E-01  0.89052558529E+00  0.88000000000E+00 0.  1.
        -11    1    4    4    0    0  0.48094427336E-02 -0.72645889905E-01  0.49536762817E-01  0.88060820181E-01  0.51100000000E-03 0.  1.
         11    1    4    4    0    0 -0.50382909018E-02 -0.25941041646E-01  0.32423001469E-01  0.41831019138E-01  0.51100000000E-03 0. -1.
</event>
<event>
 8    1  0.1112958E+005  0.1043930E+01  0.7957747E-01            NaN
         13   -1    0    0    0    0  0.00000000000E+00  0.00000000000E+00  0.74505805969E-08  0.10566000000E+00  0.10566000000E+00 0.  1.
     999900   -1    0    0    0    0 -0.00000000000E+00 -0.00000000000E+00 -0.74505805969E-08  0.93827000000E+00  0.93827000000E+00 0. -1.
     999902    2    1    2    0    0 -0.23791364183E-01  0.20115077263E-02  0.12518276039E-02  0.10200209589E+01  0.10197407094E+01 0.  0.
     999903    2    3    3    0    0  0.25726611413E-01  0.11142986064E+00  0.58361308637E-01  0.13002888104E+00  0.20566846692E-01 0.  0.
         14    1    1    2    0    0  0.23791364183E-01 -0.20115077263E-02 -0.12518276039E-02  0.23909041080E-01  0.00000000000E+00 0. -1.
     999901    1    3    3    0    0 -0.49517975596E-01 -0.10941835291E+00 -0.57109481033E-01  0.88999207788E+00  0.88000000000E+00 0. -1.
        -11    1    4    4    0    0  0.16237036820E-01  0.71368127200E-01  0.26051289112E-01  0.77691580819E-01  0.51100000000E-03 0.  1.
         11    1    4    4    0    0  0.94895745928E-02  0.40061733437E-01  0.32310019526E-01  0.52337300224E-01  0.51100000000E-03 0. -1.
</event>
<event>
 8    1  0.1112958E+005  0.1043930E+01  0.7957747E-01            NaN
         13   -1    0    0    0    0  0.00000000000E+00  0.00000000000E+00  0.74505805969E-08  0.10566000000E+00  0.10566000000E+00 0.  1.
     999900   -1    0    0    0    0 -0.00000000000E+00 -0.00000000000E+00 -0.74505805969E-08  0.93827000000E+00  0.93827000000E+00 0. -1.
     999902    2    1    2    0    0  0.13416947772E-01  0.16883080996E-01 -0.57061009015E-02  0.10216227703E+01  0.10213792010E+01 0.  0.
     999903    2    3    3    0    0  0.96486702235E-02 -0.61883895621E-01 -0.11386399981E+00  0.13150111137E+00  0.20120100981E-01 0.  0.
         14    1    1    2    0    0 -0.13416947772E-01 -0.16883080996E-01  0.57061009015E-02  0.22307229745E-01  0.00000000000E+00 0.  1.
     999901    1    3    3    0    0  0.37682775484E-02  0.78766976617E-01  0.10815789891E+00  0.89012165889E+00  0.88000000000E+00 0.  1.
        -11    1    4    4    0    0  0.41490298401E-02 -0.29073152210E-01 -0.73751810334E-01  0.79385472705E-01  0.51100000000E-03 0.  1.
         11    1    4    4    0    0  0.54996403834E-02 -0.32810743411E-01 -0.40112189478E-01  0.52115638663E-01  0.51100000000E-03 0. -1.
</event>
<event>
 8    1  0.1112958E+005  0.1043930E+01  0.7957747E-01            NaN
         13   -1    0    0    0    0  0.00000000000E+00  0.00000000000E+00  0.74505805969E-08  0.10566000000E+00  0.10566000000E+00 0. -1.
     999900   -1    0    0    0    0 -0.00000000000E+00 -0.00000000000E+00 -0.74505805969E-08  0.93827000000E+00  0.93827000000E+00 0. -1.
     999902    2    1    2    0    0 -0.19182831370E-01 -0.83222258531E-02 -0.14340249982E-02  0.10229705895E+01  0.10227558506E+01 0.  0.
     999903    2    3    3    0    0  0.77828920529E-01 -0.10512816225E+00 -0.67844634224E-03  0.13236223545E+00  0.20249190512E-01 0.  0.
         14    1    1    2    0    0  0.19182831370E-01  0.83222258531E-02  0.14340249982E-02  0.20959410541E-01  0.00000000000E+00 0.  1.
     999901    1    3    3    0    0 -0.97011751899E-01  0.96805936394E-01 -0.75557865593E-03  0.89060835401E+00  0.88000000000E+00 0. -1.
        -11    1    4    4    0    0  0.52659280608E-01 -0.55983608832E-01  0.38752154364E-02  0.76957408400E-01  0.51100000000E-03 0. -1.
         11    1    4    4    0    0  0.25169639921E-01 -0.49144553414E-01 -0.45536617786E-02  0.55404827052E-01  0.51100000000E-03 0.  1.
</event>
<event>
 8    1  0.1112958E+005  0.1043930E+01  0.7957747E-01            NaN
         13   -1    0    0    0    0  0.00000000000E+00  0.00000000000E+00  0.74505805969E-08  0.10566000000E+00  0.10566000000E+00 0.  1.
     999900   -1    0    0    0    0 -0.00000000000E+00 -0.00000000000E+00 -0.74505805969E-08  0.93827000000E+00  0.93827000000E+00 0. -1.
     999902    2    1    2    0    0  0.15649694993E-01 -0.18077802338E-01 -0.38062035061E-03  0.10200163060E+01  0.10197359460E+01 0.  0.
     999903    2    3    3    0    0 -0.41120490296E-01 -0.64464375838E-01 -0.10421752951E+00  0.13088376700E+00  0.20560071308E-01 0.  0.
         14    1    1    2    0    0 -0.15649694993E-01  0.18077802338E-01  0.38062035061E-03  0.23913694039E-01  0.00000000000E+00 0. -1.
     999901    1    3    3    0    0  0.56770185289E-01  0.46386573501E-01  0.10383690916E+00  0.88913253896E+00  0.88000000000E+00 0.  1.
        -11    1    4    4    0    0 -0.14593629023E-01 -0.40025719124E-01 -0.63703557375E-01  0.76638349034E-01  0.51100000000E-03 0.  1.
         11    1    4    4    0    0 -0.26526861273E-01 -0.24438656714E-01 -0.40513972134E-01  0.54245417964E-01  0.51100000000E-03 0. -1.
</event>
<event>
 8    1  0.1112958E+005  0.1043930E+01  0.7957747E-01            NaN
         13   -1    0    0    0    0  0.00000000000E+00  0.00000000000E+00  0.74505805969E-08  0.10566000000E+00  0.10566000000E+00 0.  1.
     999900   -1    0    0    0    0 -0.00000000000E+00 -0.00000000000E+00 -0.74505805969E-08  0.93827000000E+00  0.93827000000E+00 0. -1.
     999902    2    1    2    0    0 -0.22126449328E-02  0.97811223180E-02 -0.21619572473E-01  0.10200978355E+01  0.10198194065E+01 0.  0.
     999903    2    3    3    0    0 -0.11284709964E+00 -0.35356624278E-01  0.48150937384E-01  0.12928622646E+00  0.20294255436E-01 0.  0.
         14    1    1    2    0    0  0.22126449328E-02 -0.97811223180E-02  0.21619572473E-01  0.23832164512E-01  0.00000000000E+00 0.  1.
     999901    1    3    3    0    0  0.11063445471E+00  0.45137746596E-01 -0.69770509857E-01  0.89081160903E+00  0.88000000000E+00 0. -1.
        -11    1    4    4    0    0 -0.20309478159E-01  0.12796267466E-02  0.62046352141E-02  0.21280765185E-01  0.51100000000E-03 0.  1.
         11    1    4    4    0    0 -0.92537621480E-01 -0.36636251025E-01  0.41946302170E-01  0.10800546127E+00  0.51100000000E-03 0. -1.
</event>
<event>
 8    1  0.1112958E+005  0.1043930E+01  0.7957747E-01            NaN
         13   -1    0    0    0    0  0.00000000000E+00  0.00000000000E+00  0.74505805969E-08  0.10566000000E+00  0.10566000000E+00 0.  1.
     999900   -1    0    0    0    0 -0.00000000000E+00 -0.00000000000E+00 -0.74505805969E-08  0.93827000000E+00  0.93827000000E+00 0.  1.
     999902    2    1    2    0    0 -0.10902664316E-03 -0.23437727588E-01 -0.16071833802E-02  0.10204369798E+01  0.10201665098E+01 0.  0.
     999903    2    3    3    0    0  0.89443877531E-02 -0.13111018312E+00  0.14294473704E-01  0.13368550123E+00  0.19939886380E-01 0.  0.
         14    1    1    2    0    0  0.10902664316E-03  0.23437727588E-01  0.16071833802E-02  0.23493020234E-01  0.00000000000E+00 0. -1.
     999901    1    3    3    0    0 -0.90534143963E-02  0.10767245554E+00 -0.15901657084E-01  0.88675147854E+00  0.88000000000E+00 0. -1.
        -11    1    4    4    0    0  0.65814233831E-02 -0.40803182452E-01 -0.39508639308E-02  0.41522105905E-01  0.51100000000E-03 0. -1.
         11    1    4    4    0    0  0.23629643700E-02 -0.90307000672E-01  0.18245337635E-01  0.92163395322E-01  0.51100000000E-03 0.  1.
</event>
<event>
 8    1  0.1112958E+005  0.1043930E+01  0.7957747E-01            NaN
         13   -1    0    0    0    0  0.00000000000E+00  0.00000000000E+00  0.74505805969E-08  0.10566000000E+00  0.10566000000E+00 0. -1.
     999900   -1    0    0    0    0 -0.00000000000E+00 -0.00000000000E+00 -0.74505805969E-08  0.93827000000E+00  0.93827000000E+00 0. -1.
     999902    2    1    2    0    0  0.69259339869E-03  0.13693725472E-01 -0.21213390882E-01  0.10186712242E+01  0.10183580202E+01 0.  0.
     999903    2    3    3    0    0 -0.72855346669E-01 -0.17237489047E-01 -0.10578735486E+00  0.13102332389E+00  0.19264329441E-01 0.  0.
         14    1    1    2    0    0 -0.69259339869E-03 -0.13693725472E-01  0.21213390882E-01  0.25258775814E-01  0.00000000000E+00 0. -1.
     999901    1    3    3    0    0  0.73547940067E-01  0.30931214519E-01  0.84573963974E-01  0.88764790030E+00  0.88000000000E+00 0.  1.
        -11    1    4    4    0    0 -0.17216095410E-01 -0.17548150990E-02 -0.12688514677E-01  0.21464688279E-01  0.51100000000E-03 0.  1.
         11    1    4    4    0    0 -0.55639251258E-01 -0.15482673948E-01 -0.93098840178E-01  0.10955863561E+00  0.51100000000E-03 0. -1.
</event>
<event>
 8    1  0.1112958E+005  0.1043930E+01  0.7957747E-01            NaN
         13   -1    0    0    0    0  0.00000000000E+00  0.00000000000E+00  0.74505805969E-08  0.10566000000E+00  0.10566000000E+00 0.  1.
     999900   -1    0    0    0    0 -0.00000000000E+00 -0.00000000000E+00 -0.74505805969E-08  0.93827000000E+00  0.93827000000E+00 0.  1.
     999902    2    1    2    0    0  0.21676319457E-02 -0.22555646327E-01 -0.69257444130E-02  0.10202356601E+01  0.10199604798E+01 0.  0.
     999903    2    3    3    0    0  0.33864913050E-01  0.84587343845E-01 -0.88251053253E-01  0.12945053231E+00  0.25832940970E-01 0.  0.
         14    1    1    2    0    0 -0.21676319457E-02  0.22555646327E-01  0.69257444130E-02  0.23694339939E-01  0.00000000000E+00 0.  1.
     999901    1    3    3    0    0 -0.31697281105E-01 -0.10714299017E+00  0.81325308840E-01  0.89078512776E+00  0.88000000000E+00 0.  1.
        -11    1    4    4    0    0  0.35637971859E-01  0.62136156454E-01 -0.60936782834E-01  0.94045306104E-01  0.51100000000E-03 0. -1.
         11    1    4    4    0    0 -0.17730588087E-02  0.22451187391E-01 -0.27314270419E-01  0.35405226201E-01  0.51100000000E-03 0.  1.
</event>
<event>
 8    1  0.1112958E+005  0.1043930E+01  0.7957747E-01            NaN
         13   -1    0    0    0    0  0.00000000000E+00  0.00000000000E+00  0.74505805969E-08  0.10566000000E+00  0.10566000000E+00 0.  1.
     999900   -1    0    0    0    0 -0.00000000000E+00 -0.00000000000E+00 -0.74505805969E-08  0.93827000000E+00  0.93827000000E+00 0. -1.
     999902    2    1    2    0    0 -0.16444289081E-01  0.65883968864E-02  0.12824379512E-01  0.10220602417E+01  0.10218262335E+01 0.  0.
     999903    2    3    3    0    0  0.91444589734E-02 -0.12548761878E+00 -0.30372410677E-01  0.13078877881E+00  0.18773857753E-01 0.  0.
         14    1    1    2    0    0  0.16444289081E-01 -0.65883968864E-02 -0.12824379512E-01  0.21869758270E-01  0.00000000000E+00 0. -1.
     999901    1    3    3    0    0 -0.25588748054E-01  0.13207601566E+00  0.43196790189E-01  0.89127146292E+00  0.88000000000E+00 0.  1.
        -11    1    4    4    0    0 -0.19349051611E-02 -0.63043884995E-01 -0.82140590218E-02  0.63608232013E-01  0.51100000000E-03 0.  1.
         11    1    4    4    0    0  0.11079364135E-01 -0.62443733782E-01 -0.22158351655E-01  0.67180546793E-01  0.51100000000E-03 0. -1.
</event>
<event>
 8    1  0.1112958E+005  0.1043930E+01  0.7957747E-01            NaN
         13   -1    0    0    0    0  0.00000000000E+00  0.00000000000E+00  0.74505805969E-08  0.10566000000E+00  0.10566000000E+00 0. -1.
     999900   -1    0    0    0    0 -0.00000000000E+00 -0.00000000000E+00 -0.74505805969E-08  0.93827000000E+00  0.93827000000E+00 0.  1.
     999902    2    1    2    0    0  0.50642553765E-02 -0.43883725417E-02  0.23238595851E-01  0.10197445326E+01  0.10194576867E+01 0.  0.
     999903    2    3    3    0    0 -0.91094107360E-01 -0.76129962174E-01 -0.45114913832E-01  0.12897773445E+00  0.22494288104E-01 0.  0.
         14    1    1    2    0    0 -0.50642553765E-02  0.43883725417E-02 -0.23238595851E-01  0.24185467397E-01  0.00000000000E+00 0.  1.
     999901    1    3    3    0    0  0.96158362736E-01  0.71741589632E-01  0.68353509683E-01  0.89076679815E+00  0.88000000000E+00 0. -1.
        -11    1    4    4    0    0 -0.68909811422E-01 -0.66597728624E-01 -0.41976832680E-01  0.10462377918E+00  0.51100000000E-03 0. -1.
         11    1    4    4    0    0 -0.22184295938E-01 -0.95322335502E-02 -0.31380811526E-02  0.24353955265E-01  0.51100000000E-03 0.  1.
</event>
<event>
 8    1  0.1112958E+005  0.1043930E+01  0.7957747E-01            NaN
         13   -1    0    0    0    0  0.00000000000E+00  0.00000000000E+00  0.74505805969E-08  0.10566000000E+00  0.10566000000E+00 0.  1.
     999900   -1    0    0    0    0 -0.00000000000E+00 -0.00000000000E+00 -0.74505805969E-08  0.93827000000E+00  0.93827000000E+00 0.  1.
     999902    2    1    2    0    0 -0.50151397740E-02  0.17610166684E-01  0.18707810481E-01  0.10177526860E+01  0.10174159808E+01 0.  0.
     999903    2    3    3    0    0 -0.59777506358E-01 -0.39862576266E-01  0.10623078565E+00  0.12985499807E+00  0.20370700792E-01 0.  0.
         14    1    1    2    0    0  0.50151397740E-02 -0.17610166684E-01 -0.18707810481E-01  0.26177314044E-01  0.00000000000E+00 0. -1.
     999901    1    3    3    0    0  0.54762366584E-01  0.57472742950E-01 -0.87522975166E-01  0.88789768789E+00  0.88000000000E+00 0. -1.
        -11    1    4    4    0    0 -0.27846015567E-01 -0.13284411710E-01  0.61487234431E-01  0.68795474389E-01  0.51100000000E-03 0. -1.
         11    1    4    4    0    0 -0.31931490792E-01 -0.26578164556E-01  0.44743551216E-01  0.61059523678E-01  0.51100000000E-03 0.  1.
</event>
<event>
 8    1  0.1112958E+005  0.1043930E+01  0.7957747E-01            NaN
         13   -1    0    0    0    0  0.00000000000E+00  0.00000000000E+00  0.74505805969E-08  0.10566000000E+00  0.10566000000E+00 0. -1.
     999900   -1    0    0    0    0 -0.00000000000E+00 -0.00000000000E+00 -0.74505805969E-08  0.93827000000E+00  0.93827000000E+00 0. -1.
     999902    2    1    2    0    0 -0.21478801294E-01  0.41088720463E-02 -0.20594557495E-05  0.10220617184E+01  0.10218277421E+01 0.  0.
     999903    2    3    3    0    0 -0.70090260935E-02 -0.92707214893E-01  0.92149604986E-01  0.13185126110E+00  0.15794024642E-01 0.  0.
         14    1    1    2    0    0  0.21478801294E-01 -0.41088720463E-02  0.20594557494E-05  0.21868281569E-01  0.00000000000E+00 0.  1.
     999901    1    3    3    0    0 -0.14469775201E-01  0.96816086939E-01 -0.92151664441E-01  0.89021045733E+00  0.88000000000E+00 0. -1.
        -11    1    4    4    0    0 -0.19722779830E-02 -0.85178999581E-01  0.84212390005E-01  0.11979707677E+00  0.51100000000E-03 0.  1.
         11    1    4    4    0    0 -0.50367481104E-02 -0.75282153116E-02  0.79372149809E-02  0.12054184334E-01  0.51100000000E-03 0. -1.
</event>
<event>
 8    1  0.1112958E+005  0.1043930E+01  0.7957747E-01            NaN
         13   -1    0    0    0    0  0.00000000000E+00  0.00000000000E+00  0.74505805969E-08  0.10566000000E+00  0.10566000000E+00 0. -1.
     999900   -1    0    0    0    0 -0.00000000000E+00 -0.00000000000E+00 -0.74505805969E-08  0.93827000000E+00  0.93827000000E+00 0. -1.
     999902    2    1    2    0    0 -0.96134492739E-02  0.75803294464E-02 -0.18639165733E-01  0.10216298139E+01  0.10213864001E+01 0.  0.
     999903    2    3    3    0    0 -0.12117239708E-01 -0.54310549568E-01  0.11507083726E+00  0.12937698269E+00  0.20016062810E-01 0.  0.
         14    1    1    2    0    0  0.96134492739E-02 -0.75803294464E-02  0.18639165733E-01  0.22300186113E-01  0.00000000000E+00 0. -1.
     999901    1    3    3    0    0  0.25037904343E-02  0.61890879015E-01 -0.13371000299E+00  0.89225283119E+00  0.88000000000E+00 0. -1.
        -11    1    4    4    0    0 -0.47863706823E-02 -0.29383637114E-01  0.39518404446E-01  0.49480025114E-01  0.51100000000E-03 0. -1.
         11    1    4    4    0    0 -0.73308690258E-02 -0.24926912455E-01  0.75552432816E-01  0.79896957580E-01  0.51100000000E-03 0.  1.
</event>
<event>
 8    1  0.1112958E+005  0.1043930E+01  0.7957747E-01            NaN
         13   -1    0    0    0    0  0.00000000000E+00  0.00000000000E+00  0.74505805969E-08  0.10566000000E+00  0.10566000000E+00 0.  1.
     999900   -1    0    0    0    0 -0.00000000000E+00 -0.00000000000E+00 -0.74505805969E-08  0.93827000000E+00  0.93827000000E+00 0. -1.
     999902    2    1    2    0    0 -0.18701603766E-01 -0.12196912426E-02  0.14701142673E-01  0.10201106544E+01  0.10198325284E+01 0.  0.
     999903    2    3    3    0    0  0.87946745233E-02 -0.12756662991E+00  0.15224441795E-01  0.13066146073E+00  0.22136899635E-01 0.  0.
         14    1    1    2    0    0  0.18701603766E-01  0.12196912426E-02 -0.14701142673E-01  0.23819345626E-01  0.00000000000E+00 0. -1.
     999901    1    3    3    0    0 -0.27496278289E-01  0.12634693867E+00 -0.52329912241E-03  0.88944919364E+00  0.88000000000E+00 0.  1.
        -11    1    4    4    0    0 -0.26025708527E-02 -0.84000107274E-01  0.16323292168E-01  0.85612513018E-01  0.51100000000E-03 0.  1.
         11    1    4    4    0    0  0.11397245376E-01 -0.43566522637E-01 -0.10988503730E-02  0.45048947713E-01  0.51100000000E-03 0. -1.
</event>
<event>
 8    1  0.1112958E+005  0.1043930E+01  0.7957747E-01            NaN
         13   -1    0    0    0    0  0.00000000000E+00  0.00000000000E+00  0.74505805969E-08  0.10566000000E+00  0.10566000000E+00 0. -1.
     999900   -1    0    0    0    0 -0.00000000000E+00 -0.00000000000E+00 -0.74505805969E-08  0.93827000000E+00  0.93827000000E+00 0. -1.
     999902    2    1    2    0    0 -0.69170819947E-02 -0.56534263053E-02  0.23086580863E-01  0.10191752536E+01  0.10188745753E+01 0.  0.
     999903    2    3    3    0    0 -0.21327092899E-01  0.29914084443E-01 -0.11968354430E+00  0.12684347403E+00  0.20381824917E-01 0.  0.
         14    1    1    2    0    0  0.69170819947E-02  0.56534263053E-02 -0.23086580863E-01  0.24754746379E-01  0.00000000000E+00 0.  1.
     999901    1    3    3    0    0  0.14410010905E-01 -0.35567510748E-01  0.14277012516E+00  0.89233177959E+00  0.88000000000E+00 0.  1.
        -11    1    4    4    0    0 -0.17597329232E-01  0.19875507027E-01 -0.52734701373E-01  0.59041609274E-01  0.51100000000E-03 0.  1.
         11    1    4    4    0    0 -0.37297636671E-02  0.10038577416E-01 -0.66948842928E-01  0.67801864753E-01  0.51100000000E-03 0. -1.
</event>
<event>
 8    1  0.1112958E+005  0.1043930E+01  0.7957747E-01            NaN
         13   -1    0    0    0    0  0.00000000000E+00  0.00000000000E+00  0.74505805969E-08  0.10566000000E+00  0.10566000000E+00 0.  1.
     999900   -1    0    0    0    0 -0.00000000000E+00 -0.00000000000E+00 -0.74505805969E-08  0.93827000000E+00  0.93827000000E+00 0. -1.
     999902    2    1    2    0    0  0.10156042960E-02  0.22241322483E-01 -0.10687494213E-01  0.10192332308E+01  0.10189339764E+01 0.  0.
     999903    2    3    3    0    0  0.22466694289E-01  0.87791966940E-01 -0.94708391273E-01  0.13254470181E+00  0.19652907880E-01 0.  0.
         14    1    1    2    0    0 -0.10156042960E-02 -0.22241322483E-01  0.10687494213E-01  0.24696769230E-01  0.00000000000E+00 0.  1.
     999901    1    3    3    0    0 -0.21451089993E-01 -0.65550644458E-01  0.84020897060E-01  0.88668852896E+00  0.88000000000E+00 0.  1.
        -11    1    4    4    0    0  0.21461003108E-01  0.78136428603E-01 -0.74299569969E-01  0.10993890734E+00  0.51100000000E-03 0. -1.
         11    1    4    4    0    0  0.10056911812E-02  0.96555383370E-02 -0.20408821304E-01  0.22605794464E-01  0.51100000000E-03 0.  1.
</event>
<event>
 8    1  0.1112958E+005  0.1043930E+01  0.7957747E-01            NaN
         13   -1    0    0    0    0  0.00000000000E+00  0.00000000000E+00  0.74505805969E-08  0.10566000000E+00  0.10566000000E+00 0.  1.
     999900   -1    0    0    0    0 -0.00000000000E+00 -0.00000000000E+00 -0.74505805969E-08  0.93827000000E+00  0.93827000000E+00 0.  1.
     999902    2    1    2    0    0 -0.21211717007E-01  0.10313148538E-01 -0.39456700036E-02  0.10200162742E+01  0.10197359135E+01 0.  0.
     999903    2    3    3    0    0 -0.90631736198E-01 -0.91308099929E-01 -0.17604430049E-01  0.13134728128E+00  0.19771485101E-01 0.  0.
         14    1    1    2    0    0  0.21211717007E-01 -0.10313148538E-01  0.39456700036E-02  0.23913725827E-01  0.00000000000E+00 0.  1.
     999901    1    3    3    0    0  0.69420019191E-01  0.10162124847E+00  0.13658760046E-01  0.88866899289E+00  0.88000000000E+00 0.  1.
        -11    1    4    4    0    0 -0.54814588042E-01 -0.64944968284E-01 -0.17986867931E-01  0.86869307046E-01  0.51100000000E-03 0.  1.
         11    1    4    4    0    0 -0.35817148156E-01 -0.26363131645E-01  0.38243788186E-03  0.44477974234E-01  0.51100000000E-03 0. -1.
</event>
<event>
 8    1  0.1112958E+005  0.1043930E+01  0.7957747E-01            NaN
         13   -1    0    0    0    0  0.00000000000E+00  0.00000000000E+00  0.74505805969E-08  0.10566000000E+00  0.10566000000E+00 0.  1.
     999900   -1    0    0    0    0 -0.00000000000E+00 -0.00000000000E+00 -0.74505805969E-08  0.93827000000E+00  0.93827000000E+00 0.  1.
     999902    2    1    2    0    0  0.13924857118E-01  0.18866755901E-01  0.12381552324E-02  0.10204483231E+01  0.10201781172E+01 0.  0.
     999903    2    3    3    0    0 -0.77857352885E-01  0.92171781985E-01 -0.47957073441E-01  0.13128142564E+00  0.19430054890E-01 0.  0.
         14    1    1    2    0    0 -0.13924857118E-01 -0.18866755901E-01 -0.12381552324E-02  0.23481676949E-01  0.00000000000E+00 0. -1.
     999901    1    3    3    0    0  0.91782210003E-01 -0.73305026085E-01  0.49195228673E-01  0.88916689741E+00  0.88000000000E+00 0. -1.
        -11    1    4    4    0    0 -0.29080365645E-02  0.50758716013E-02 -0.73583510805E-02  0.94142233242E-02  0.51100000000E-03 0. -1.
         11    1    4    4    0    0 -0.74949316321E-01  0.87095910384E-01 -0.40598722361E-01  0.12186720232E+00  0.51100000000E-03 0.  1.
</event>
<event>
 8    1  0.1112958E+005  0.1043930E+01  0.7957747E-01            NaN
         13   -1    0    0    0    0  0.00000000000E+00  0.00000000000E+00  0.74505805969E-08  0.10566000000E+00  0.10566000000E+00 0. -1.
     999900   -1    0    0    0    0 -0.00000000000E+00 -0.00000000000E+00 -0.74505805969E-08  0.93827000000E+00  0.93827000000E+00 0.  1.
     999902    2    1    2    0    0 -0.13500489713E-01  0.25128290036E-02 -0.19312575722E-01  0.10202328881E+01  0.10199576427E+01 0.  0.
     999903    2    3    3    0    0 -0.94364783020E-01 -0.24048125494E-01 -0.88585423622E-01  0.13341653410E+00  0.21669556507E-01 0.  0.
         14    1    1    2    0    0  0.13500489713E-01 -0.25128290036E-02  0.19312575722E-01  0.23697111915E-01  0.00000000000E+00 0. -1.
     999901    1    3    3    0    0  0.80864293308E-01  0.26560954498E-01  0.69272847899E-01  0.88681635398E+00  0.88000000000E+00 0.  1.
        -11    1    4    4    0    0 -0.66940760177E-01 -0.14646519737E-01 -0.74358655135E-01  0.10111902209E+00  0.51100000000E-03 0.  1.
         11    1    4    4    0    0 -0.27424022843E-01 -0.94016057573E-02 -0.14226768487E-01  0.32297512014E-01  0.51100000000E-03 0. -1.
</event>
<event>
 8    1  0.1112958E+005  0.1043930E+01  0.7957747E-01            NaN
         13   -1    0    0    0    0  0.00000000000E+00  0.00000000000E+00  0.74505805969E-08  0.10566000000E+00  0.10566000000E+00 0.  1.
     999900   -1    0    0    0    0 -0.00000000000E+00 -0.00000000000E+00 -0.74505805969E-08  0.93827000000E+00  0.93827000000E+00 0. -1.
     999902    2    1    2    0    0  0.85161829407E-02  0.53656910063E-03 -0.25764939089E-01  0.10167887884E+01  0.10164264828E+01 0.  0.
     999903    2    3    3    0    0 -0.98308026218E-01 -0.19471295934E-01 -0.78225604574E-01  0.12855241915E+00  0.19049406111E-01 0.  0.
         14    1    1    2    0    0 -0.85161829407E-02 -0.53656910063E-03  0.25764939089E-01  0.27141211553E-01  0.00000000000E+00 0.  1.
     999901    1    3    3    0    0  0.10682420916E+00  0.20007865034E-01  0.52460665485E-01  0.88823636930E+00  0.88000000000E+00 0. -1.
        -11    1    4    4    0    0 -0.13494579163E-01 -0.85791428015E-02 -0.79320470941E-02  0.17857319230E-01  0.51100000000E-03 0.  1.
         11    1    4    4    0    0 -0.84813447055E-01 -0.10892153132E-01 -0.70293557480E-01  0.11069509992E+00  0.51100000000E-03 0. -1.
</event>
<event>
 8    1  0.1112958E+005  0.1043930E+01  0.7957747E-01            NaN
         13   -1    0    0    0    0  0.00000000000E+00  0.00000000000E+00  0.74505805969E-08  0.10566000000E+00  0.10566000000E+00 0.  1.
     999900   -1    0    0    0    0 -0.00000000000E+00 -0.00000000000E+00 -0.74505805969E-08  0.93827000000E+00  0.93827000000E+00 0. -1.
     999902    2    1    2    0    0 -0.18278442795E-01 -0.18898226513E-01  0.16295326956E-03  0.10176379672E+01  0.10172982656E+01 0.  0.
     999903    2    3    3    0    0 -0.11464859961E+00 -0.42172164373E-01  0.43299006032E-01  0.13102102488E+00  0.19207087167E-01 0.  0.
         14    1    1    2    0    0  0.18278442795E-01  0.18898226513E-01 -0.16295326956E-03  0.26292032826E-01  0.00000000000E+00 0. -1.
     999901    1    3    3    0    0  0.96370156816E-01  0.23273937860E-01 -0.43136052763E-01  0.88661694229E+00  0.88000000000E+00 0.  1.
        -11    1    4    4    0    0 -0.70086061247E-01 -0.22847314320E-01  0.16492359106E-01  0.75540153445E-01  0.51100000000E-03 0.  1.
         11    1    4    4    0    0 -0.44562538365E-01 -0.19324850053E-01  0.26806646927E-01  0.55480871438E-01  0.51100000000E-03 0. -1.
</event>
<event>
 8    1  0.1112958E+005  0.1043930E+01  0.7957747E-01            NaN
         13   -1    0    0    0    0  0.00000000000E+00  0.00000000000E+00  0.74505805969E-08  0.10566000000E+00  0.10566000000E+00 0. -1.
     999900   -1    0    0    0    0 -0.00000000000E+00 -0.00000000000E+00 -0.74505805969E-08  0.93827000000E+00  0.93827000000E+00 0. -1.
     999902    2    1    2    0    0  0.11428862633E-01 -0.13060459940E-01  0.16201373509E-01  0.10201880747E+01  0.10199117749E+01 0.  0.
     999903    2    3    3    0    0 -0.86026350151E-01  0.74524996761E-01 -0.54345182461E-01  0.12769407061E+00  0.19946647561E-01 0.  0.
         14    1    1    2    0    0 -0.11428862633E-01  0.13060459940E-01 -0.16201373509E-01  0.23741925333E-01  0.00000000000E+00 0.  1.
     999901    1    3    3    0    0  0.97455212783E-01 -0.87585456701E-01  0.70546555970E-01  0.89249400406E+00  0.88000000000E+00 0.  1.
        -11    1    4    4    0    0 -0.41125406244E-01  0.22782356087E-01 -0.20808276000E-01  0.51415758855E-01  0.51100000000E-03 0.  1.
         11    1    4    4    0    0 -0.44900943907E-01  0.51742640674E-01 -0.33536906461E-01  0.76278311752E-01  0.51100000000E-03 0. -1.
</event>
<event>
 8    1  0.1112958E+005  0.1043930E+01  0.7957747E-01            NaN
         13   -1    0    0    0    0  0.00000000000E+00  0.00000000000E+00  0.74505805969E-08  0.10566000000E+00  0.10566000000E+00 0. -1.
     999900   -1    0    0    0    0 -0.00000000000E+00 -0.00000000000E+00 -0.74505805969E-08  0.93827000000E+00  0.93827000000E+00 0. -1.
     999902    2    1    2    0    0  0.97496397413E-02 -0.15032217367E-01 -0.16067590604E-01  0.10198636230E+01  0.10195796286E+01 0.  0.
     999903    2    3    3    0    0 -0.77011946777E-01 -0.74058582308E-01  0.70218203086E-01  0.12943848699E+00  0.20204264619E-01 0.  0.
         14    1    1    2    0    0 -0.97496397413E-02  0.15032217367E-01  0.16067590604E-01  0.24066376999E-01  0.00000000000E+00 0. -1.
     999901    1    3    3    0    0  0.86761586518E-01  0.59026364941E-01 -0.86285793690E-01  0.89042513601E+00  0.88000000000E+00 0. -1.
        -11    1    4    4    0    0 -0.69450319054E-01 -0.56416171948E-01  0.59388642753E-01  0.10739368363E+00  0.51100000000E-03 0. -1.
         11    1    4    4    0    0 -0.75616277226E-02 -0.17642410360E-01  0.10829560334E-01  0.22044803359E-01  0.51100000000E-03 0.  1.
</event>
<event>
 8    1  0.1112958E+005  0.1043930E+01  0.7957747E-01            NaN
         13   -1    0    0    0    0  0.00000000000E+00  0.00000000000E+00  0.74505805969E-08  0.10566000000E+00  0.10566000000E+00 0.  1.
     999900   -1    0    0    0    0 -0.00000000000E+00 -0.00000000000E+00 -0.74505805969E-08  0.93827000000E+00  0.93827000000E+00 0. -1.
     999902    2    1    2    0    0 -0.91627761439E-02 -0.71107738011E-02  0.20781608106E-01  0.10201309495E+01  0.10198533028E+01 0.  0.
     999903    2    3    3    0    0 -0.60745866204E-01 -0.11464044910E+00 -0.84159438803E-02  0.13160636157E+00  0.20418458927E-01 0.  0.
         14    1    1    2    0    0  0.91627761439E-02  0.71107738011E-02 -0.20781608106E-01  0.23799050532E-01  0.00000000000E+00 0. -1.
     999901    1    3    3    0    0  0.51583090061E-01  0.10752967530E+00  0.29197551987E-01  0.88852458789E+00  0.88000000000E+00 0. -1.
        -11    1    4    4    0    0 -0.16827377381E-01 -0.48317308516E-01  0.29472448934E-02  0.51251051747E-01  0.51100000000E-03 0.  1.
         11    1    4    4    0    0 -0.43918488823E-01 -0.66323140583E-01 -0.11363188774E-01  0.80355309827E-01  0.51100000000E-03 0. -1.
</event>
<event>
 8    1  0.1112958E+005  0.1043930E+01  0.7957747E-01            NaN
         13   -1    0    0    0    0  0.00000000000E+00  0.00000000000E+00  0.74505805969E-08  0.10566000000E+00  0.10566000000E+00 0. -1.
     999900   -1    0    0    0    0 -0.00000000000E+00 -0.00000000000E+00 -0.74505805969E-08  0.93827000000E+00  0.93827000000E+00 0.  1.
     999902    2    1    2    0    0 -0.31526252548E-02 -0.10510647549E-02 -0.21728323116E-01  0.10219490126E+01  0.10217125919E+01 0.  0.
     999903    2    3    3    0    0 -0.30624884106E-01 -0.86463695975E-01  0.90277209596E-01  0.13032393332E+00  0.20506066813E-01 0.  0.
         14    1    1    2    0    0  0.31526252548E-02  0.10510647549E-02  0.21728323116E-01  0.21980987433E-01  0.00000000000E+00 0. -1.
     999901    1    3    3    0    0  0.27472258852E-01  0.85412631220E-01 -0.11200553271E+00  0.89162507924E+00  0.88000000000E+00 0.  1.
        -11    1    4    4    0    0 -0.15962744559E-01 -0.19962961341E-01  0.29618056634E-01  0.39125687714E-01  0.51100000000E-03 0.  1.
         11    1    4    4    0    0 -0.14662139548E-01 -0.66500734635E-01  0.60659152962E-01  0.91198245609E-01  0.51100000000E-03 0. -1.
</event>
<event>
 8    1  0.1112958E+005  0.1043930E+01  0.7957747E-01            NaN
         13   -1    0    0    0    0  0.00000000000E+00  0.00000000000E+00  0.74505805969E-08  0.10566000000E+00  0.10566000000E+00 0.  1.
     999900   -1    0    0    0    0 -0.00000000000E+00 -0.00000000000E+00 -0.74505805969E-08  0.93827000000E+00  0.93827000000E+00 0. -1.
     999902    2    1    2    0    0  0.18928933542E-01 -0.13784009554E-01 -0.10410270099E-01  0.10183042870E+01  0.10179817993E+01 0.  0.
     999903    2    3    3    0    0  0.72040187633E-01 -0.10587854048E+00  0.21021375159E-01  0.13134873214E+00  0.20261718903E-01 0.  0.
         14    1    1    2    0    0 -0.18928933542E-01  0.13784009554E-01  0.10410270099E-01  0.25625713023E-01  0.00000000000E+00 0.  1.
     999901    1    3    3    0    0 -0.53111254091E-01  0.92094530922E-01 -0.31431645258E-01  0.88695555484E+00  0.88000000000E+00 0.  1.
        -11    1    4    4    0    0  0.38480073786E-01 -0.65474482075E-01  0.36875682626E-02  0.76036064879E-01  0.51100000000E-03 0. -1.
         11    1    4    4    0    0  0.33560113847E-01 -0.40404058401E-01  0.17333806897E-01  0.55312667259E-01  0.51100000000E-03 0.  1.
</event>
<event>
 8    1  0.1112958E+005  0.1043930E+01  0.7957747E-01            NaN
         13   -1    0    0    0    0  0.00000000000E+00  0.00000000000E+00  0.74505805969E-08  0.10566000000E+00  0.10566000000E+00 0.  1.
     999900   -1    0    0    0    0 -0.00000000000E+00 -0.00000000000E+00 -0.74505805969E-08  0.93827000000E+00  0.93827000000E+00 0. -1.
     999902    2    1    2    0    0 -0.15614992124E-01  0.11394823695E-01 -0.13029235991E-01  0.10206183940E+01  0.10203521329E+01 0.  0.
     999903    2    3    3    0    0  0.68268323880E-02  0.94506050333E-01 -0.91189347190E-01  0.13296975036E+00  0.19683959988E-01 0.  0.
         14    1    1    2    0    0  0.15614992124E-01 -0.11394823695E-01  0.13029235991E-01  0.23311606048E-01  0.00000000000E+00 0.  1.
     999901    1    3    3    0    0 -0.22441824512E-01 -0.83111226638E-01  0.78160111199E-01  0.88764864359E+00  0.88000000000E+00 0.  1.
        -11    1    4    4    0    0 -0.18767821676E-02  0.58790604187E-01 -0.45746305673E-01  0.74517401026E-01  0.51100000000E-03 0. -1.
         11    1    4    4    0    0  0.87036145557E-02  0.35715446146E-01 -0.45443041517E-01  0.58452349337E-01  0.51100000000E-03 0.  1.
</event>
<event>
 8    1  0.1112958E+005  0.1043930E+01  0.7957747E-01            NaN
         13   -1    0    0    0    0  0.00000000000E+00  0.00000000000E+00  0.74505805969E-08  0.10566000000E+00  0.10566000000E+00 0. -1.
     999900   -1    0    0    0    0 -0.00000000000E+00 -0.00000000000E+00 -0.74505805969E-08  0.93827000000E+00  0.93827000000E+00 0.  1.
     999902    2    1    2    0    0  0.77177627739E-02 -0.17880807974E-01 -0.90170573460E-02  0.10224685350E+01  0.10222432737E+01 0.  0.
     999903    2    3    3    0    0  0.11179008703E+00  0.30563839133E-01 -0.63477349115E-01  0.13334320308E+00  0.17884745910E-01 0.  0.
         14    1    1    2    0    0 -0.77177627739E-02  0.17880807974E-01  0.90170573460E-02  0.21461464983E-01  0.00000000000E+00 0. -1.
     999901    1    3    3    0    0 -0.10407232426E+00 -0.48444647107E-01  0.54460291769E-01  0.88912533194E+00  0.88000000000E+00 0. -1.
        -11    1    4    4    0    0  0.43857581315E-01  0.98546937101E-02 -0.34376401896E-01  0.56591523705E-01  0.51100000000E-03 0.  1.
         11    1    4    4    0    0  0.67932505717E-01  0.20709145423E-01 -0.29100947219E-01  0.76751679377E-01  0.51100000000E-03 0. -1.
</event>
<event>
 8    1  0.1112958E+005  0.1043930E+01  0.7957747E-01            NaN
         13   -1    0    0    0    0  0.00000000000E+00  0.00000000000E+00  0.74505805969E-08  0.10566000000E+00  0.10566000000E+00 0. -1.
     999900   -1    0    0    0    0 -0.00000000000E+00 -0.00000000000E+00 -0.74505805969E-08  0.93827000000E+00  0.93827000000E+00 0. -1.
     999902    2    1    2    0    0 -0.20778035942E-01  0.41982993118E-02  0.71240363535E-02  0.10215669861E+01  0.10213221836E+01 0.  0.
     999903    2    3    3    0    0 -0.63693549562E-01  0.53658652102E-01  0.10305930375E+00  0.13393438009E+00  0.19521241709E-01 0.  0.
         14    1    1    2    0    0  0.20778035942E-01 -0.41982993118E-02 -0.71240363535E-02  0.22363013855E-01  0.00000000000E+00 0. -1.
     999901    1    3    3    0    0  0.42915513620E-01 -0.49460352791E-01 -0.95935267399E-01  0.88763260606E+00  0.88000000000E+00 0. -1.
        -11    1    4    4    0    0 -0.47953485103E-02  0.38659408571E-02  0.18399595965E-01  0.19409974722E-01  0.51100000000E-03 0.  1.
         11    1    4    4    0    0 -0.58898201052E-01  0.49792711245E-01  0.84659707788E-01  0.11452440536E+00  0.51100000000E-03 0. -1.
</event>
<event>
 8    1  0.1112958E+005  0.1043930E+01  0.7957747E-01            NaN
         13   -1    0    0    0    0  0.00000000000E+00  0.00000000000E+00  0.74505805969E-08  0.10566000000E+00  0.10566000000E+00 0.  1.
     999900   -1    0    0    0    0 -0.00000000000E+00 -0.00000000000E+00 -0.74505805969E-08  0.93827000000E+00  0.93827000000E+00 0.  1.
     999902    2    1    2    0    0 -0.42914267202E-02  0.23108749107E-01 -0.11423492812E-02  0.10203984129E+01  0.10201270438E+01 0.  0.
     999903    2    3    3    0    0 -0.12980904239E+00 -0.13627001330E-01 -0.55784722299E-03  0.13073301017E+00  0.73977093190E-02 0.  0.
         14    1    1    2    0    0  0.42914267202E-02 -0.23108749107E-01  0.11423492812E-02  0.23531587079E-01  0.00000000000E+00 0. -1.
     999901    1    3    3    0    0  0.12551761567E+00  0.36735750437E-01 -0.58450205821E-03  0.88966540275E+00  0.88000000000E+00 0.  1.
        -11    1    4    4    0    0 -0.36364641738E-01 -0.56530172340E-02  0.25786058140E-02  0.36895177212E-01  0.51100000000E-03 0. -1.
         11    1    4    4    0    0 -0.93444400654E-01 -0.79739840957E-02 -0.31364530370E-02  0.93837832960E-01  0.51100000000E-03 0.  1.
</event>
<event>
 8    1  0.1112958E+005  0.1043930E+01  0.7957747E-01            NaN
         13   -1    0    0    0    0  0.00000000000E+00  0.00000000000E+00  0.74505805969E-08  0.10566000000E+00  0.10566000000E+00 0. -1.
     999900   -1    0    0    0    0 -0.00000000000E+00 -0.00000000000E+00 -0.74505805969E-08  0.93827000000E+00  0.93827000000E+00 0. -1.
     999902    2    1    2    0    0 -0.16152416978E-01  0.10117724935E-01 -0.13065874512E-01  0.10208218627E+01  0.10205602821E+01 0.  0.
     999903    2    3    3    0    0  0.30352268549E-01  0.69047962683E-01 -0.10729422953E+00  0.13261330523E+00  0.19630478259E-01 0.  0.
         14    1    1    2    0    0  0.16152416978E-01 -0.10117724935E-01  0.13065874512E-01  0.23108137287E-01  0.00000000000E+00 0. -1.
     999901    1    3    3    0    0 -0.46504685527E-01 -0.58930237748E-01  0.94228355019E-01  0.88820855748E+00  0.88000000000E+00 0.  1.
        -11    1    4    4    0    0  0.15745597749E-01  0.51544422978E-01 -0.63926409572E-01  0.83615778119E-01  0.51100000000E-03 0. -1.
         11    1    4    4    0    0  0.14606670799E-01  0.17503539705E-01 -0.43367819958E-01  0.48997527111E-01  0.51100000000E-03 0.  1.
</event>
<event>
 8    1  0.1112958E+005  0.1043930E+01  0.7957747E-01            NaN
         13   -1    0    0    0    0  0.00000000000E+00  0.00000000000E+00  0.74505805969E-08  0.10566000000E+00  0.10566000000E+00 0.  1.
     999900   -1    0    0    0    0 -0.00000000000E+00 -0.00000000000E+00 -0.74505805969E-08  0.93827000000E+00  0.93827000000E+00 0.  1.
     999902    2    1    2    0    0  0.14734795811E-01  0.16708263026E-01 -0.50470450209E-02  0.10210880884E+01  0.10208325678E+01 0.  0.
     999903    2    3    3    0    0  0.11233629324E+00 -0.61521884675E-01 -0.24962904431E-01  0.13201967162E+00  0.20041507541E-01 0.  0.
         14    1    1    2    0    0 -0.14734795811E-01 -0.16708263026E-01  0.50470450209E-02  0.22841911575E-01  0.00000000000E+00 0. -1.
     999901    1    3    3    0    0 -0.97601497424E-01  0.78230147701E-01  0.19915859410E-01  0.88906841681E+00  0.88000000000E+00 0.  1.
        -11    1    4    4    0    0  0.57434111846E-01 -0.42793849524E-01 -0.13467357498E-01  0.72880872659E-01  0.51100000000E-03 0. -1.
         11    1    4    4    0    0  0.54902181389E-01 -0.18728035152E-01 -0.11495546933E-01  0.59138798959E-01  0.51100000000E-03 0.  1.
</event>
<event>
 8    1  0.1112958E+005  0.1043930E+01  0.7957747E-01            NaN
         13   -1    0    0    0    0  0.00000000000E+00  0.00000000000E+00  0.74505805969E-08  0.10566000000E+00  0.10566000000E+00 0. -1.
     999900   -1    0    0    0    0 -0.00000000000E+00 -0.00000000000E+00 -0.74505805969E-08  0.93827000000E+00  0.93827000000E+00 0.  1.
     999902    2    1    2    0    0  0.20479739083E-02 -0.22353992711E-01  0.95760723589E-02  0.10195251573E+01  0.10192330204E+01 0.  0.
     999903    2    3    3    0    0 -0.12774702772E+00  0.52904409422E-03 -0.81934853008E-02  0.12953294775E+00  0.19800716451E-01 0.  0.
         14    1    1    2    0    0 -0.20479739083E-02  0.22353992711E-01 -0.95760723589E-02  0.24404842739E-01  0.00000000000E+00 0. -1.
     999901    1    3    3    0    0  0.12979500163E+00 -0.22883036806E-01  0.17769557660E-01  0.88999220952E+00  0.88000000000E+00 0.  1.
        -11    1    4    4    0    0 -0.46179825876E-01  0.10911207895E-03 -0.12515683532E-01  0.47848632987E-01  0.51100000000E-03 0.  1.
         11    1    4    4    0    0 -0.81567201841E-01  0.41993201527E-03  0.43221982313E-02  0.81684314759E-01  0.51100000000E-03 0. -1.
</event>
<event>
 8    1  0.1373398E+005  0.1043930E+01  0.7957747E-01            NaN
         13   -1    0    0    0    0  0.00000000000E+00  0.00000000000E+00  0.74505805969E-08  0.10566000000E+00  0.10566000000E+00 0. -1.
     999900   -1    0    0    0    0 -0.00000000000E+00 -0.00000000000E+00 -0.74505805969E-08  0.93827000000E+00  0.93827000000E+00 0. -1.
     999902    2    1    2    0    0 -0.14272947232E-01  0.18869039655E-01 -0.20674592470E-02  0.10201806407E+01  0.10199041659E+01 0.  0.
     999903    2    3    3    0    0 -0.33715351547E-01  0.10898559986E+00  0.64828002500E-01  0.13283966659E+00  0.20715240862E-01 0.  0.
         14    1    1    2    0    0  0.14272947232E-01 -0.18869039655E-01  0.20674592470E-02  0.23749359316E-01  0.00000000000E+00 0. -1.
     999901    1    3    3    0    0  0.19442404315E-01 -0.90116560205E-01 -0.66895461747E-01  0.88734097410E+00  0.88000000000E+00 0. -1.
        -11    1    4    4    0    0 -0.14611826928E-01  0.53999495186E-01  0.43415946433E-01  0.70814239332E-01  0.51100000000E-03 0. -1.
         11    1    4    4    0    0 -0.19103524619E-01  0.54986104675E-01  0.21412056066E-01  0.62025427255E-01  0.51100000000E-03 0.  1.
</event>
<event>
 8    1  0.1112958E+005  0.1043930E+01  0.7957747E-01            NaN
         13   -1    0    0    0    0  0.00000000000E+00  0.00000000000E+00  0.74505805969E-08  0.10566000000E+00  0.10566000000E+00 0.  1.
     999900   -1    0    0    0    0 -0.00000000000E+00 -0.00000000000E+00 -0.74505805969E-08  0.93827000000E+00  0.93827000000E+00 0.  1.
     999902    2    1    2    0    0 -0.73483844236E-02 -0.14953092372E-01  0.16375536154E-01  0.10205686664E+01  0.10203012549E+01 0.  0.
     999903    2    3    3    0    0 -0.71050899625E-01 -0.27625929313E-01  0.10763379408E+00  0.13346851368E+00  0.20430080959E-01 0.  0.
         14    1    1    2    0    0  0.73483844236E-02  0.14953092372E-01 -0.16375536154E-01  0.23361333641E-01  0.00000000000E+00 0.  1.
     999901    1    3    3    0    0  0.63702515201E-01  0.12672836941E-01 -0.91258257929E-01  0.88710015268E+00  0.88000000000E+00 0.  1.
        -11    1    4    4    0    0 -0.21032674723E-01 -0.10797472129E-01  0.19099034387E-01  0.30397253920E-01  0.51100000000E-03 0. -1.
         11    1    4    4    0    0 -0.50018224902E-01 -0.16828457184E-01  0.88534759696E-01  0.10307125976E+00  0.51100000000E-03 0.  1.
</event>
<event>
 8    1  0.1112958E+005  0.1043930E+01  0.7957747E-01            NaN
         13   -1    0    0    0    0  0.00000000000E+00  0.00000000000E+00  0.74505805969E-08  0.10566000000E+00  0.10566000000E+00 0. -1.
     999900   -1    0    0    0    0 -0.00000000000E+00 -0.00000000000E+00 -0.74505805969E-08  0.93827000000E+00  0.93827000000E+00 0.  1.
     999902    2    1    2    0    0 -0.21008332550E-01 -0.60085239476E-04  0.11092987793E-01  0.10201727269E+01  0.10198960656E+01 0.  0.
     999903    2    3    3    0    0 -0.70682837702E-01  0.10927352685E+00 -0.64263879753E-02  0.13184377673E+00  0.20117549155E-01 0.  0.
         14    1    1    2    0    0  0.21008332550E-01  0.60085239476E-04 -0.11092987793E-01  0.23757273095E-01  0.00000000000E+00 0.  1.
     999901    1    3    3    0    0  0.49674505152E-01 -0.10933361209E+00  0.17519375768E-01  0.88832895018E+00  0.88000000000E+00 0.  1.
        -11    1    4    4    0    0 -0.60282840580E-01  0.99989887152E-01 -0.68751514988E-03  0.11675929170E+00  0.51100000000E-03 0. -1.
         11    1    4    4    0    0 -0.10399997122E-01  0.92836396971E-02 -0.57388728255E-02  0.15084485025E-01  0.51100000000E-03 0.  1.
</event>
<event>
 8    1  0.1112958E+005  0.1043930E+01  0.7957747E-01            NaN
         13   -1    0    0    0    0  0.00000000000E+00  0.00000000000E+00  0.74505805969E-08  0.10566000000E+00  0.10566000000E+00 0.  1.
     999900   -1    0    0    0    0 -0.00000000000E+00 -0.00000000000E+00 -0.74505805969E-08  0.93827000000E+00  0.93827000000E+00 0.  1.
     999902    2    1    2    0    0  0.93985468706E-02 -0.12689564317E-01  0.14200230773E-01  0.10226931387E+01  0.10224726165E+01 0.  0.
     999903    2    3    3    0    0 -0.12335461690E+00 -0.42367669801E-02  0.43099226006E-01  0.13222696625E+00  0.19801909427E-01 0.  0.
         14    1    1    2    0    0 -0.93985468706E-02  0.12689564317E-01 -0.14200230773E-01  0.21236861346E-01  0.00000000000E+00 0. -1.
     999901    1    3    3    0    0  0.13275316377E+00 -0.84527973371E-02 -0.28898995234E-01  0.89046617241E+00  0.88000000000E+00 0.  1.
        -11    1    4    4    0    0 -0.32259070018E-01 -0.23492707616E-02  0.20676506422E-01  0.38392000604E-01  0.51100000000E-03 0.  1.
         11    1    4    4    0    0 -0.91095546878E-01 -0.18874962186E-02  0.22422719584E-01  0.93834965645E-01  0.51100000000E-03 0. -1.
</event>
<event>
 8    1  0.1112958E+005  0.1043930E+01  0.7957747E-01            NaN
         13   -1    0    0    0    0  0.00000000000E+00  0.00000000000E+00  0.74505805969E-08  0.10566000000E+00  0.10566000000E+00 0. -1.
     999900   -1    0    0    0    0 -0.00000000000E+00 -0.00000000000E+00 -0.74505805969E-08  0.93827000000E+00  0.93827000000E+00 0.  1.
     999902    2    1    2    0    0 -0.23085674528E-01 -0.81187371601E-02 -0.70022165312E-02  0.10184762518E+01  0.10181581322E+01 0.  0.
     999903    2    3    3    0    0 -0.12023767671E+00  0.18138785833E-01  0.45083119034E-01  0.13121031014E+00  0.19938490739E-01 0.  0.
         14    1    1    2    0    0  0.23085674528E-01  0.81187371601E-02  0.70022165312E-02  0.25453748208E-01  0.00000000000E+00 0. -1.
     999901    1    3    3    0    0  0.97152002179E-01 -0.26257522994E-01 -0.52085335565E-01  0.88726594166E+00  0.88000000000E+00 0.  1.
        -11    1    4    4    0    0 -0.74273164840E-01  0.11967920112E-01  0.38025486700E-01  0.84296695587E-01  0.51100000000E-03 0. -1.
         11    1    4    4    0    0 -0.45964511867E-01  0.61708657216E-02  0.70576323334E-02  0.46913614549E-01  0.51100000000E-03 0.  1.
</event>
<event>
 8    1  0.1112958E+005  0.1043930E+01  0.7957747E-01            NaN
         13   -1    0    0    0    0  0.00000000000E+00  0.00000000000E+00  0.74505805969E-08  0.10566000000E+00  0.10566000000E+00 0. -1.
     999900   -1    0    0    0    0 -0.00000000000E+00 -0.00000000000E+00 -0.74505805969E-08  0.93827000000E+00  0.93827000000E+00 0. -1.
     999902    2    1    2    0    0 -0.16289685447E-02 -0.13253486578E-01 -0.23374603805E-01  0.10170101087E+01  0.10166537664E+01 0.  0.
     999903    2    3    3    0    0  0.74110924164E-01 -0.71345058986E-01  0.71339596849E-01  0.12679556043E+00  0.20130314058E-01 0.  0.
         14    1    1    2    0    0  0.16289685447E-02  0.13253486578E-01  0.23374603805E-01  0.26919891308E-01  0.00000000000E+00 0. -1.
     999901    1    3    3    0    0 -0.75739892709E-01  0.58091572408E-01 -0.94714200653E-01  0.89021454826E+00  0.88000000000E+00 0. -1.
        -11    1    4    4    0    0  0.48614327527E-01 -0.56060007481E-01  0.43226004391E-01  0.85876806277E-01  0.51100000000E-03 0.  1.
         11    1    4    4    0    0  0.25496596636E-01 -0.15285051505E-01  0.28113592458E-01  0.40918754153E-01  0.51100000000E-03 0. -1.
</event>
<event>
 8    1  0.1112958E+005  0.1043930E+01  0.7957747E-01            NaN
         13   -1    0    0    0    0  0.00000000000E+00  0.00000000000E+00  0.74505805969E-08  0.10566000000E+00  0.10566000000E+00 0.  1.
     999900   -1    0    0    0    0 -0.00000000000E+00 -0.00000000000E+00 -0.74505805969E-08  0.93827000000E+00  0.93827000000E+00 0.  1.
     999902    2    1    2    0    0 -0.20389418893E-01 -0.72449922174E-02 -0.99342523587E-02  0.10201201767E+01  0.10198422757E+01 0.  0.
     999903    2    3    3    0    0 -0.12028127351E+00 -0.54289345353E-01 -0.54632219400E-02  0.13320893882E+00  0.17316374104E-01 0.  0.
         14    1    1    2    0    0  0.20389418893E-01  0.72449922174E-02  0.99342523587E-02  0.23809823287E-01  0.00000000000E+00 0.  1.
     999901    1    3    3    0    0  0.99891854619E-01  0.47044353136E-01 -0.44710304187E-02  0.88691123789E+00  0.88000000000E+00 0.  1.
        -11    1    4    4    0    0 -0.21948059566E-01 -0.89953543871E-02  0.56096111912E-02  0.24379552456E-01  0.51100000000E-03 0. -1.
         11    1    4    4    0    0 -0.98333213946E-01 -0.45293990966E-01 -0.11072833131E-01  0.10882938637E+00  0.51100000000E-03 0.  1.
</event>
<event>
 8    1  0.1112958E+005  0.1043930E+01  0.7957747E-01            NaN
         13   -1    0    0    0    0  0.00000000000E+00  0.00000000000E+00  0.74505805969E-08  0.10566000000E+00  0.10566000000E+00 0. -1.
     999900   -1    0    0    0    0 -0.00000000000E+00 -0.00000000000E+00 -0.74505805969E-08  0.93827000000E+00  0.93827000000E+00 0.  1.
     999902    2    1    2    0    0 -0.60084915360E-03 -0.21326574837E-01  0.12109895700E-01  0.10193977072E+01  0.10191024738E+01 0.  0.
     999903    2    3    3    0    0  0.21321834394E-01 -0.12897693701E+00  0.84625018409E-02  0.13255921687E+00  0.20264775761E-01 0.  0.
         14    1    1    2    0    0  0.60084915360E-03  0.21326574837E-01 -0.12109895700E-01  0.24532292756E-01  0.00000000000E+00 0.  1.
     999901    1    3    3    0    0 -0.21922683547E-01  0.10765036217E+00  0.36473938592E-02  0.88683849038E+00  0.88000000000E+00 0.  1.
        -11    1    4    4    0    0  0.97009739555E-02 -0.53129685894E-01 -0.64348115616E-02  0.54392465836E-01  0.51100000000E-03 0.  1.
         11    1    4    4    0    0  0.11620860438E-01 -0.75847251117E-01  0.14897313402E-01  0.78166751032E-01  0.51100000000E-03 0. -1.
</event>
<event>
 8    1  0.1112958E+005  0.1043930E+01  0.7957747E-01            NaN
         13   -1    0    0    0    0  0.00000000000E+00  0.00000000000E+00  0.74505805969E-08  0.10566000000E+00  0.10566000000E+00 0. -1.
     999900   -1    0    0    0    0 -0.00000000000E+00 -0.00000000000E+00 -0.74505805969E-08  0.93827000000E+00  0.93827000000E+00 0.  1.
     999902    2    1    2    0    0 -0.19819577188E-01  0.38041497955E-02 -0.10719703583E-01  0.10210783208E+01  0.10208225791E+01 0.  0.
     999903    2    3    3    0    0 -0.12835718010E+00 -0.15094966931E-01 -0.30049270183E-01  0.13399815535E+00  0.18684841127E-01 0.  0.
         14    1    1    2    0    0  0.19819577188E-01 -0.38041497955E-02  0.10719703583E-01  0.22851679161E-01  0.00000000000E+00 0. -1.
     999901    1    3    3    0    0  0.10853760292E+00  0.18899116726E-01  0.19329566600E-01  0.88708016549E+00  0.88000000000E+00 0. -1.
        -11    1    4    4    0    0 -0.63086852693E-01 -0.39581846378E-02 -0.23578219395E-01  0.67467116133E-01  0.51100000000E-03 0.  1.
         11    1    4    4    0    0 -0.65270327410E-01 -0.11136782293E-01 -0.64710507871E-02  0.66531039217E-01  0.51100000000E-03 0. -1.
</event>
<event>
 8    1  0.1112958E+005  0.1043930E+01  0.7957747E-01            NaN
         13   -1    0    0    0    0  0.00000000000E+00  0.00000000000E+00  0.74505805969E-08  0.10566000000E+00  0.10566000000E+00 0.  1.
     999900   -1    0    0    0    0 -0.00000000000E+00 -0.00000000000E+00 -0.74505805969E-08  0.93827000000E+00  0.93827000000E+00 0. -1.
     999902    2    1    2    0    0  0.18221682521E-03  0.18233640773E-01 -0.15461012814E-01  0.10200230601E+01  0.10197428604E+01 0.  0.
     999903    2    3    3    0    0 -0.58683748265E-01  0.89456638633E-01 -0.75985556843E-01  0.13311768875E+00  0.22366083794E-01 0.  0.
         14    1    1    2    0    0 -0.18221682521E-03 -0.18233640773E-01  0.15461012814E-01  0.23906939914E-01  0.00000000000E+00 0.  1.
     999901    1    3    3    0    0  0.58865965090E-01 -0.71222997859E-01  0.60524544029E-01  0.88690537133E+00  0.88000000000E+00 0. -1.
        -11    1    4    4    0    0 -0.56175574909E-01  0.76609041509E-01 -0.59633522264E-01  0.11216531797E+00  0.51100000000E-03 0. -1.
         11    1    4    4    0    0 -0.25081733552E-02  0.12847597124E-01 -0.16352034579E-01  0.20952370780E-01  0.51100000000E-03 0.  1.
</event>
<event>
 8    1  0.1112958E+005  0.1043930E+01  0.7957747E-01            NaN
         13   -1    0    0    0    0  0.00000000000E+00  0.00000000000E+00  0.74505805969E-08  0.10566000000E+00  0.10566000000E+00 0. -1.
     999900   -1    0    0    0    0 -0.00000000000E+00 -0.00000000000E+00 -0.74505805969E-08  0.93827000000E+00  0.93827000000E+00 0.  1.
     999902    2    1    2    0    0 -0.18170335139E-01 -0.14327568379E-01  0.24876130589E-02  0.10206570863E+01  0.10203917185E+01 0.  0.
     999903    2    3    3    0    0 -0.58161600145E-01 -0.70304590000E-01 -0.94271258528E-01  0.13268467259E+00  0.19815273138E-01 0.  0.
         14    1    1    2    0    0  0.18170335139E-01  0.14327568379E-01 -0.24876130589E-02  0.23272913729E-01  0.00000000000E+00 0.  1.
     999901    1    3    3    0    0  0.39991265006E-01  0.55977021621E-01  0.96758871587E-01  0.88797241368E+00  0.88000000000E+00 0. -1.
        -11    1    4    4    0    0 -0.43318166691E-01 -0.45972434213E-01 -0.52626793595E-01  0.82217813143E-01  0.51100000000E-03 0.  1.
         11    1    4    4    0    0 -0.14843433454E-01 -0.24332155787E-01 -0.41644464933E-01  0.50466859448E-01  0.51100000000E-03 0. -1.
</event>
<event>
 8    1  0.1112958E+005  0.1043930E+01  0.7957747E-01            NaN
         13   -1    0    0    0    0  0.00000000000E+00  0.00000000000E+00  0.74505805969E-08  0.10566000000E+00  0.10566000000E+00 0.  1.
     999900   -1    0    0    0    0 -0.00000000000E+00 -0.00000000000E+00 -0.74505805969E-08  0.93827000000E+00  0.93827000000E+00 0.  1.
     999902    2    1    2    0    0  0.21893765088E-01  0.58968627055E-03  0.90801804857E-03  0.10220094805E+01  0.10217743728E+01 0.  0.
     999903    2    3    3    0    0  0.11370356263E+00  0.53064337560E-01 -0.44137813272E-01  0.13453454850E+00  0.20176077575E-01 0.  0.
         14    1    1    2    0    0 -0.21893765088E-01 -0.58968627055E-03 -0.90801804857E-03  0.21920519528E-01  0.00000000000E+00 0.  1.
     999901    1    3    3    0    0 -0.91809797538E-01 -0.52474651289E-01  0.45045831321E-01  0.88747493197E+00  0.88000000000E+00 0. -1.
        -11    1    4    4    0    0  0.63220852973E-01  0.21469171030E-01 -0.15967717307E-01  0.68651516169E-01  0.51100000000E-03 0.  1.
         11    1    4    4    0    0  0.50482709653E-01  0.31595166530E-01 -0.28170095965E-01  0.65883032335E-01  0.51100000000E-03 0. -1.
</event>
<event>
 8    1  0.1112958E+005  0.1043930E+01  0.7957747E-01            NaN
         13   -1    0    0    0    0  0.00000000000E+00  0.00000000000E+00  0.74505805969E-08  0.10566000000E+00  0.10566000000E+00 0. -1.
     999900   -1    0    0    0    0 -0.00000000000E+00 -0.00000000000E+00 -0.74505805969E-08  0.93827000000E+00  0.93827000000E+00 0.  1.
     999902    2    1    2    0    0 -0.89431543619E-02 -0.17540440810E-01 -0.95553037104E-02  0.10220450531E+01  0.10218107161E+01 0.  0.
     999903    2    3    3    0    0  0.65199576131E-01  0.98248251981E-02 -0.11312842600E+00  0.13245335237E+00  0.19958403423E-01 0.  0.
         14    1    1    2    0    0  0.89431543619E-02  0.17540440810E-01  0.95553037104E-02  0.21884946944E-01  0.00000000000E+00 0. -1.
     999901    1    3    3    0    0 -0.74142730493E-01 -0.27365266008E-01  0.10357312229E+00  0.88959170069E+00  0.88000000000E+00 0. -1.
        -11    1    4    4    0    0  0.35567581362E-01  0.98864782123E-02 -0.45344496402E-01  0.58473752833E-01  0.51100000000E-03 0. -1.
         11    1    4    4    0    0  0.29631994769E-01 -0.61653014203E-04 -0.67783929597E-01  0.73979599537E-01  0.51100000000E-03 0.  1.
</event>
<event>
 8    1  0.1112958E+005  0.1043930E+01  0.7957747E-01            NaN
         13   -1    0    0    0    0  0.00000000000E+00  0.00000000000E+00  0.74505805969E-08  0.10566000000E+00  0.10566000000E+00 0.  1.
     999900   -1    0    0    0    0 -0.00000000000E+00 -0.00000000000E+00 -0.74505805969E-08  0.93827000000E+00  0.93827000000E+00 0. -1.
     999902    2    1    2    0    0 -0.12768651751E-01  0.30465911122E-02 -0.19647292681E-01  0.10203008592E+01  0.10200272090E+01 0.  0.
     999903    2    3    3    0    0 -0.13039095677E-03  0.19444546260E-01 -0.13031881332E+00  0.13312736769E+00  0.19020923822E-01 0.  0.
         14    1    1    2    0    0  0.12768651751E-01 -0.30465911122E-02  0.19647292681E-01  0.23629140794E-01  0.00000000000E+00 0. -1.
     999901    1    3    3    0    0 -0.12638260794E-01 -0.16397955148E-01  0.11067152063E+00  0.88717349152E+00  0.88000000000E+00 0.  1.
        -11    1    4    4    0    0 -0.19125094171E-02  0.13901325896E-01 -0.36210115941E-01  0.38837329612E-01  0.51100000000E-03 0.  1.
         11    1    4    4    0    0  0.17821184603E-02  0.55432203642E-02 -0.94108697375E-01  0.94290038079E-01  0.51100000000E-03 0. -1.
</event>
<event>
 8    1  0.1112958E+005  0.1043930E+01  0.7957747E-01            NaN
         13   -1    0    0    0    0  0.00000000000E+00  0.00000000000E+00  0.74505805969E-08  0.10566000000E+00  0.10566000000E+00 0. -1.
     999900   -1    0    0    0    0 -0.00000000000E+00 -0.00000000000E+00 -0.74505805969E-08  0.93827000000E+00  0.93827000000E+00 0.  1.
     999902    2    1    2    0    0 -0.18215139722E-01 -0.48117815867E-02 -0.14533952577E-01  0.10201354558E+01  0.10198579155E+01 0.  0.
     999903    2    3    3    0    0 -0.96841305956E-01  0.49622551599E-02  0.85711900622E-01  0.13090723035E+00  0.19680206683E-01 0.  0.
         14    1    1    2    0    0  0.18215139722E-01  0.48117815867E-02  0.14533952577E-01  0.23794544220E-01  0.00000000000E+00 0. -1.
     999901    1    3    3    0    0  0.78626166233E-01 -0.97740367465E-02 -0.10024585320E+00  0.88922822543E+00  0.88000000000E+00 0.  1.
        -11    1    4    4    0    0 -0.61913959013E-01  0.12601389717E-01  0.55246926778E-01  0.83932218980E-01  0.51100000000E-03 0. -1.
         11    1    4    4    0    0 -0.34927346942E-01 -0.76391345570E-02  0.30464973844E-01  0.46975011373E-01  0.51100000000E-03 0.  1.
</event>
<event>
 8    1  0.1112958E+005  0.1043930E+01  0.7957747E-01            NaN
         13   -1    0    0    0    0  0.00000000000E+00  0.00000000000E+00  0.74505805969E-08  0.10566000000E+00  0.10566000000E+00 0. -1.
     999900   -1    0    0    0    0 -0.00000000000E+00 -0.00000000000E+00 -0.74505805969E-08  0.93827000000E+00  0.93827000000E+00 0.  1.
     999902    2    1    2    0    0 -0.40332161078E-03  0.14917778374E-01 -0.17962622975E-01  0.10205770857E+01  0.10203098693E+01 0.  0.
     999903    2    3    3    0    0  0.12267051972E+00  0.37756468806E-01  0.17755344394E-01  0.13100159744E+00  0.19301785731E-01 0.  0.
         14    1    1    2    0    0  0.40332161078E-03 -0.14917778374E-01  0.17962622975E-01  0.23352914252E-01  0.00000000000E+00 0. -1.
     999901    1    3    3    0    0 -0.12307384133E+00 -0.22838690432E-01 -0.35717967369E-01  0.88957548831E+00  0.88000000000E+00 0.  1.
        -11    1    4    4    0    0  0.49058093341E-01  0.12510004933E-01 -0.21394293552E-02  0.50675783414E-01  0.51100000000E-03 0. -1.
         11    1    4    4    0    0  0.73612426381E-01  0.25246463873E-01  0.19894773749E-01  0.80325814028E-01  0.51100000000E-03 0.  1.
</event>
<event>
 8    1  0.1112958E+005  0.1043930E+01  0.7957747E-01            NaN
         13   -1    0    0    0    0  0.00000000000E+00  0.00000000000E+00  0.74505805969E-08  0.10566000000E+00  0.10566000000E+00 0.  1.
     999900   -1    0    0    0    0 -0.00000000000E+00 -0.00000000000E+00 -0.74505805969E-08  0.93827000000E+00  0.93827000000E+00 0.  1.
     999902    2    1    2    0    0 -0.19391177352E-01  0.17704079771E-01 -0.31581451745E-02  0.10174833352E+01  0.10171395732E+01 0.  0.
     999903    2    3    3    0    0  0.11450347021E+00 -0.25959483127E-02 -0.48555200527E-01  0.12596734517E+00  0.19808607094E-01 0.  0.
         14    1    1    2    0    0  0.19391177352E-01 -0.17704079771E-01  0.31581451745E-02  0.26446664829E-01  0.00000000000E+00 0.  1.
     999901    1    3    3    0    0 -0.13389464756E+00  0.20300028084E-01  0.45397055353E-01  0.89151599000E+00  0.88000000000E+00 0. -1.
        -11    1    4    4    0    0  0.98919467795E-02 -0.59601616477E-02 -0.44386188943E-02  0.12382915515E-01  0.51100000000E-03 0.  1.
         11    1    4    4    0    0  0.10461152343E+00  0.33642133350E-02 -0.44116581633E-01  0.11358442966E+00  0.51100000000E-03 0. -1.
</event>
<event>
 8    1  0.1112958E+005  0.1043930E+01  0.7957747E-01            NaN
         13   -1    0    0    0    0  0.00000000000E+00  0.00000000000E+00  0.74505805969E-08  0.10566000000E+00  0.10566000000E+00 0. -1.
     999900   -1    0    0    0    0 -0.00000000000E+00 -0.00000000000E+00 -0.74505805969E-08  0.93827000000E+00  0.93827000000E+00 0. -1.
     999902    2    1    2    0    0  0.32255384014E-02  0.11457953566E-01 -0.20578819789E-01  0.10201565564E+01  0.10198795139E+01 0.  0.
     999903    2    3    3    0    0  0.67032531654E-01  0.24556945654E-01  0.10510888211E+00  0.12884274273E+00  0.21358168828E-01 0.  0.
         14    1    1    2    0    0 -0.32255384014E-02 -0.11457953566E-01  0.20578819789E-01  0.23773443626E-01  0.00000000000E+00 0. -1.
     999901    1    3    3    0    0 -0.63806993252E-01 -0.13098992087E-01 -0.12568770190E+00  0.89131381364E+00  0.88000000000E+00 0. -1.
        -11    1    4    4    0    0  0.15408516624E-01  0.13166484238E-01  0.41061059423E-01  0.45793563016E-01  0.51100000000E-03 0.  1.
         11    1    4    4    0    0  0.51624015029E-01  0.11390461415E-01  0.64047822690E-01  0.83049179715E-01  0.51100000000E-03 0. -1.
</event>
<event>
 8    1  0.1112958E+005  0.1043930E+01  0.7957747E-01            NaN
         13   -1    0    0    0    0  0.00000000000E+00  0.00000000000E+00  0.74505805969E-08  0.10566000000E+00  0.10566000000E+00 0.  1.
     999900   -1    0    0    0    0 -0.00000000000E+00 -0.00000000000E+00 -0.74505805969E-08  0.93827000000E+00  0.93827000000E+00 0.  1.
     999902    2    1    2    0    0 -0.22746674286E-01 -0.52030502839E-02 -0.52269414687E-02  0.10200175798E+01  0.10197372501E+01 0.  0.
     999903    2    3    3    0    0 -0.75643449906E-02  0.31949159932E-01 -0.12607717367E+00  0.13085192117E+00  0.12198500574E-01 0.  0.
         14    1    1    2    0    0  0.22746674286E-01  0.52030502839E-02  0.52269414687E-02  0.23912420213E-01  0.00000000000E+00 0. -1.
     999901    1    3    3    0    0 -0.15182329295E-01 -0.37152210216E-01  0.12085023220E+00  0.88916565862E+00  0.88000000000E+00 0. -1.
        -11    1    4    4    0    0  0.20614916055E-02  0.35012722666E-02 -0.27406180896E-01  0.27710440766E-01  0.51100000000E-03 0.  1.
         11    1    4    4    0    0 -0.96258365961E-02  0.28447887666E-01 -0.98670992776E-01  0.10314148040E+00  0.51100000000E-03 0. -1.
</event>
<event>
 8    1  0.1112958E+005  0.1043930E+01  0.7957747E-01            NaN
         13   -1    0    0    0    0  0.00000000000E+00  0.00000000000E+00  0.74505805969E-08  0.10566000000E+00  0.10566000000E+00 0.  1.
     999900   -1    0    0    0    0 -0.00000000000E+00 -0.00000000000E+00 -0.74505805969E-08  0.93827000000E+00  0.93827000000E+00 0. -1.
     999902    2    1    2    0    0 -0.66028898994E-02  0.10794581962E-01  0.65157956076E-02  0.10296970542E+01  0.10295986823E+01 0.  0.
     999903    2    3    3    0    0 -0.82702336396E-01  0.10167990842E-01 -0.10927357234E+00  0.13885548795E+00  0.19926576175E-01 0.  0.
         14    1    1    2    0    0  0.66028898994E-02 -0.10794581962E-01 -0.65157956076E-02  0.14232945836E-01  0.00000000000E+00 0. -1.
     999901    1    3    3    0    0  0.76099446496E-01  0.62659111979E-03  0.11578936795E+00  0.89084156622E+00  0.88000000000E+00 0.  1.
        -11    1    4    4    0    0 -0.98345588207E-02 -0.17399332070E-02 -0.24340871797E-01  0.26315111164E-01  0.51100000000E-03 0. -1.
         11    1    4    4    0    0 -0.72867777575E-01  0.11907924049E-01 -0.84932700541E-01  0.11254037678E+00  0.51100000000E-03 0.  1.
</event>
<event>
 8    1  0.1112958E+005  0.1043930E+01  0.7957747E-01            NaN
         13   -1    0    0    0    0  0.00000000000E+00  0.00000000000E+00  0.74505805969E-08  0.10566000000E+00  0.10566000000E+00 0.  1.
     999900   -1    0    0    0    0 -0.00000000000E+00 -0.00000000000E+00 -0.74505805969E-08  0.93827000000E+00  0.93827000000E+00 0.  1.
     999902    2    1    2    0    0  0.23230758928E-01 -0.34887091740E-02  0.23619142925E-02  0.10203203009E+01  0.10200471060E+01 0.  0.
     999903    2    3    3    0    0 -0.11425115917E+00  0.41735735183E-02 -0.53532131401E-01  0.12786070366E+00  0.20295919800E-01 0.  0.
         14    1    1    2    0    0 -0.23230758928E-01  0.34887091740E-02 -0.23619142925E-02  0.23609699091E-01  0.00000000000E+00 0.  1.
     999901    1    3    3    0    0  0.13748191810E+00 -0.76622826923E-02  0.55894045694E-01  0.89245959725E+00  0.88000000000E+00 0. -1.
        -11    1    4    4    0    0 -0.64895958721E-01  0.81087125359E-02 -0.39463755412E-01  0.76386424118E-01  0.51100000000E-03 0.  1.
         11    1    4    4    0    0 -0.49355200447E-01 -0.39351390176E-02 -0.14068375990E-01  0.51474279541E-01  0.51100000000E-03 0. -1.
</event>
<event>
 8    1  0.1112958E+005  0.1043930E+01  0.7957747E-01            NaN
         13   -1    0    0    0    0  0.00000000000E+00  0.00000000000E+00  0.74505805969E-08  0.10566000000E+00  0.10566000000E+00 0. -1.
     999900   -1    0    0    0    0 -0.00000000000E+00 -0.00000000000E+00 -0.74505805969E-08  0.93827000000E+00  0.93827000000E+00 0. -1.
     999902    2    1    2    0    0  0.45991931911E-03  0.18281672709E-01 -0.15144445198E-01  0.10201858364E+01  0.10199094840E+01 0.  0.
     999903    2    3    3    0    0 -0.97423475197E-02  0.76602104970E-01 -0.10733829959E+00  0.13339100907E+00  0.17574268721E-01 0.  0.
         14    1    1    2    0    0 -0.45991931911E-03 -0.18281672709E-01  0.15144445198E-01  0.23744163560E-01  0.00000000000E+00 0.  1.
     999901    1    3    3    0    0  0.10202266839E-01 -0.58320432262E-01  0.92193854388E-01  0.88679482737E+00  0.88000000000E+00 0.  1.
        -11    1    4    4    0    0 -0.40804561598E-02  0.37860572784E-01 -0.67683045499E-01  0.77661630571E-01  0.51100000000E-03 0.  1.
         11    1    4    4    0    0 -0.56618913599E-02  0.38741532186E-01 -0.39655254087E-01  0.55729378496E-01  0.51100000000E-03 0. -1.
</event>
<event>
 8    1  0.1112958E+005  0.1043930E+01  0.7957747E-01            NaN
         13   -1    0    0    0    0  0.00000000000E+00  0.00000000000E+00  0.74505805969E-08  0.10566000000E+00  0.10566000000E+00 0.  1.
     999900   -1    0    0    0    0 -0.00000000000E+00 -0.00000000000E+00 -0.74505805969E-08  0.93827000000E+00  0.93827000000E+00 0. -1.
     999902    2    1    2    0    0 -0.17796828731E-01 -0.10145930774E-01  0.12192779756E-01  0.10200903083E+01  0.10198117013E+01 0.  0.
     999903    2    3    3    0    0  0.57653571343E-01  0.23995538591E-01  0.11228663819E+00  0.13055268494E+00  0.23151550041E-01 0.  0.
         14    1    1    2    0    0  0.17796828731E-01  0.10145930774E-01 -0.12192779756E-01  0.23839691742E-01  0.00000000000E+00 0. -1.
     999901    1    3    3    0    0 -0.75450400075E-01 -0.34141469366E-01 -0.10009385843E+00  0.88953762332E+00  0.88000000000E+00 0. -1.
        -11    1    4    4    0    0  0.25872404907E-01  0.18273829244E-03  0.55717122678E-01  0.61433489316E-01  0.51100000000E-03 0. -1.
         11    1    4    4    0    0  0.31781166436E-01  0.23812800299E-01  0.56569515507E-01  0.69119195625E-01  0.51100000000E-03 0.  1.
</event>
<event>
 8    1  0.1112958E+005  0.1043930E+01  0.7957747E-01            NaN
         13   -1    0    0    0    0  0.00000000000E+00  0.00000000000E+00  0.74505805969E-08  0.10566000000E+00  0.10566000000E+00 0. -1.
     999900   -1    0    0    0    0 -0.00000000000E+00 -0.00000000000E+00 -0.74505805969E-08  0.93827000000E+00  0.93827000000E+00 0. -1.
     999902    2    1    2    0    0  0.22386580836E-01 -0.10086797620E-02  0.67884754115E-02  0.10205150510E+01  0.10202463965E+01 0.  0.
     999903    2    3    3    0    0 -0.10922215842E+00 -0.57119721496E-01  0.32321882252E-01  0.12859506353E+00  0.17315998933E-01 0.  0.
         14    1    1    2    0    0 -0.22386580836E-01  0.10086797620E-02 -0.67884754115E-02  0.23414948960E-01  0.00000000000E+00 0.  1.
     999901    1    3    3    0    0  0.13160873925E+00  0.56111041733E-01 -0.25533406841E-01  0.89191998751E+00  0.88000000000E+00 0.  1.
        -11    1    4    4    0    0 -0.42577124622E-01 -0.31298528075E-01  0.10657033288E-01  0.53909580599E-01  0.51100000000E-03 0.  1.
         11    1    4    4    0    0 -0.66645033796E-01 -0.25821193420E-01  0.21664848964E-01  0.74685482933E-01  0.51100000000E-03 0. -1.
</event>
<event>
 8    1  0.1112958E+005  0.1043930E+01  0.7957747E-01            NaN
         13   -1    0    0    0    0  0.00000000000E+00  0.00000000000E+00  0.74505805969E-08  0.10566000000E+00  0.10566000000E+00 0.  1.
     999900   -1    0    0    0    0 -0.00000000000E+00 -0.00000000000E+00 -0.74505805969E-08  0.93827000000E+00  0.93827000000E+00 0. -1.
     999902    2    1    2    0    0  0.23520754265E-01  0.67069983529E-02  0.18890338440E-02  0.10193988329E+01  0.10191036269E+01 0.  0.
     999903    2    3    3    0    0 -0.98375885148E-01 -0.56172228169E-01  0.54298833085E-01  0.12723327943E+00  0.20169534547E-01 0.  0.
         14    1    1    2    0    0 -0.23520754265E-01 -0.67069983529E-02 -0.18890338440E-02  0.24531167052E-01  0.00000000000E+00 0. -1.
     999901    1    3    3    0    0  0.12189663941E+00  0.62879226522E-01 -0.52409799241E-01  0.89216555352E+00  0.88000000000E+00 0. -1.
        -11    1    4    4    0    0 -0.83247042698E-01 -0.40318172486E-01  0.49028217450E-01  0.10468835837E+00  0.51100000000E-03 0. -1.
         11    1    4    4    0    0 -0.15128842450E-01 -0.15854055682E-01  0.52706156347E-02  0.22544921061E-01  0.51100000000E-03 0.  1.
</event>
<event>
 7    1  0.1112958E+005  0.1043930E+01  0.7957747E-01            NaN
         13   -1    0    0    0    0  0.00000000000E+00  0.00000000000E+00  0.74505805969E-08  0.10566000000E+00  0.10566000000E+00 0.  1.
     999900   -1    0    0    0    0 -0.00000000000E+00 -0.00000000000E+00 -0.74505805969E-08  0.93827000000E+00  0.93827000000E+00 0.  1.
     999903    2    1    2    0    0 -0.59923874553E-01 -0.92719054649E-01  0.34881515269E-01  0.11766036146E+00  0.20965369432E-01 0.  0.
         14    1    1    2    0    0 -0.27086438167E-01  0.13635834853E-01 -0.23519185667E-01  0.38376597284E-01  0.00000000000E+00 0. -1.
     999901    1    1    2    0    0  0.87010312719E-01  0.79083219797E-01 -0.11362329602E-01  0.88789304125E+00  0.88000000000E+00 0. -1.
        -11    1    3    3    0    0 -0.12190336712E-01 -0.24704637827E-01  0.17874205172E-01  0.32843138870E-01  0.51100000000E-03 0. -1.
         11    1    3    3    0    0 -0.47733537840E-01 -0.68014416822E-01  0.17007310098E-01  0.84817222592E-01  0.51100000000E-03 0.  1.
</event>
<event>
 8    1  0.1112958E+005  0.1043930E+01  0.7957747E-01            NaN
         13   -1    0    0    0    0  0.00000000000E+00  0.00000000000E+00  0.74505805969E-08  0.10566000000E+00  0.10566000000E+00 0. -1.
     999900   -1    0    0    0    0 -0.00000000000E+00 -0.00000000000E+00 -0.74505805969E-08  0.93827000000E+00  0.93827000000E+00 0.  1.
     999902    2    1    2    0    0 -0.22255614837E-01  0.86541006562E-02 -0.53884817331E-02  0.10194505885E+01  0.10191566420E+01 0.  0.
     999903    2    3    3    0    0  0.27448076853E-01 -0.75881954245E-01 -0.98834956982E-01  0.12908603102E+00  0.19580265096E-01 0.  0.
         14    1    1    2    0    0  0.22255614837E-01 -0.86541006562E-02  0.53884817331E-02  0.24479411458E-01  0.00000000000E+00 0.  1.
     999901    1    3    3    0    0 -0.49703691690E-01  0.84536054901E-01  0.93446475249E-01  0.89036455752E+00  0.88000000000E+00 0. -1.
        -11    1    4    4    0    0  0.19403110979E-01 -0.35067413874E-01 -0.36930530801E-01  0.54500728965E-01  0.51100000000E-03 0. -1.
         11    1    4    4    0    0  0.80449658740E-02 -0.40814540371E-01 -0.61904426181E-01  0.74585302060E-01  0.51100000000E-03 0.  1.
</event>
<event>
 8    1  0.1112958E+005  0.1043930E+01  0.7957747E-01            NaN
         13   -1    0    0    0    0  0.00000000000E+00  0.00000000000E+00  0.74505805969E-08  0.10566000000E+00  0.10566000000E+00 0. -1.
     999900   -1    0    0    0    0 -0.00000000000E+00 -0.00000000000E+00 -0.74505805969E-08  0.93827000000E+00  0.93827000000E+00 0. -1.
     999902    2    1    2    0    0  0.40068081009E-02 -0.22903869151E-01  0.57688289488E-02  0.10199733491E+01  0.10196919691E+01 0.  0.
     999903    2    3    3    0    0 -0.12888427035E-01  0.12432783950E+00 -0.12371080886E-01  0.12739748047E+00  0.21296740608E-01 0.  0.
         14    1    1    2    0    0 -0.40068081009E-02  0.22903869151E-01 -0.57688289488E-02  0.23956650865E-01  0.00000000000E+00 0.  1.
     999901    1    3    3    0    0  0.16895235136E-01 -0.14723170865E+00  0.18139909835E-01  0.89257586867E+00  0.88000000000E+00 0.  1.
        -11    1    4    4    0    0 -0.11792284537E-01  0.85508724565E-01  0.99097313711E-03  0.86325217058E-01  0.51100000000E-03 0.  1.
         11    1    4    4    0    0 -0.10961424975E-02  0.38819114934E-01 -0.13362054023E-01  0.41072263407E-01  0.51100000000E-03 0. -1.
</event>
<event>
 8    1  0.1112958E+005  0.1043930E+01  0.7957747E-01            NaN
         13   -1    0    0    0    0  0.00000000000E+00  0.00000000000E+00  0.74505805969E-08  0.10566000000E+00  0.10566000000E+00 0. -1.
     999900   -1    0    0    0    0 -0.00000000000E+00 -0.00000000000E+00 -0.74505805969E-08  0.93827000000E+00  0.93827000000E+00 0.  1.
     999902    2    1    2    0    0 -0.40076963075E-02  0.20514897905E-01 -0.12583858627E-01  0.10195317180E+01  0.10192397401E+01 0.  0.
     999903    2    3    3    0    0  0.94641478808E-01  0.87160237774E-01 -0.16518268299E-01  0.13150652656E+00  0.21614735287E-01 0.  0.
         14    1    1    2    0    0  0.40076963075E-02 -0.20514897905E-01  0.12583858627E-01  0.24398281982E-01  0.00000000000E+00 0. -1.
     999901    1    3    3    0    0 -0.98649175115E-01 -0.66645339870E-01  0.39344096719E-02  0.88802519145E+00  0.88000000000E+00 0. -1.
        -11    1    4    4    0    0  0.44466619182E-01  0.54453270693E-01 -0.47435384133E-02  0.70464183727E-01  0.51100000000E-03 0.  1.
         11    1    4    4    0    0  0.50174859626E-01  0.32706967081E-01 -0.11774729886E-01  0.61042342837E-01  0.51100000000E-03 0. -1.
</event>
<event>
 8    1  0.1112958E+005  0.1043930E+01  0.7957747E-01            NaN
         13   -1    0    0    0    0  0.00000000000E+00  0.00000000000E+00  0.74505805969E-08  0.10566000000E+00  0.10566000000E+00 0.  1.
     999900   -1    0    0    0    0 -0.00000000000E+00 -0.00000000000E+00 -0.74505805969E-08  0.93827000000E+00  0.93827000000E+00 0.  1.
     999902    2    1    2    0    0 -0.17323091189E-02 -0.10236734264E-01 -0.21665305089E-01  0.10199054903E+01  0.10196224949E+01 0.  0.
     999903    2    3    3    0    0  0.16982920220E-01  0.45542410289E-01 -0.12119107762E+00  0.13234312504E+00  0.21561417785E-01 0.  0.
         14    1    1    2    0    0  0.17323091189E-02  0.10236734264E-01  0.21665305089E-01  0.24024509732E-01  0.00000000000E+00 0.  1.
     999901    1    3    3    0    0 -0.18715229339E-01 -0.55779144553E-01  0.99525772527E-01  0.88756236523E+00  0.88000000000E+00 0. -1.
        -11    1    4    4    0    0  0.16200734723E-01  0.19994436562E-01 -0.43395613126E-01  0.50454748623E-01  0.51100000000E-03 0.  1.
         11    1    4    4    0    0  0.78218549761E-03  0.25547973726E-01 -0.77795464489E-01  0.81888376414E-01  0.51100000000E-03 0. -1.
</event>
<event>
 8    1  0.1112958E+005  0.1043930E+01  0.7957747E-01            NaN
         13   -1    0    0    0    0  0.00000000000E+00  0.00000000000E+00  0.74505805969E-08  0.10566000000E+00  0.10566000000E+00 0.  1.
     999900   -1    0    0    0    0 -0.00000000000E+00 -0.00000000000E+00 -0.74505805969E-08  0.93827000000E+00  0.93827000000E+00 0. -1.
     999902    2    1    2    0    0  0.11087443330E-01 -0.21278401845E-01 -0.43758991516E-02  0.10195404474E+01  0.10192486809E+01 0.  0.
     999903    2    3    3    0    0 -0.54569204244E-01  0.71809598218E-01 -0.88915970606E-01  0.12818014153E+00  0.19740375014E-01 0.  0.
         14    1    1    2    0    0 -0.11087443330E-01  0.21278401845E-01  0.43758991516E-02  0.24389552641E-01  0.00000000000E+00 0. -1.
     999901    1    3    3    0    0  0.65656647574E-01 -0.93088000062E-01  0.84540071455E-01  0.89136030583E+00  0.88000000000E+00 0.  1.
        -11    1    4    4    0    0 -0.30933574203E-01  0.39634706350E-01 -0.62897353710E-01  0.80524121760E-01  0.51100000000E-03 0.  1.
         11    1    4    4    0    0 -0.23635630041E-01  0.32174891867E-01 -0.26018616896E-01  0.47656019770E-01  0.51100000000E-03 0. -1.
</event>
<event>
 8    1  0.1112958E+005  0.1043930E+01  0.7957747E-01            NaN
         13   -1    0    0    0    0  0.00000000000E+00  0.00000000000E+00  0.74505805969E-08  0.10566000000E+00  0.10566000000E+00 0.  1.
     999900   -1    0    0    0    0 -0.00000000000E+00 -0.00000000000E+00 -0.74505805969E-08  0.93827000000E+00  0.93827000000E+00 0. -1.
     999902    2    1    2    0    0  0.20801483644E-01 -0.89598525208E-02  0.78210795477E-02  0.10199685734E+01  0.10196870798E+01 0.  0.
     999903    2    3    3    0    0 -0.79077063904E-01 -0.23436149332E-01  0.98128020089E-01  0.12960874113E+00  0.19154172366E-01 0.  0.
         14    1    1    2    0    0 -0.20801483644E-01  0.89598525208E-02 -0.78210795477E-02  0.23961426591E-01  0.00000000000E+00 0.  1.
     999901    1    3    3    0    0  0.99878547548E-01  0.14476296811E-01 -0.90306940541E-01  0.89035983228E+00  0.88000000000E+00 0. -1.
        -11    1    4    4    0    0 -0.38133054223E-02 -0.30592749466E-03  0.13389024193E-01  0.13934201797E-01  0.51100000000E-03 0.  1.
         11    1    4    4    0    0 -0.75263758481E-01 -0.23130221838E-01  0.84738995896E-01  0.11567453933E+00  0.51100000000E-03 0. -1.
</event>
<event>
 8    1  0.1112958E+005  0.1043930E+01  0.7957747E-01            NaN
         13   -1    0    0    0    0  0.00000000000E+00  0.00000000000E+00  0.74505805969E-08  0.10566000000E+00  0.10566000000E+00 0. -1.
     999900   -1    0    0    0    0 -0.00000000000E+00 -0.00000000000E+00 -0.74505805969E-08  0.93827000000E+00  0.93827000000E+00 0. -1.
     999902    2    1    2    0    0 -0.17637020729E-01 -0.17664423021E-02 -0.16639798176E-01  0.10196181160E+01  0.10193282272E+01 0.  0.
     999903    2    3    3    0    0 -0.91791832135E-01 -0.65484676345E-02  0.89846474556E-01  0.13008951610E+00  0.19551734809E-01 0.  0.
         14    1    1    2    0    0  0.17637020729E-01  0.17664423021E-02  0.16639798176E-01  0.24311883965E-01  0.00000000000E+00 0. -1.
     999901    1    3    3    0    0  0.74154811407E-01  0.47820253324E-02 -0.10648627273E+00  0.88952859993E+00  0.88000000000E+00 0. -1.
        -11    1    4    4    0    0 -0.44356059850E-01  0.38049467324E-03  0.55817592931E-01  0.71298454564E-01  0.51100000000E-03 0. -1.
         11    1    4    4    0    0 -0.47435772285E-01 -0.69289623077E-02  0.34028881625E-01  0.58791061537E-01  0.51100000000E-03 0.  1.
</event>
<event>
 8    1  0.1112958E+005  0.1043930E+01  0.7957747E-01            NaN
         13   -1    0    0    0    0  0.00000000000E+00  0.00000000000E+00  0.74505805969E-08  0.10566000000E+00  0.10566000000E+00 0. -1.
     999900   -1    0    0    0    0 -0.00000000000E+00 -0.00000000000E+00 -0.74505805969E-08  0.93827000000E+00  0.93827000000E+00 0. -1.
     999902    2    1    2    0    0  0.12900652674E-01  0.37144334905E-02  0.17183639635E-01  0.10221240071E+01  0.10218913761E+01 0.  0.
     999903    2    3    3    0    0  0.12860263454E+00 -0.24237873703E-02 -0.28981913581E-01  0.13332938252E+00  0.19805569206E-01 0.  0.
         14    1    1    2    0    0 -0.12900652674E-01 -0.37144334905E-02 -0.17183639635E-01  0.21805992908E-01  0.00000000000E+00 0.  1.
     999901    1    3    3    0    0 -0.11570198187E+00  0.61382208608E-02  0.46165553217E-01  0.88879462457E+00  0.88000000000E+00 0.  1.
        -11    1    4    4    0    0  0.46038494969E-01  0.46331702674E-03 -0.20091193131E-01  0.50236190581E-01  0.51100000000E-03 0.  1.
         11    1    4    4    0    0  0.82564139575E-01 -0.28871043970E-02 -0.88907204507E-02  0.83093191940E-01  0.51100000000E-03 0. -1.
</event>
<event>
 8    1  0.1112958E+005  0.1043930E+01  0.7957747E-01            NaN
         13   -1    0    0    0    0  0.00000000000E+00  0.00000000000E+00  0.74505805969E-08  0.10566000000E+00  0.10566000000E+00 0. -1.
     999900   -1    0    0    0    0 -0.00000000000E+00 -0.00000000000E+00 -0.74505805969E-08  0.93827000000E+00  0.93827000000E+00 0.  1.
     999902    2    1    2    0    0  0.17957567534E-01  0.92121916612E-02 -0.12455468298E-01  0.10202133941E+01  0.10199376903E+01 0.  0.
     999903    2    3    3    0    0 -0.59646965852E-01  0.11117565040E+00 -0.28119218310E-01  0.13079540257E+00  0.19974011043E-01 0.  0.
         14    1    1    2    0    0 -0.17957567534E-01 -0.92121916612E-02  0.12455468298E-01  0.23716605943E-01  0.00000000000E+00 0. -1.
     999901    1    3    3    0    0  0.77604533386E-01 -0.10196345874E+00  0.15663750012E-01  0.88941799149E+00  0.88000000000E+00 0.  1.
        -11    1    4    4    0    0 -0.35361311343E-01  0.57994353286E-01 -0.24526129202E-01  0.72218830561E-01  0.51100000000E-03 0. -1.
         11    1    4    4    0    0 -0.24285654509E-01  0.53181297114E-01 -0.35930891079E-02  0.58576572006E-01  0.51100000000E-03 0.  1.
</event>
<event>
 8    1  0.1112958E+005  0.1043930E+01  0.7957747E-01            NaN
         13   -1    0    0    0    0  0.00000000000E+00  0.00000000000E+00  0.74505805969E-08  0.10566000000E+00  0.10566000000E+00 0. -1.
     999900   -1    0    0    0    0 -0.00000000000E+00 -0.00000000000E+00 -0.74505805969E-08  0.93827000000E+00  0.93827000000E+00 0. -1.
     999902    2    1    2    0    0  0.18303026873E-02  0.22497320911E-01  0.61567851948E-02  0.10205337298E+01  0.10202655087E+01 0.  0.
     999903    2    3    3    0    0  0.18470089548E-03 -0.40556626758E-02 -0.12831930258E+00  0.12992068972E+00  0.19926356689E-01 0.  0.
         14    1    1    2    0    0 -0.18303026873E-02 -0.22497320911E-01 -0.61567851948E-02  0.23396270216E-01  0.00000000000E+00 0.  1.
     999901    1    3    3    0    0  0.16456017918E-02  0.26552983586E-01  0.13447608777E+00  0.89061304006E+00  0.88000000000E+00 0.  1.
        -11    1    4    4    0    0 -0.94657466492E-02  0.27568685643E-03 -0.71091078997E-01  0.71720840743E-01  0.51100000000E-03 0.  1.
         11    1    4    4    0    0  0.96504475447E-02 -0.43313495322E-02 -0.57228223578E-01  0.58199848982E-01  0.51100000000E-03 0. -1.
</event>
<event>
 8    1  0.1112958E+005  0.1043930E+01  0.7957747E-01            NaN
         13   -1    0    0    0    0  0.00000000000E+00  0.00000000000E+00  0.74505805969E-08  0.10566000000E+00  0.10566000000E+00 0. -1.
     999900   -1    0    0    0    0 -0.00000000000E+00 -0.00000000000E+00 -0.74505805969E-08  0.93827000000E+00  0.93827000000E+00 0. -1.
     999902    2    1    2    0    0 -0.18025595146E-01  0.56947150740E-02 -0.24004960658E-01  0.10133752950E+01  0.10129145564E+01 0.  0.
     999903    2    3    3    0    0 -0.95092495296E-01 -0.78398443814E-01  0.10228410257E-01  0.12535339768E+00  0.20492810449E-01 0.  0.
         14    1    1    2    0    0  0.18025595146E-01 -0.56947150740E-02  0.24004960658E-01  0.30554704978E-01  0.00000000000E+00 0. -1.
     999901    1    3    3    0    0  0.77066900150E-01  0.84093158888E-01 -0.34233370915E-01  0.88802189734E+00  0.88000000000E+00 0. -1.
        -11    1    4    4    0    0 -0.27741675898E-01 -0.14982110312E-01  0.91645060678E-02  0.32837684199E-01  0.51100000000E-03 0. -1.
         11    1    4    4    0    0 -0.67350819397E-01 -0.63416333502E-01  0.10639041893E-02  0.92515713484E-01  0.51100000000E-03 0.  1.
</event>
<event>
 8    1  0.1112958E+005  0.1043930E+01  0.7957747E-01            NaN
         13   -1    0    0    0    0  0.00000000000E+00  0.00000000000E+00  0.74505805969E-08  0.10566000000E+00  0.10566000000E+00 0. -1.
     999900   -1    0    0    0    0 -0.00000000000E+00 -0.00000000000E+00 -0.74505805969E-08  0.93827000000E+00  0.93827000000E+00 0. -1.
     999902    2    1    2    0    0  0.15787710666E-01 -0.14636618770E-01 -0.10218883236E-01  0.10200991798E+01  0.10198207826E+01 0.  0.
     999903    2    3    3    0    0 -0.41710355689E-01 -0.11928015920E+00  0.27746211974E-01  0.13122480923E+00  0.21967888552E-01 0.  0.
         14    1    1    2    0    0 -0.15787710666E-01  0.14636618770E-01  0.10218883236E-01  0.23830820206E-01  0.00000000000E+00 0. -1.
     999901    1    3    3    0    0  0.57498066356E-01  0.10464354043E+00 -0.37965095210E-01  0.88887437056E+00  0.88000000000E+00 0. -1.
        -11    1    4    4    0    0 -0.45486249299E-02 -0.43182486972E-01  0.12370280677E-01  0.45151989268E-01  0.51100000000E-03 0. -1.
         11    1    4    4    0    0 -0.37161730760E-01 -0.76097672232E-01  0.15375931297E-01  0.86072819963E-01  0.51100000000E-03 0.  1.
</event>
<event>
 8    1  0.1112958E+005  0.1043930E+01  0.7957747E-01            NaN
         13   -1    0    0    0    0  0.00000000000E+00  0.00000000000E+00  0.74505805969E-08  0.10566000000E+00  0.10566000000E+00 0. -1.
     999900   -1    0    0    0    0 -0.00000000000E+00 -0.00000000000E+00 -0.74505805969E-08  0.93827000000E+00  0.93827000000E+00 0. -1.
     999902    2    1    2    0    0 -0.15466182022E-01 -0.15798680725E-01 -0.10181798868E-01  0.10195892907E+01  0.10192987058E+01 0.  0.
     999903    2    3    3    0    0 -0.59491873296E-01 -0.11645563929E-01  0.11284049861E+00  0.12993205588E+00  0.21782076790E-01 0.  0.
         14    1    1    2    0    0  0.15466182022E-01  0.15798680725E-01  0.10181798868E-01  0.24340709258E-01  0.00000000000E+00 0.  1.
     999901    1    3    3    0    0  0.44025691274E-01 -0.41531167958E-02 -0.12302229748E+00  0.88965723487E+00  0.88000000000E+00 0. -1.
        -11    1    4    4    0    0 -0.27337661869E-01 -0.16423379621E-01  0.56940556818E-01  0.65265329895E-01  0.51100000000E-03 0.  1.
         11    1    4    4    0    0 -0.32154211427E-01  0.47778156915E-02  0.55899941797E-01  0.64666725981E-01  0.51100000000E-03 0. -1.
</event>
<event>
 8    1  0.1112958E+005  0.1043930E+01  0.7957747E-01            NaN
         13   -1    0    0    0    0  0.00000000000E+00  0.00000000000E+00  0.74505805969E-08  0.10566000000E+00  0.10566000000E+00 0. -1.
     999900   -1    0    0    0    0 -0.00000000000E+00 -0.00000000000E+00 -0.74505805969E-08  0.93827000000E+00  0.93827000000E+00 0.  1.
     999902    2    1    2    0    0  0.98847750760E-02  0.46724401813E-02  0.22627767121E-01  0.10187992157E+01  0.10184892172E+01 0.  0.
     999903    2    3    3    0    0 -0.20116879185E-01  0.11393659287E+00 -0.52583155964E-01  0.12835245294E+00  0.17975757592E-01 0.  0.
         14    1    1    2    0    0 -0.98847750760E-02 -0.46724401813E-02 -0.22627767121E-01  0.25130784318E-01  0.00000000000E+00 0.  1.
     999901    1    3    3    0    0  0.30001654261E-01 -0.10926415269E+00  0.75210923086E-01  0.89044676274E+00  0.88000000000E+00 0.  1.
        -11    1    4    4    0    0 -0.96808373616E-02  0.50370314684E-01 -0.13641580563E-01  0.53077688860E-01  0.51100000000E-03 0.  1.
         11    1    4    4    0    0 -0.10436041824E-01  0.63566278191E-01 -0.38941575401E-01  0.75274764082E-01  0.51100000000E-03 0. -1.
</event>
<event>
 8    1  0.1112958E+005  0.1043930E+01  0.7957747E-01            NaN
         13   -1    0    0    0    0  0.00000000000E+00  0.00000000000E+00  0.74505805969E-08  0.10566000000E+00  0.10566000000E+00 0.  1.
     999900   -1    0    0    0    0 -0.00000000000E+00 -0.00000000000E+00 -0.74505805969E-08  0.93827000000E+00  0.93827000000E+00 0. -1.
     999902    2    1    2    0    0 -0.16297754737E-01 -0.11385629626E-01 -0.13240626249E-01  0.10200435278E+01  0.10197638134E+01 0.  0.
     999903    2    3    3    0    0  0.63307892930E-01 -0.67398552825E-01  0.87097998410E-01  0.12900910291E+00  0.22512953549E-01 0.  0.
         14    1    1    2    0    0  0.16297754737E-01  0.11385629626E-01  0.13240626249E-01  0.23886472216E-01  0.00000000000E+00 0.  1.
     999901    1    3    3    0    0 -0.79605647667E-01  0.56012923199E-01 -0.10033862466E+00  0.89103442487E+00  0.88000000000E+00 0. -1.
        -11    1    4    4    0    0  0.62857937097E-01 -0.57354360621E-01  0.78424094081E-01  0.11572053660E+00  0.51100000000E-03 0.  1.
         11    1    4    4    0    0  0.44995583266E-03 -0.10044192204E-01  0.86739043284E-02  0.13288566310E-01  0.51100000000E-03 0. -1.
</event>
<event>
 8    1  0.1112958E+005  0.1043930E+01  0.7957747E-01            NaN
         13   -1    0    0    0    0  0.00000000000E+00  0.00000000000E+00  0.74505805969E-08  0.10566000000E+00  0.10566000000E+00 0. -1.
     999900   -1    0    0    0    0 -0.00000000000E+00 -0.00000000000E+00 -0.74505805969E-08  0.93827000000E+00  0.93827000000E+00 0.  1.
     999902    2    1    2    0    0  0.54275666692E-02  0.12407277076E-01 -0.18813766661E-01  0.10207490419E+01  0.10204857910E+01 0.  0.
     999903    2    3    3    0    0 -0.12077669774E+00  0.46886967692E-01  0.85524044173E-03  0.13085959071E+00  0.18387566131E-01 0.  0.
         14    1    1    2    0    0 -0.54275666692E-02 -0.12407277076E-01  0.18813766661E-01  0.23180958142E-01  0.00000000000E+00 0. -1.
     999901    1    3    3    0    0  0.12620426441E+00 -0.34479690617E-01 -0.19669007103E-01  0.88988945115E+00  0.88000000000E+00 0.  1.
        -11    1    4    4    0    0 -0.73276362898E-01  0.35285707142E-01  0.67278167350E-02  0.81609013762E-01  0.51100000000E-03 0.  1.
         11    1    4    4    0    0 -0.47500334844E-01  0.11601260551E-01 -0.58725762933E-02  0.49250576951E-01  0.51100000000E-03 0. -1.
</event>
<event>
 8    1  0.1112958E+005  0.1043930E+01  0.7957747E-01            NaN
         13   -1    0    0    0    0  0.00000000000E+00  0.00000000000E+00  0.74505805969E-08  0.10566000000E+00  0.10566000000E+00 0.  1.
     999900   -1    0    0    0    0 -0.00000000000E+00 -0.00000000000E+00 -0.74505805969E-08  0.93827000000E+00  0.93827000000E+00 0.  1.
     999902    2    1    2    0    0  0.54970978880E-02  0.22055470979E-01 -0.38713838401E-02  0.10208724742E+01  0.10206120512E+01 0.  0.
     999903    2    3    3    0    0 -0.95874492102E-01 -0.28914554847E-01 -0.80950766483E-01  0.13024607997E+00  0.19571536355E-01 0.  0.
         14    1    1    2    0    0 -0.54970978880E-02 -0.22055470979E-01  0.38713838401E-02  0.23057525846E-01  0.00000000000E+00 0.  1.
     999901    1    3    3    0    0  0.10137158999E+00  0.50970025827E-01  0.77079382643E-01  0.89062639418E+00  0.88000000000E+00 0. -1.
        -11    1    4    4    0    0 -0.54298173445E-01 -0.19697135177E-01 -0.58042983027E-01  0.81887225947E-01  0.51100000000E-03 0.  1.
         11    1    4    4    0    0 -0.41576318657E-01 -0.92174196705E-02 -0.22907783456E-01  0.48358854022E-01  0.51100000000E-03 0. -1.
</event>
<event>
 8    1  0.1112958E+005  0.1043930E+01  0.7957747E-01            NaN
         13   -1    0    0    0    0  0.00000000000E+00  0.00000000000E+00  0.74505805969E-08  0.10566000000E+00  0.10566000000E+00 0. -1.
     999900   -1    0    0    0    0 -0.00000000000E+00 -0.00000000000E+00 -0.74505805969E-08  0.93827000000E+00  0.93827000000E+00 0. -1.
     999902    2    1    2    0    0  0.67144125505E-02 -0.17927673671E-01 -0.11751119677E-01  0.10214672835E+01  0.10212202689E+01 0.  0.
     999903    2    3    3    0    0 -0.11642803185E+00 -0.47751139286E-01  0.32059166886E-01  0.13131401471E+00  0.19491597559E-01 0.  0.
         14    1    1    2    0    0 -0.67144125505E-02  0.17927673671E-01  0.11751119677E-01  0.22462716506E-01  0.00000000000E+00 0.  1.
     999901    1    3    3    0    0  0.12314244440E+00  0.29823465615E-01 -0.43810286563E-01  0.89015326878E+00  0.88000000000E+00 0. -1.
        -11    1    4    4    0    0 -0.39708899960E-01 -0.24328950767E-01  0.17701871482E-01  0.49822805585E-01  0.51100000000E-03 0. -1.
         11    1    4    4    0    0 -0.76719131888E-01 -0.23422188520E-01  0.14357295404E-01  0.81491209127E-01  0.51100000000E-03 0.  1.
</event>
<event>
 8    1  0.1112958E+005  0.1043930E+01  0.7957747E-01            NaN
         13   -1    0    0    0    0  0.00000000000E+00  0.00000000000E+00  0.74505805969E-08  0.10566000000E+00  0.10566000000E+00 0. -1.
     999900   -1    0    0    0    0 -0.00000000000E+00 -0.00000000000E+00 -0.74505805969E-08  0.93827000000E+00  0.93827000000E+00 0. -1.
     999902    2    1    2    0    0 -0.12973625709E-01 -0.11292784902E-01  0.18953215704E-01  0.10183357362E+01  0.10180140496E+01 0.  0.
     999903    2    3    3    0    0 -0.30094394382E-01  0.77114369492E-01  0.98064058132E-01  0.13020991680E+00  0.22040063054E-01 0.  0.
         14    1    1    2    0    0  0.12973625709E-01  0.11292784902E-01 -0.18953215704E-01  0.25594263819E-01  0.00000000000E+00 0.  1.
     999901    1    3    3    0    0  0.17120768673E-01 -0.88407154394E-01 -0.79110842427E-01  0.88812581938E+00  0.88000000000E+00 0. -1.
        -11    1    4    4    0    0 -0.19064248096E-01  0.58930260185E-01  0.85246537065E-01  0.10537292975E+00  0.51100000000E-03 0. -1.
         11    1    4    4    0    0 -0.11030146286E-01  0.18184109307E-01  0.12817521067E-01  0.24836987050E-01  0.51100000000E-03 0.  1.
</event>
<event>
 8    1  0.1112958E+005  0.1043930E+01  0.7957747E-01            NaN
         13   -1    0    0    0    0  0.00000000000E+00  0.00000000000E+00  0.74505805969E-08  0.10566000000E+00  0.10566000000E+00 0. -1.
     999900   -1    0    0    0    0 -0.00000000000E+00 -0.00000000000E+00 -0.74505805969E-08  0.93827000000E+00  0.93827000000E+00 0.  1.
     999902    2    1    2    0    0  0.85670063308E-02  0.18173903825E-01  0.13098417059E-01  0.10199455695E+01  0.10196635287E+01 0.  0.
     999903    2    3    3    0    0 -0.16246512977E-01 -0.10109784019E+00  0.76363928639E-01  0.12930311338E+00  0.20077924635E-01 0.  0.
         14    1    1    2    0    0 -0.85670063308E-02 -0.18173903825E-01 -0.13098417059E-01  0.23984430516E-01  0.00000000000E+00 0.  1.
     999901    1    3    3    0    0  0.24813519308E-01  0.11927174401E+00 -0.63265511580E-01  0.89064245610E+00  0.88000000000E+00 0. -1.
        -11    1    4    4    0    0 -0.17580511471E-01 -0.48345836090E-01  0.34498363027E-01  0.61941847110E-01  0.51100000000E-03 0. -1.
         11    1    4    4    0    0  0.13339984940E-02 -0.52752004099E-01  0.41865565612E-01  0.67361266269E-01  0.51100000000E-03 0.  1.
</event>
<event>
 8    1  0.1112958E+005  0.1043930E+01  0.7957747E-01            NaN
         13   -1    0    0    0    0  0.00000000000E+00  0.00000000000E+00  0.74505805969E-08  0.10566000000E+00  0.10566000000E+00 0. -1.
     999900   -1    0    0    0    0 -0.00000000000E+00 -0.00000000000E+00 -0.74505805969E-08  0.93827000000E+00  0.93827000000E+00 0.  1.
     999902    2    1    2    0    0  0.12435938620E-01  0.58323994813E-02  0.19441885224E-01  0.10201254552E+01  0.10198476788E+01 0.  0.
     999903    2    3    3    0    0 -0.84878663585E-01  0.69153801427E-01  0.69242856311E-01  0.13110359467E+00  0.20172843150E-01 0.  0.
         14    1    1    2    0    0 -0.12435938620E-01 -0.58323994813E-02 -0.19441885224E-01  0.23804544821E-01  0.00000000000E+00 0.  1.
     999901    1    3    3    0    0  0.97314602205E-01 -0.63321401945E-01 -0.49800971088E-01  0.88902186051E+00  0.88000000000E+00 0.  1.
        -11    1    4    4    0    0 -0.25686961161E-01  0.97919710256E-02  0.17080250955E-01  0.32368175171E-01  0.51100000000E-03 0.  1.
         11    1    4    4    0    0 -0.59191702424E-01  0.59361830401E-01  0.52162605356E-01  0.98735419496E-01  0.51100000000E-03 0. -1.
</event>
<event>
 8    1  0.1112958E+005  0.1043930E+01  0.7957747E-01            NaN
         13   -1    0    0    0    0  0.00000000000E+00  0.00000000000E+00  0.74505805969E-08  0.10566000000E+00  0.10566000000E+00 0.  1.
     999900   -1    0    0    0    0 -0.00000000000E+00 -0.00000000000E+00 -0.74505805969E-08  0.93827000000E+00  0.93827000000E+00 0.  1.
     999902    2    1    2    0    0  0.19425321848E-01  0.16699655064E-01  0.69600259591E-02  0.10173845000E+01  0.10170381297E+01 0.  0.
     999903    2    3    3    0    0 -0.12195001558E+00  0.94564569602E-03 -0.22127687793E-01  0.12548693306E+00  0.19612120167E-01 0.  0.
         14    1    1    2    0    0 -0.19425321848E-01 -0.16699655064E-01 -0.69600259591E-02  0.26545499986E-01  0.00000000000E+00 0.  1.
     999901    1    3    3    0    0  0.14137533742E+00  0.15754009368E-01  0.29087713752E-01  0.89189756695E+00  0.88000000000E+00 0.  1.
        -11    1    4    4    0    0 -0.85920862664E-01 -0.24148424745E-02 -0.24016875905E-01  0.89248515698E-01  0.51100000000E-03 0.  1.
         11    1    4    4    0    0 -0.36029152913E-01  0.33604881706E-02  0.18891881118E-02  0.36238417365E-01  0.51100000000E-03 0. -1.
</event>
<event>
 8    1  0.1112958E+005  0.1043930E+01  0.7957747E-01            NaN
         13   -1    0    0    0    0  0.00000000000E+00  0.00000000000E+00  0.74505805969E-08  0.10566000000E+00  0.10566000000E+00 0. -1.
     999900   -1    0    0    0    0 -0.00000000000E+00 -0.00000000000E+00 -0.74505805969E-08  0.93827000000E+00  0.93827000000E+00 0. -1.
     999902    2    1    2    0    0  0.18315718404E-01 -0.14800955493E-01 -0.69853291286E-03  0.10203710999E+01  0.10200990931E+01 0.  0.
     999903    2    3    3    0    0 -0.11118581530E+00 -0.51567197818E-03  0.55975145482E-01  0.12897521573E+00  0.33746672699E-01 0.  0.
         14    1    1    2    0    0 -0.18315718404E-01  0.14800955493E-01  0.69853291286E-03  0.23558900068E-01  0.00000000000E+00 0. -1.
     999901    1    3    3    0    0  0.12950153370E+00 -0.14285283515E-01 -0.56673678395E-01  0.89139588421E+00  0.88000000000E+00 0. -1.
        -11    1    4    4    0    0 -0.80217961354E-01  0.11910671693E-01  0.29220315994E-01  0.86202513953E-01  0.51100000000E-03 0. -1.
         11    1    4    4    0    0 -0.30967853947E-01 -0.12426343671E-01  0.26754829488E-01  0.42772701774E-01  0.51100000000E-03 0.  1.
</event>
<event>
 8    1  0.1112958E+005  0.1043930E+01  0.7957747E-01            NaN
         13   -1    0    0    0    0  0.00000000000E+00  0.00000000000E+00  0.74505805969E-08  0.10566000000E+00  0.10566000000E+00 0.  1.
     999900   -1    0    0    0    0 -0.00000000000E+00 -0.00000000000E+00 -0.74505805969E-08  0.93827000000E+00  0.93827000000E+00 0.  1.
     999902    2    1    2    0    0  0.19479654957E-01  0.79999271373E-03  0.13074036841E-01  0.10204560275E+01  0.10201860010E+01 0.  0.
     999903    2    3    3    0    0  0.74058067498E-01 -0.99604515415E-01 -0.38953298829E-01  0.13154280787E+00  0.19506254415E-01 0.  0.
         14    1    1    2    0    0 -0.19479654957E-01 -0.79999271373E-03 -0.13074036841E-01  0.23473972500E-01  0.00000000000E+00 0. -1.
     999901    1    3    3    0    0 -0.54578412541E-01  0.10040450813E+00  0.52027335670E-01  0.88891321963E+00  0.88000000000E+00 0. -1.
        -11    1    4    4    0    0  0.10954836157E-01 -0.28696638240E-01 -0.94689853870E-02  0.32146979435E-01  0.51100000000E-03 0.  1.
         11    1    4    4    0    0  0.63103231342E-01 -0.70907877175E-01 -0.29484313442E-01  0.99395828440E-01  0.51100000000E-03 0. -1.
</event>
<event>
 8    1  0.1112958E+005  0.1043930E+01  0.7957747E-01            NaN
         13   -1    0    0    0    0  0.00000000000E+00  0.00000000000E+00  0.74505805969E-08  0.10566000000E+00  0.10566000000E+00 0.  1.
     999900   -1    0    0    0    0 -0.00000000000E+00 -0.00000000000E+00 -0.74505805969E-08  0.93827000000E+00  0.93827000000E+00 0.  1.
     999902    2    1    2    0    0  0.98375290990E-02  0.94022112708E-02 -0.18923071515E-01  0.10206220359E+01  0.10203558590E+01 0.  0.
     999903    2    3    3    0    0  0.67135844241E-01  0.10450143725E+00  0.39079992409E-01  0.13175122687E+00  0.20084023648E-01 0.  0.
         14    1    1    2    0    0 -0.98375290990E-02 -0.94022112708E-02  0.18923071515E-01  0.23307964113E-01  0.00000000000E+00 0.  1.
     999901    1    3    3    0    0 -0.57298315142E-01 -0.95099225977E-01 -0.58003063923E-01  0.88887080902E+00  0.88000000000E+00 0.  1.
        -11    1    4    4    0    0  0.26944513374E-01  0.33408028893E-01  0.22322789065E-01  0.48380483959E-01  0.51100000000E-03 0. -1.
         11    1    4    4    0    0  0.40191330867E-01  0.71093408355E-01  0.16757203343E-01  0.83370742910E-01  0.51100000000E-03 0.  1.
</event>
<event>
 8    1  0.1112958E+005  0.1043930E+01  0.7957747E-01            NaN
         13   -1    0    0    0    0  0.00000000000E+00  0.00000000000E+00  0.74505805969E-08  0.10566000000E+00  0.10566000000E+00 0. -1.
     999900   -1    0    0    0    0 -0.00000000000E+00 -0.00000000000E+00 -0.74505805969E-08  0.93827000000E+00  0.93827000000E+00 0.  1.
     999902    2    1    2    0    0  0.52839057613E-02  0.21192037881E-01 -0.91269569744E-02  0.10202588472E+01  0.10199842116E+01 0.  0.
     999903    2    3    3    0    0  0.35267362400E-01  0.72746290389E-01 -0.10366298728E+00  0.13318843873E+00  0.21385407725E-01 0.  0.
         14    1    1    2    0    0 -0.52839057613E-02 -0.21192037881E-01  0.91269569744E-02  0.23671152765E-01  0.00000000000E+00 0. -1.
     999901    1    3    3    0    0 -0.29983456639E-01 -0.51554252508E-01  0.94536030302E-01  0.88707040851E+00  0.88000000000E+00 0. -1.
        -11    1    4    4    0    0  0.15167576469E-01  0.41527822232E-01 -0.40718238440E-01  0.60107000074E-01  0.51100000000E-03 0.  1.
         11    1    4    4    0    0  0.20099785932E-01  0.31218468157E-01 -0.62944748837E-01  0.73081438654E-01  0.51100000000E-03 0. -1.
</event>
<event>
 8    1  0.1112958E+005  0.1043930E+01  0.7957747E-01            NaN
         13   -1    0    0    0    0  0.00000000000E+00  0.00000000000E+00  0.74505805969E-08  0.10566000000E+00  0.10566000000E+00 0. -1.
     999900   -1    0    0    0    0 -0.00000000000E+00 -0.00000000000E+00 -0.74505805969E-08  0.93827000000E+00  0.93827000000E+00 0. -1.
     999902    2    1    2    0    0 -0.58635784071E-02 -0.65386392982E-02 -0.23677392498E-01  0.10186762028E+01  0.10183631238E+01 0.  0.
     999903    2    3    3    0    0  0.24603549501E-02 -0.12037716065E+00 -0.47329664668E-01  0.13098936234E+00  0.20528071907E-01 0.  0.
         14    1    1    2    0    0  0.58635784071E-02  0.65386392982E-02  0.23677392498E-01  0.25253797162E-01  0.00000000000E+00 0. -1.
     999901    1    3    3    0    0 -0.83239333572E-02  0.11383852135E+00  0.23652272171E-01  0.88768684050E+00  0.88000000000E+00 0.  1.
        -11    1    4    4    0    0 -0.15627979295E-02 -0.89997587946E-01 -0.26149676983E-01  0.93734064783E-01  0.51100000000E-03 0.  1.
         11    1    4    4    0    0  0.40231528795E-02 -0.30379572706E-01 -0.21179987686E-01  0.37255297559E-01  0.51100000000E-03 0. -1.
</event>
<event>
 8    1  0.1112958E+005  0.1043930E+01  0.7957747E-01            NaN
         13   -1    0    0    0    0  0.00000000000E+00  0.00000000000E+00  0.74505805969E-08  0.10566000000E+00  0.10566000000E+00 0. -1.
     999900   -1    0    0    0    0 -0.00000000000E+00 -0.00000000000E+00 -0.74505805969E-08  0.93827000000E+00  0.93827000000E+00 0. -1.
     999902    2    1    2    0    0 -0.17270071354E-01  0.69436241832E-02  0.13341434369E-01  0.10210288395E+01  0.10207719765E+01 0.  0.
     999903    2    3    3    0    0 -0.51009267407E-01 -0.10760316616E+00  0.53533718480E-01  0.13205486899E+00  0.19805117538E-01 0.  0.
         14    1    1    2    0    0  0.17270071354E-01 -0.69436241832E-02 -0.13341434369E-01  0.22901160503E-01  0.00000000000E+00 0.  1.
     999901    1    3    3    0    0  0.33739196053E-01  0.11454679035E+00 -0.40192284111E-01  0.88897397050E+00  0.88000000000E+00 0. -1.
        -11    1    4    4    0    0 -0.49525087629E-02 -0.26884668660E-01  0.75469256163E-02  0.28364237329E-01  0.51100000000E-03 0. -1.
         11    1    4    4    0    0 -0.46056758644E-01 -0.80718497505E-01  0.45986792863E-01  0.10369063167E+00  0.51100000000E-03 0.  1.
</event>
<event>
 8    1  0.1112958E+005  0.1043930E+01  0.7957747E-01            NaN
         13   -1    0    0    0    0  0.00000000000E+00  0.00000000000E+00  0.74505805969E-08  0.10566000000E+00  0.10566000000E+00 0.  1.
     999900   -1    0    0    0    0 -0.00000000000E+00 -0.00000000000E+00 -0.74505805969E-08  0.93827000000E+00  0.93827000000E+00 0. -1.
     999902    2    1    2    0    0 -0.10962284107E-01  0.20669735590E-01 -0.12999850736E-02  0.10204971256E+01  0.10202280548E+01 0.  0.
     999903    2    3    3    0    0  0.26532747758E-01 -0.16443848888E-01 -0.12497950259E+00  0.13028371374E+00  0.19482893230E-01 0.  0.
         14    1    1    2    0    0  0.10962284107E-01 -0.20669735590E-01  0.12999850736E-02  0.23432874416E-01  0.00000000000E+00 0.  1.
     999901    1    3    3    0    0 -0.37495031865E-01  0.37113584479E-01  0.12367951752E+00  0.89021341184E+00  0.88000000000E+00 0.  1.
        -11    1    4    4    0    0  0.12018536152E-01 -0.36200289021E-02 -0.84243705727E-01  0.85175189439E-01  0.51100000000E-03 0. -1.
         11    1    4    4    0    0  0.14514211605E-01 -0.12823819986E-01 -0.40735796866E-01  0.45108524304E-01  0.51100000000E-03 0.  1.
</event>
<event>
 8    1  0.1112958E+005  0.1043930E+01  0.7957747E-01            NaN
         13   -1    0    0    0    0  0.00000000000E+00  0.00000000000E+00  0.74505805969E-08  0.10566000000E+00  0.10566000000E+00 0.  1.
     999900   -1    0    0    0    0 -0.00000000000E+00 -0.00000000000E+00 -0.74505805969E-08  0.93827000000E+00  0.93827000000E+00 0. -1.
     999902    2    1    2    0    0 -0.80370269717E-02 -0.12479356189E-01 -0.16819104092E-01  0.10214976485E+01  0.10212513086E+01 0.  0.
     999903    2    3    3    0    0 -0.77750086385E-01  0.10633694745E-01 -0.10664878336E+00  0.13388089836E+00  0.19798498806E-01 0.  0.
         14    1    1    2    0    0  0.80370269717E-02  0.12479356189E-01  0.16819104092E-01  0.22432351546E-01  0.00000000000E+00 0.  1.
     999901    1    3    3    0    0  0.69713059413E-01 -0.23113050933E-01  0.89829679271E-01  0.88761675010E+00  0.88000000000E+00 0.  1.
        -11    1    4    4    0    0 -0.40692344779E-01 -0.10071062604E-02 -0.66828834713E-01  0.78251105147E-01  0.51100000000E-03 0. -1.
         11    1    4    4    0    0 -0.37057741606E-01  0.11640801005E-01 -0.39819948651E-01  0.55629793209E-01  0.51100000000E-03 0.  1.
</event>
<event>
 8    1  0.1112958E+005  0.1043930E+01  0.7957747E-01            NaN
         13   -1    0    0    0    0  0.00000000000E+00  0.00000000000E+00  0.74505805969E-08  0.10566000000E+00  0.10566000000E+00 0. -1.
     999900   -1    0    0    0    0 -0.00000000000E+00 -0.00000000000E+00 -0.74505805969E-08  0.93827000000E+00  0.93827000000E+00 0.  1.
     999902    2    1    2    0    0 -0.21461972850E-01 -0.96790628100E-02  0.34282056633E-02  0.10201381289E+01  0.10198606517E+01 0.  0.
     999903    2    3    3    0    0 -0.10350568335E+00 -0.48601134418E-02 -0.79808965454E-01  0.13239784068E+00  0.20558941148E-01 0.  0.
         14    1    1    2    0    0  0.21461972850E-01  0.96790628100E-02 -0.34282056633E-02  0.23791871082E-01  0.00000000000E+00 0. -1.
     999901    1    3    3    0    0  0.82043710501E-01 -0.48189493683E-02  0.83237171118E-01  0.88774028824E+00  0.88000000000E+00 0. -1.
        -11    1    4    4    0    0 -0.17684023689E-01  0.44798945959E-02 -0.72935840568E-02  0.19653285700E-01  0.51100000000E-03 0.  1.
         11    1    4    4    0    0 -0.85821659662E-01 -0.93400080377E-02 -0.72515381398E-01  0.11274455498E+00  0.51100000000E-03 0. -1.
</event>
<event>
 8    1  0.1112958E+005  0.1043930E+01  0.7957747E-01            NaN
         13   -1    0    0    0    0  0.00000000000E+00  0.00000000000E+00  0.74505805969E-08  0.10566000000E+00  0.10566000000E+00 0. -1.
     999900   -1    0    0    0    0 -0.00000000000E+00 -0.00000000000E+00 -0.74505805969E-08  0.93827000000E+00  0.93827000000E+00 0.  1.
     999902    2    1    2    0    0  0.25495135697E-01 -0.27456578955E-03  0.54483908160E-02  0.10178577486E+01  0.10175237757E+01 0.  0.
     999903    2    3    3    0    0 -0.96933060244E-01  0.25033040504E-01  0.74440132992E-01  0.12634835516E+00  0.19997554030E-01 0.  0.
         14    1    1    2    0    0 -0.25495135697E-01  0.27456578955E-03 -0.54483908160E-02  0.26072251400E-01  0.00000000000E+00 0. -1.
     999901    1    3    3    0    0  0.12242819594E+00 -0.25307606293E-01 -0.68991742176E-01  0.89150939344E+00  0.88000000000E+00 0.  1.
        -11    1    4    4    0    0 -0.55047538337E-01  0.24344237531E-01  0.43325442371E-01  0.74163525103E-01  0.51100000000E-03 0.  1.
         11    1    4    4    0    0 -0.41885521907E-01  0.68880297303E-03  0.31114690621E-01  0.52184830060E-01  0.51100000000E-03 0. -1.
</event>
<event>
 8    1  0.1112958E+005  0.1043930E+01  0.7957747E-01            NaN
         13   -1    0    0    0    0  0.00000000000E+00  0.00000000000E+00  0.74505805969E-08  0.10566000000E+00  0.10566000000E+00 0. -1.
     999900   -1    0    0    0    0 -0.00000000000E+00 -0.00000000000E+00 -0.74505805969E-08  0.93827000000E+00  0.93827000000E+00 0.  1.
     999902    2    1    2    0    0  0.10773147793E-01 -0.16118272773E-01 -0.14364562716E-01  0.10198011771E+01  0.10195156893E+01 0.  0.
     999903    2    3    3    0    0 -0.42018648632E-01  0.94572742393E-01  0.71152399663E-01  0.12719116966E+00  0.20133534809E-01 0.  0.
         14    1    1    2    0    0 -0.10773147793E-01  0.16118272773E-01  0.14364562716E-01  0.24128822859E-01  0.00000000000E+00 0. -1.
     999901    1    3    3    0    0  0.52791796425E-01 -0.11069101517E+00 -0.85516962379E-01  0.89261000749E+00  0.88000000000E+00 0.  1.
        -11    1    4    4    0    0 -0.24093136003E-01  0.30933896689E-01  0.23864497194E-01  0.45903818078E-01  0.51100000000E-03 0.  1.
         11    1    4    4    0    0 -0.17925512630E-01  0.63638845704E-01  0.47287902469E-01  0.81287351578E-01  0.51100000000E-03 0. -1.
</event>
<event>
 8    1  0.1112958E+005  0.1043930E+01  0.7957747E-01            NaN
         13   -1    0    0    0    0  0.00000000000E+00  0.00000000000E+00  0.74505805969E-08  0.10566000000E+00  0.10566000000E+00 0. -1.
     999900   -1    0    0    0    0 -0.00000000000E+00 -0.00000000000E+00 -0.74505805969E-08  0.93827000000E+00  0.93827000000E+00 0. -1.
     999902    2    1    2    0    0  0.45746594505E-02 -0.21257996249E-01  0.59636312723E-02  0.10213823879E+01  0.10211334817E+01 0.  0.
     999903    2    3    3    0    0 -0.13385566155E-01  0.88960342785E-01 -0.90329088805E-01  0.12911396421E+00  0.20443960006E-01 0.  0.
         14    1    1    2    0    0 -0.45746594505E-02  0.21257996249E-01 -0.59636312723E-02  0.22547612103E-01  0.00000000000E+00 0.  1.
     999901    1    3    3    0    0  0.17960225605E-01 -0.11021833903E+00  0.96292720077E-01  0.89226842368E+00  0.88000000000E+00 0.  1.
        -11    1    4    4    0    0 -0.12798509973E-01  0.46867347422E-01 -0.36459055346E-01  0.60744332654E-01  0.51100000000E-03 0.  1.
         11    1    4    4    0    0 -0.58705618172E-03  0.42092995363E-01 -0.53870033459E-01  0.68369631559E-01  0.51100000000E-03 0. -1.
</event>
<event>
 7    1  0.1112958E+005  0.1043930E+01  0.7957747E-01            NaN
         13   -1    0    0    0    0  0.00000000000E+00  0.00000000000E+00  0.74505805969E-08  0.10566000000E+00  0.10566000000E+00 0. -1.
     999900   -1    0    0    0    0 -0.00000000000E+00 -0.00000000000E+00 -0.74505805969E-08  0.93827000000E+00  0.93827000000E+00 0. -1.
     999903    2    1    2    0    0 -0.20357102235E-01  0.15625921067E-01 -0.81732300686E-01  0.87923849443E-01  0.19795284916E-01 0.  0.
         14    1    1    2    0    0 -0.18540238234E-01  0.60594855994E-02  0.72242011944E-01  0.74828912121E-01  0.00000000000E+00 0. -1.
     999901    1    1    2    0    0  0.38897340469E-01 -0.21685406666E-01  0.94902887421E-02  0.88117723844E+00  0.88000000000E+00 0.  1.
        -11    1    3    3    0    0  0.12167263573E-02  0.49014106280E-02 -0.37717312952E-02  0.63238696331E-02  0.51100000000E-03 0. -1.
         11    1    3    3    0    0 -0.21573828592E-01  0.10724510439E-01 -0.77960569391E-01  0.81599979810E-01  0.51100000000E-03 0.  1.
</event>
<event>
 8    1  0.1112958E+005  0.1043930E+01  0.7957747E-01            NaN
         13   -1    0    0    0    0  0.00000000000E+00  0.00000000000E+00  0.74505805969E-08  0.10566000000E+00  0.10566000000E+00 0.  1.
     999900   -1    0    0    0    0 -0.00000000000E+00 -0.00000000000E+00 -0.74505805969E-08  0.93827000000E+00  0.93827000000E+00 0. -1.
     999902    2    1    2    0    0 -0.23974044423E-02  0.18256580090E-01  0.14761697529E-01  0.10203300428E+01  0.10200570760E+01 0.  0.
     999903    2    3    3    0    0 -0.12104853255E+00  0.24948057677E-01 -0.37725953495E-01  0.13079206186E+00  0.20203045939E-01 0.  0.
         14    1    1    2    0    0  0.23974044423E-02 -0.18256580090E-01 -0.14761697529E-01  0.23599957174E-01  0.00000000000E+00 0. -1.
     999901    1    3    3    0    0  0.11865112810E+00 -0.66914775862E-02  0.52487651024E-01  0.88953798097E+00  0.88000000000E+00 0. -1.
        -11    1    4    4    0    0 -0.30352123719E-01 -0.19229839844E-02 -0.12548905183E-01  0.32904185508E-01  0.51100000000E-03 0.  1.
         11    1    4    4    0    0 -0.90696408826E-01  0.26871041661E-01 -0.25177048312E-01  0.97887876351E-01  0.51100000000E-03 0. -1.
</event>
<event>
 8    1  0.1112958E+005  0.1043930E+01  0.7957747E-01            NaN
         13   -1    0    0    0    0  0.00000000000E+00  0.00000000000E+00  0.74505805969E-08  0.10566000000E+00  0.10566000000E+00 0. -1.
     999900   -1    0    0    0    0 -0.00000000000E+00 -0.00000000000E+00 -0.74505805969E-08  0.93827000000E+00  0.93827000000E+00 0.  1.
     999902    2    1    2    0    0  0.96300507860E-02 -0.21326620890E-01  0.15159112143E-02  0.10204808929E+01  0.10202114448E+01 0.  0.
     999903    2    3    3    0    0 -0.61437502755E-01 -0.59725087393E-01 -0.97471852851E-01  0.13125447808E+00  0.19629648694E-01 0.  0.
         14    1    1    2    0    0 -0.96300507860E-02  0.21326620890E-01 -0.15159112143E-02  0.23449107094E-01  0.00000000000E+00 0.  1.
     999901    1    3    3    0    0  0.71067553541E-01  0.38398466504E-01  0.98987764066E-01  0.88922641483E+00  0.88000000000E+00 0. -1.
        -11    1    4    4    0    0 -0.37090039912E-01 -0.45323178343E-01 -0.55857388391E-01  0.80933123717E-01  0.51100000000E-03 0. -1.
         11    1    4    4    0    0 -0.24347462843E-01 -0.14401909050E-01 -0.41614464461E-01  0.50321354359E-01  0.51100000000E-03 0.  1.
</event>
<event>
 8    1  0.1112958E+005  0.1043930E+01  0.7957747E-01            NaN
         13   -1    0    0    0    0  0.00000000000E+00  0.00000000000E+00  0.74505805969E-08  0.10566000000E+00  0.10566000000E+00 0.  1.
     999900   -1    0    0    0    0 -0.00000000000E+00 -0.00000000000E+00 -0.74505805969E-08  0.93827000000E+00  0.93827000000E+00 0. -1.
     999902    2    1    2    0    0  0.15381624800E-02  0.36756307680E-03  0.23660245745E-01  0.10202169598E+01  0.10199413399E+01 0.  0.
     999903    2    3    3    0    0 -0.92945939910E-01 -0.89055490469E-01  0.12126733813E-01  0.13057840961E+00  0.18271159069E-01 0.  0.
         14    1    1    2    0    0 -0.15381624800E-02 -0.36756307680E-03 -0.23660245745E-01  0.23713040192E-01  0.00000000000E+00 0. -1.
     999901    1    3    3    0    0  0.94484102390E-01  0.89423053546E-01  0.11533511932E-01  0.88963855020E+00  0.88000000000E+00 0.  1.
        -11    1    4    4    0    0 -0.48836043581E-01 -0.43093299232E-01  0.14888124183E-01  0.66812491003E-01  0.51100000000E-03 0.  1.
         11    1    4    4    0    0 -0.44109896328E-01 -0.45962191237E-01 -0.27613903697E-02  0.63765918602E-01  0.51100000000E-03 0. -1.
</event>
<event>
 8    1  0.1112958E+005  0.1043930E+01  0.7957747E-01            NaN
         13   -1    0    0    0    0  0.00000000000E+00  0.00000000000E+00  0.74505805969E-08  0.10566000000E+00  0.10566000000E+00 0.  1.
     999900   -1    0    0    0    0 -0.00000000000E+00 -0.00000000000E+00 -0.74505805969E-08  0.93827000000E+00  0.93827000000E+00 0.  1.
     999902    2    1    2    0    0 -0.80603287585E-02 -0.10109470803E-01 -0.62118718257E-02  0.10295857450E+01  0.10294858176E+01 0.  0.
     999903    2    3    3    0    0  0.87163915888E-01  0.15200440431E-01  0.10319958275E+00  0.13735308770E+00  0.19675243313E-01 0.  0.
         14    1    1    2    0    0  0.80603287585E-02  0.10109470803E-01  0.62118718257E-02  0.14344254989E-01  0.00000000000E+00 0. -1.
     999901    1    3    3    0    0 -0.95224244647E-01 -0.25309911234E-01 -0.10941145458E+00  0.89223265731E+00  0.88000000000E+00 0.  1.
        -11    1    4    4    0    0  0.36211931836E-01 -0.26886719846E-03  0.52845032546E-01  0.64064302717E-01  0.51100000000E-03 0.  1.
         11    1    4    4    0    0  0.50951984052E-01  0.15469307629E-01  0.50354550204E-01  0.73288784985E-01  0.51100000000E-03 0. -1.
</event>
<event>
 8    1  0.1112958E+005  0.1043930E+01  0.7957747E-01            NaN
         13   -1    0    0    0    0  0.00000000000E+00  0.00000000000E+00  0.74505805969E-08  0.10566000000E+00  0.10566000000E+00 0.  1.
     999900   -1    0    0    0    0 -0.00000000000E+00 -0.00000000000E+00 -0.74505805969E-08  0.93827000000E+00  0.93827000000E+00 0. -1.
     999902    2    1    2    0    0  0.21827407181E-01  0.86806960627E-02 -0.48626538979E-02  0.10199417614E+01  0.10196596300E+01 0.  0.
     999903    2    3    3    0    0  0.16852637325E-01 -0.10382959560E+00  0.72583417336E-01  0.12939069154E+00  0.20223804741E-01 0.  0.
         14    1    1    2    0    0 -0.21827407181E-01 -0.86806960627E-02  0.48626538979E-02  0.23988238604E-01  0.00000000000E+00 0. -1.
     999901    1    3    3    0    0  0.49747698561E-02  0.11251029167E+00 -0.77446071233E-01  0.89055106985E+00  0.88000000000E+00 0. -1.
        -11    1    4    4    0    0  0.78506215289E-02 -0.68713350165E-01  0.36347622014E-01  0.78131731686E-01  0.51100000000E-03 0.  1.
         11    1    4    4    0    0  0.90020157963E-02 -0.35116245438E-01  0.36235795322E-01  0.51258959857E-01  0.51100000000E-03 0. -1.
</event>
<event>
 8    1  0.1112958E+005  0.1043930E+01  0.7957747E-01            NaN
         13   -1    0    0    0    0  0.00000000000E+00  0.00000000000E+00  0.74505805969E-08  0.10566000000E+00  0.10566000000E+00 0.  1.
     999900   -1    0    0    0    0 -0.00000000000E+00 -0.00000000000E+00 -0.74505805969E-08  0.93827000000E+00  0.93827000000E+00 0.  1.
     999902    2    1    2    0    0  0.15732609891E-01  0.12115426088E-01 -0.11948840773E-01  0.10207551568E+01  0.10204920464E+01 0.  0.
     999903    2    3    3    0    0  0.71011852968E-01  0.11098303564E+00 -0.81695848449E-02  0.13348694381E+00  0.19801631019E-01 0.  0.
         14    1    1    2    0    0 -0.15732609891E-01 -0.12115426088E-01  0.11948840773E-01  0.23174843237E-01  0.00000000000E+00 0.  1.
     999901    1    3    3    0    0 -0.55279243078E-01 -0.98867609550E-01 -0.37792559282E-02  0.88726821295E+00  0.88000000000E+00 0. -1.
        -11    1    4    4    0    0  0.44046242488E-01  0.83907927018E-01 -0.95391620250E-02  0.95246356502E-01  0.51100000000E-03 0. -1.
         11    1    4    4    0    0  0.26965610480E-01  0.27075108620E-01  0.13695771801E-02  0.38240587313E-01  0.51100000000E-03 0.  1.
</event>
<event>
 8    1  0.1112958E+005  0.1043930E+01  0.7957747E-01            NaN
         13   -1    0    0    0    0  0.00000000000E+00  0.00000000000E+00  0.74505805969E-08  0.10566000000E+00  0.10566000000E+00 0.  1.
     999900   -1    0    0    0    0 -0.00000000000E+00 -0.00000000000E+00 -0.74505805969E-08  0.93827000000E+00  0.93827000000E+00 0.  1.
     999902    2    1    2    0    0  0.21095275367E-01 -0.38414330214E-02  0.30554842736E-02  0.10222712088E+01  0.10220417414E+01 0.  0.
     999903    2    3    3    0    0 -0.55185425221E-01  0.11319413379E+00  0.31537415074E-01  0.13079642537E+00  0.15960991785E-01 0.  0.
         14    1    1    2    0    0 -0.21095275367E-01  0.38414330214E-02 -0.30554842736E-02  0.21658791162E-01  0.00000000000E+00 0. -1.
     999901    1    3    3    0    0  0.76280700588E-01 -0.11703556681E+00 -0.28481930800E-01  0.89147478347E+00  0.88000000000E+00 0. -1.
        -11    1    4    4    0    0 -0.41757113100E-01  0.75587999754E-01  0.27638093026E-01  0.90671536373E-01  0.51100000000E-03 0. -1.
         11    1    4    4    0    0 -0.13428312121E-01  0.37606134034E-01  0.38993220479E-02  0.40124888995E-01  0.51100000000E-03 0.  1.
</event>
<event>
 8    1  0.1112958E+005  0.1043930E+01  0.7957747E-01            NaN
         13   -1    0    0    0    0  0.00000000000E+00  0.00000000000E+00  0.74505805969E-08  0.10566000000E+00  0.10566000000E+00 0.  1.
     999900   -1    0    0    0    0 -0.00000000000E+00 -0.00000000000E+00 -0.74505805969E-08  0.93827000000E+00  0.93827000000E+00 0. -1.
     999902    2    1    2    0    0  0.11980489562E-01  0.35021566198E-01 -0.69538976046E-02  0.10062683627E+01  0.10055633341E+01 0.  0.
     999903    2    3    3    0    0 -0.19870672906E-01  0.11575431191E+00  0.23637516356E-01  0.12147001996E+00  0.20058145508E-01 0.  0.
         14    1    1    2    0    0 -0.11980489562E-01 -0.35021566198E-01  0.69538976046E-02  0.37661637258E-01  0.00000000000E+00 0. -1.
     999901    1    3    3    0    0  0.31851162469E-01 -0.80732745716E-01 -0.30591413960E-01  0.88479834278E+00  0.88000000000E+00 0.  1.
        -11    1    4    4    0    0 -0.15814376556E-01  0.38560777409E-01  0.52372764079E-02  0.42008549671E-01  0.51100000000E-03 0. -1.
         11    1    4    4    0    0 -0.40562963502E-02  0.77193534504E-01  0.18400239948E-01  0.79461470289E-01  0.51100000000E-03 0.  1.
</event>
<event>
 8    1  0.1112958E+005  0.1043930E+01  0.7957747E-01            NaN
         13   -1    0    0    0    0  0.00000000000E+00  0.00000000000E+00  0.74505805969E-08  0.10566000000E+00  0.10566000000E+00 0.  1.
     999900   -1    0    0    0    0 -0.00000000000E+00 -0.00000000000E+00 -0.74505805969E-08  0.93827000000E+00  0.93827000000E+00 0.  1.
     999902    2    1    2    0    0  0.20459590480E-01  0.11455122109E-01  0.27784489680E-02  0.10203178327E+01  0.10200445801E+01 0.  0.
     999903    2    3    3    0    0 -0.51012242847E-01 -0.62274093409E-01  0.98987730101E-01  0.12913858814E+00  0.19947245605E-01 0.  0.
         14    1    1    2    0    0 -0.20459590480E-01 -0.11455122109E-01 -0.27784489680E-02  0.23612167283E-01  0.00000000000E+00 0. -1.
     999901    1    3    3    0    0  0.71471833328E-01  0.73729215518E-01 -0.96209281133E-01  0.89117924457E+00  0.88000000000E+00 0.  1.
        -11    1    4    4    0    0 -0.59524713815E-02 -0.20790207239E-01  0.27900825805E-01  0.35304133387E-01  0.51100000000E-03 0.  1.
         11    1    4    4    0    0 -0.45059771466E-01 -0.41483886170E-01  0.71086904296E-01  0.93834454758E-01  0.51100000000E-03 0. -1.
</event>
<event>
 8    1  0.1112958E+005  0.1043930E+01  0.7957747E-01            NaN
         13   -1    0    0    0    0  0.00000000000E+00  0.00000000000E+00  0.74505805969E-08  0.10566000000E+00  0.10566000000E+00 0. -1.
     999900   -1    0    0    0    0 -0.00000000000E+00 -0.00000000000E+00 -0.74505805969E-08  0.93827000000E+00  0.93827000000E+00 0. -1.
     999902    2    1    2    0    0  0.37175648445E-02  0.76368242783E-02  0.22295405665E-01  0.10200715322E+01  0.10197924810E+01 0.  0.
     999903    2    3    3    0    0 -0.28178594113E-01  0.12577598824E+00 -0.19996843510E-02  0.13127207312E+00  0.24793669736E-01 0.  0.
         14    1    1    2    0    0 -0.37175648445E-02 -0.76368242783E-02 -0.22295405665E-01  0.23858467830E-01  0.00000000000E+00 0.  1.
     999901    1    3    3    0    0  0.31896158958E-01 -0.11813916396E+00  0.24295090016E-01  0.88879945905E+00  0.88000000000E+00 0.  1.
        -11    1    4    4    0    0 -0.79593956821E-02  0.40116400744E-01  0.10869475747E-01  0.42321202869E-01  0.51100000000E-03 0.  1.
         11    1    4    4    0    0 -0.20219198431E-01  0.85659587494E-01 -0.12869160098E-01  0.88950870246E-01  0.51100000000E-03 0. -1.
</event>
<event>
 8    1  0.1112958E+005  0.1043930E+01  0.7957747E-01            NaN
         13   -1    0    0    0    0  0.00000000000E+00  0.00000000000E+00  0.74505805969E-08  0.10566000000E+00  0.10566000000E+00 0. -1.
     999900   -1    0    0    0    0 -0.00000000000E+00 -0.00000000000E+00 -0.74505805969E-08  0.93827000000E+00  0.93827000000E+00 0.  1.
     999902    2    1    2    0    0  0.16025288303E-01 -0.12291550285E-02 -0.14266923173E-01  0.10224389371E+01  0.10222130474E+01 0.  0.
     999903    2    3    3    0    0 -0.20343270740E-01 -0.10784025293E+00 -0.73523081284E-01  0.13328209462E+00  0.17751181570E-01 0.  0.
         14    1    1    2    0    0 -0.16025288303E-01  0.12291550285E-02  0.14266923173E-01  0.21491062889E-01  0.00000000000E+00 0. -1.
     999901    1    3    3    0    0  0.36368559043E-01  0.10661109790E+00  0.59256158111E-01  0.88915684250E+00  0.88000000000E+00 0.  1.
        -11    1    4    4    0    0 -0.21856685462E-02 -0.49307579166E-01 -0.39258436342E-01  0.63067427847E-01  0.51100000000E-03 0. -1.
         11    1    4    4    0    0 -0.18157602194E-01 -0.58532673764E-01 -0.34264644942E-01  0.70214666769E-01  0.51100000000E-03 0.  1.
</event>
<event>
 8    1  0.1112958E+005  0.1043930E+01  0.7957747E-01            NaN
         13   -1    0    0    0    0  0.00000000000E+00  0.00000000000E+00  0.74505805969E-08  0.10566000000E+00  0.10566000000E+00 0.  1.
     999900   -1    0    0    0    0 -0.00000000000E+00 -0.00000000000E+00 -0.74505805969E-08  0.93827000000E+00  0.93827000000E+00 0. -1.
     999902    2    1    2    0    0  0.18287457018E-01 -0.16274081505E-01  0.77123186053E-04  0.10194497475E+01  0.10191557805E+01 0.  0.
     999903    2    3    3    0    0 -0.69607337664E-01  0.55396627015E-01  0.89307186278E-01  0.12769631213E+00  0.20410949729E-01 0.  0.
         14    1    1    2    0    0 -0.18287457018E-01  0.16274081505E-01 -0.77123186053E-04  0.24480252470E-01  0.00000000000E+00 0.  1.
     999901    1    3    3    0    0  0.87894794682E-01 -0.71670708521E-01 -0.89230063092E-01  0.89175343540E+00  0.88000000000E+00 0. -1.
        -11    1    4    4    0    0 -0.33007972193E-01  0.38689953611E-01  0.53788302928E-01  0.74026220974E-01  0.51100000000E-03 0. -1.
         11    1    4    4    0    0 -0.36599365471E-01  0.16706673404E-01  0.35518883349E-01  0.53670091154E-01  0.51100000000E-03 0.  1.
</event>
<event>
 7    1  0.1112958E+005  0.1043930E+01  0.7957747E-01            NaN
         13   -1    0    0    0    0  0.00000000000E+00  0.00000000000E+00  0.74505805969E-08  0.10566000000E+00  0.10566000000E+00 0. -1.
     999900   -1    0    0    0    0 -0.00000000000E+00 -0.00000000000E+00 -0.74505805969E-08  0.93827000000E+00  0.93827000000E+00 0. -1.
     999903    2    1    2    0    0 -0.62075192394E-01 -0.93050947651E-01 -0.30762631374E-01  0.11746165495E+00  0.18414465109E-01 0.  0.
         14    1    1    2    0    0 -0.17016542296E-02  0.21417251667E-01  0.35208471349E-01  0.41245978602E-01  0.00000000000E+00 0. -1.
     999901    1    1    2    0    0  0.63776846623E-01  0.71633695984E-01 -0.44458399748E-02  0.88522236645E+00  0.88000000000E+00 0.  1.
        -11    1    3    3    0    0 -0.17630439224E-01 -0.17732282801E-01 -0.13124707353E-01  0.28245093462E-01  0.51100000000E-03 0.  1.
         11    1    3    3    0    0 -0.44444753170E-01 -0.75318664850E-01 -0.17637924021E-01  0.89216561489E-01  0.51100000000E-03 0. -1.
</event>
<event>
 8    1  0.1112958E+005  0.1043930E+01  0.7957747E-01            NaN
         13   -1    0    0    0    0  0.00000000000E+00  0.00000000000E+00  0.74505805969E-08  0.10566000000E+00  0.10566000000E+00 0.  1.
     999900   -1    0    0    0    0 -0.00000000000E+00 -0.00000000000E+00 -0.74505805969E-08  0.93827000000E+00  0.93827000000E+00 0. -1.
     999902    2    1    2    0    0  0.11019284381E-01 -0.18123981407E-01 -0.74454099658E-02  0.10214502878E+01  0.10212028951E+01 0.  0.
     999903    2    3    3    0    0 -0.11739185218E+00  0.52147546162E-01 -0.37693969942E-02  0.12935106651E+00  0.14740302764E-01 0.  0.
         14    1    1    2    0    0 -0.11019284381E-01  0.18123981407E-01  0.74454099658E-02  0.22479712184E-01  0.00000000000E+00 0.  1.
     999901    1    3    3    0    0  0.12841113656E+00 -0.70271527569E-01 -0.36760129716E-02  0.89209922130E+00  0.88000000000E+00 0. -1.
        -11    1    4    4    0    0 -0.14886297701E-01  0.12288998276E-01 -0.27378807320E-03  0.19312105499E-01  0.51100000000E-03 0.  1.
         11    1    4    4    0    0 -0.10250555448E+00  0.39858547885E-01 -0.34956089210E-02  0.11003896101E+00  0.51100000000E-03 0. -1.
</event>
<event>
 8    1  0.1112958E+005  0.1043930E+01  0.7957747E-01            NaN
         13   -1    0    0    0    0  0.00000000000E+00  0.00000000000E+00  0.74505805969E-08  0.10566000000E+00  0.10566000000E+00 0. -1.
     999900   -1    0    0    0    0 -0.00000000000E+00 -0.00000000000E+00 -0.74505805969E-08  0.93827000000E+00  0.93827000000E+00 0.  1.
     999902    2    1    2    0    0  0.16395614263E-01  0.14295530220E-01  0.76186610599E-02  0.10208817387E+01  0.10206215274E+01 0.  0.
     999903    2    3    3    0    0  0.59431390725E-02 -0.11079356420E+00 -0.63032512295E-01  0.12917095373E+00  0.20037537575E-01 0.  0.
         14    1    1    2    0    0 -0.16395614263E-01 -0.14295530220E-01 -0.76186610599E-02  0.23048261272E-01  0.00000000000E+00 0.  1.
     999901    1    3    3    0    0  0.10452475190E-01  0.12508909442E+00  0.70651173355E-01  0.89171078500E+00  0.88000000000E+00 0.  1.
        -11    1    4    4    0    0 -0.45095817783E-02 -0.64684924727E-01 -0.29704407578E-01  0.71323830277E-01  0.51100000000E-03 0. -1.
         11    1    4    4    0    0  0.10452720851E-01 -0.46108639471E-01 -0.33328104717E-01  0.57847123456E-01  0.51100000000E-03 0.  1.
</event>
<event>
 8    1  0.1112958E+005  0.1043930E+01  0.7957747E-01            NaN
         13   -1    0    0    0    0  0.00000000000E+00  0.00000000000E+00  0.74505805969E-08  0.10566000000E+00  0.10566000000E+00 0. -1.
     999900   -1    0    0    0    0 -0.00000000000E+00 -0.00000000000E+00 -0.74505805969E-08  0.93827000000E+00  0.93827000000E+00 0.  1.
     999902    2    1    2    0    0  0.15206862108E-01  0.80185833426E-02 -0.16294306230E-01  0.10202434901E+01  0.10199684938E+01 0.  0.
     999903    2    3    3    0    0  0.44595541131E-01  0.12206764042E+00 -0.15193892118E-01  0.13239660425E+00  0.20217203862E-01 0.  0.
         14    1    1    2    0    0 -0.15206862108E-01 -0.80185833426E-02  0.16294306230E-01  0.23686509864E-01  0.00000000000E+00 0.  1.
     999901    1    3    3    0    0 -0.29388679022E-01 -0.11404905708E+00 -0.11004141125E-02  0.88784688589E+00  0.88000000000E+00 0. -1.
        -11    1    4    4    0    0  0.23454338647E-01  0.41391013406E-01  0.24334417977E-03  0.47577750362E-01  0.51100000000E-03 0.  1.
         11    1    4    4    0    0  0.21141202484E-01  0.80676627012E-01 -0.15437236298E-01  0.84818853883E-01  0.51100000000E-03 0. -1.
</event>
<event>
 8    1  0.1112958E+005  0.1043930E+01  0.7957747E-01            NaN
         13   -1    0    0    0    0  0.00000000000E+00  0.00000000000E+00  0.74505805969E-08  0.10566000000E+00  0.10566000000E+00 0.  1.
     999900   -1    0    0    0    0 -0.00000000000E+00 -0.00000000000E+00 -0.74505805969E-08  0.93827000000E+00  0.93827000000E+00 0.  1.
     999902    2    1    2    0    0 -0.37527110454E-02  0.14077715593E-01  0.16744117377E-01  0.10217347216E+01  0.10214936177E+01 0.  0.
     999903    2    3    3    0    0 -0.16808332174E-01  0.12420112503E+00 -0.39858316720E-01  0.13297072025E+00  0.19598151515E-01 0.  0.
         14    1    1    2    0    0  0.37527110454E-02 -0.14077715593E-01 -0.16744117377E-01  0.22195278400E-01  0.00000000000E+00 0. -1.
     999901    1    3    3    0    0  0.13055621129E-01 -0.11012340944E+00  0.56602434097E-01  0.88876400135E+00  0.88000000000E+00 0.  1.
        -11    1    4    4    0    0  0.20286959959E-02  0.33470586041E-01 -0.16651198974E-01  0.37442212617E-01  0.51100000000E-03 0.  1.
         11    1    4    4    0    0 -0.18837028170E-01  0.90730538990E-01 -0.23207117746E-01  0.95528507634E-01  0.51100000000E-03 0. -1.
</event>
<event>
 8    1  0.1112958E+005  0.1043930E+01  0.7957747E-01            NaN
         13   -1    0    0    0    0  0.00000000000E+00  0.00000000000E+00  0.74505805969E-08  0.10566000000E+00  0.10566000000E+00 0.  1.
     999900   -1    0    0    0    0 -0.00000000000E+00 -0.00000000000E+00 -0.74505805969E-08  0.93827000000E+00  0.93827000000E+00 0.  1.
     999902    2    1    2    0    0 -0.18932312288E-01 -0.51117687123E-03 -0.14942636784E-01  0.10198058183E+01  0.10195204416E+01 0.  0.
     999903    2    3    3    0    0 -0.87084200700E-01 -0.20692826361E-01  0.92613208177E-01  0.13041263263E+00  0.20454763407E-01 0.  0.
         14    1    1    2    0    0  0.18932312288E-01  0.51117687123E-03  0.14942636784E-01  0.24124181735E-01  0.00000000000E+00 0.  1.
     999901    1    3    3    0    0  0.68151888412E-01  0.20181649490E-01 -0.10755584496E+00  0.88939318564E+00  0.88000000000E+00 0.  1.
        -11    1    4    4    0    0 -0.23369456253E-01 -0.89664738530E-02  0.38876429605E-01  0.46240318325E-01  0.51100000000E-03 0.  1.
         11    1    4    4    0    0 -0.63714744446E-01 -0.11726352508E-01  0.53736778572E-01  0.84172314304E-01  0.51100000000E-03 0. -1.
</event>
<event>
 8    1  0.1112958E+005  0.1043930E+01  0.7957747E-01            NaN
         13   -1    0    0    0    0  0.00000000000E+00  0.00000000000E+00  0.74505805969E-08  0.10566000000E+00  0.10566000000E+00 0. -1.
     999900   -1    0    0    0    0 -0.00000000000E+00 -0.00000000000E+00 -0.74505805969E-08  0.93827000000E+00  0.93827000000E+00 0. -1.
     999902    2    1    2    0    0 -0.13345650265E-01 -0.19468604630E-01  0.58132878044E-02  0.10196210045E+01  0.10193311854E+01 0.  0.
     999903    2    3    3    0    0  0.93169390794E-01  0.40833864469E-01 -0.74218260657E-01  0.12755212235E+00  0.20328645603E-01 0.  0.
         14    1    1    2    0    0  0.13345650265E-01  0.19468604630E-01 -0.58132878044E-02  0.24308995503E-01  0.00000000000E+00 0.  1.
     999901    1    3    3    0    0 -0.10651504106E+00 -0.60302469100E-01  0.80031548461E-01  0.89206888215E+00  0.88000000000E+00 0.  1.
        -11    1    4    4    0    0  0.45588291371E-01  0.29676604301E-01 -0.33067943401E-01  0.63661158917E-01  0.51100000000E-03 0.  1.
         11    1    4    4    0    0  0.47581099423E-01  0.11157260169E-01 -0.41150317256E-01  0.63890963431E-01  0.51100000000E-03 0. -1.
</event>
<event>
 8    1  0.1112958E+005  0.1043930E+01  0.7957747E-01            NaN
         13   -1    0    0    0    0  0.00000000000E+00  0.00000000000E+00  0.74505805969E-08  0.10566000000E+00  0.10566000000E+00 0. -1.
     999900   -1    0    0    0    0 -0.00000000000E+00 -0.00000000000E+00 -0.74505805969E-08  0.93827000000E+00  0.93827000000E+00 0.  1.
     999902    2    1    2    0    0 -0.20785687990E-02  0.40566126568E-02  0.23551621844E-01  0.10199413476E+01  0.10196592063E+01 0.  0.
     999903    2    3    3    0    0  0.10720978182E+00 -0.53569366318E-01  0.47495418200E-01  0.13098802909E+00  0.23204195485E-01 0.  0.
         14    1    1    2    0    0  0.20785687990E-02 -0.40566126568E-02 -0.23551621844E-01  0.23988652442E-01  0.00000000000E+00 0.  1.
     999901    1    3    3    0    0 -0.10928835062E+00  0.57625978975E-01 -0.23943796355E-01  0.88895331847E+00  0.88000000000E+00 0. -1.
        -11    1    4    4    0    0  0.31561420656E-01 -0.25010454771E-01  0.82630615857E-02  0.41111864825E-01  0.51100000000E-03 0.  1.
         11    1    4    4    0    0  0.75648361167E-01 -0.28558911547E-01  0.39232356614E-01  0.89876164262E-01  0.51100000000E-03 0. -1.
</event>
<event>
 8    1  0.1112958E+005  0.1043930E+01  0.7957747E-01            NaN
         13   -1    0    0    0    0  0.00000000000E+00  0.00000000000E+00  0.74505805969E-08  0.10566000000E+00  0.10566000000E+00 0.  1.
     999900   -1    0    0    0    0 -0.00000000000E+00 -0.00000000000E+00 -0.74505805969E-08  0.93827000000E+00  0.93827000000E+00 0.  1.
     999902    2    1    2    0    0 -0.92492720539E-02 -0.12577591559E-01 -0.18040636304E-01  0.10200718902E+01  0.10197928475E+01 0.  0.
     999903    2    3    3    0    0 -0.10041943313E-01 -0.39345782546E-01  0.12060940026E+00  0.12881379237E+00  0.19935757924E-01 0.  0.
         14    1    1    2    0    0  0.92492720539E-02  0.12577591559E-01  0.18040636304E-01  0.23858109758E-01  0.00000000000E+00 0. -1.
     999901    1    3    3    0    0  0.79267125917E-03  0.26768190987E-01 -0.13865003657E+00  0.89125809787E+00  0.88000000000E+00 0.  1.
        -11    1    4    4    0    0 -0.96270328379E-02 -0.61457878707E-02  0.40806004945E-01  0.42377371679E-01  0.51100000000E-03 0.  1.
         11    1    4    4    0    0 -0.41491047514E-03 -0.33199994675E-01  0.79803395319E-01  0.86436420695E-01  0.51100000000E-03 0. -1.
</event>
<event>
 8    1  0.1112958E+005  0.1043930E+01  0.7957747E-01            NaN
         13   -1    0    0    0    0  0.00000000000E+00  0.00000000000E+00  0.74505805969E-08  0.10566000000E+00  0.10566000000E+00 0. -1.
     999900   -1    0    0    0    0 -0.00000000000E+00 -0.00000000000E+00 -0.74505805969E-08  0.93827000000E+00  0.93827000000E+00 0.  1.
     999902    2    1    2    0    0  0.25295516703E-02 -0.23390554609E-01  0.81637806849E-03  0.10203889051E+01  0.10201173141E+01 0.  0.
     999903    2    3    3    0    0 -0.99438251670E-01 -0.57452659821E-01  0.61321215720E-01  0.13178410243E+00  0.20444660419E-01 0.  0.
         14    1    1    2    0    0 -0.25295516703E-02  0.23390554609E-01 -0.81637806849E-03  0.23541094914E-01  0.00000000000E+00 0.  1.
     999901    1    3    3    0    0  0.10196780334E+00  0.34062105212E-01 -0.60504837651E-01  0.88860480266E+00  0.88000000000E+00 0. -1.
        -11    1    4    4    0    0 -0.86656126775E-01 -0.43539908744E-01  0.45443378638E-01  0.10709981206E+00  0.51100000000E-03 0. -1.
         11    1    4    4    0    0 -0.12782124894E-01 -0.13912751077E-01  0.15877837082E-01  0.24684290363E-01  0.51100000000E-03 0.  1.
</event>
<event>
 8    1  0.1112958E+005  0.1043930E+01  0.7957747E-01            NaN
         13   -1    0    0    0    0  0.00000000000E+00  0.00000000000E+00  0.74505805969E-08  0.10566000000E+00  0.10566000000E+00 0.  1.
     999900   -1    0    0    0    0 -0.00000000000E+00 -0.00000000000E+00 -0.74505805969E-08  0.93827000000E+00  0.93827000000E+00 0. -1.
     999902    2    1    2    0    0 -0.12043593874E-01 -0.11973879050E-01  0.16465467309E-01  0.10202755385E+01  0.10200012946E+01 0.  0.
     999903    2    3    3    0    0 -0.50120616126E-01 -0.10752480479E+00  0.57645271044E-01  0.13332818088E+00  0.19487604724E-01 0.  0.
         14    1    1    2    0    0  0.12043593874E-01  0.11973879050E-01 -0.16465467309E-01  0.23654461453E-01  0.00000000000E+00 0. -1.
     999901    1    3    3    0    0  0.38077022251E-01  0.95550925739E-01 -0.41179803735E-01  0.88694735766E+00  0.88000000000E+00 0. -1.
        -11    1    4    4    0    0 -0.33419665205E-01 -0.77482294892E-01  0.50091915231E-01  0.98131753967E-01  0.51100000000E-03 0. -1.
         11    1    4    4    0    0 -0.16700950921E-01 -0.30042509897E-01  0.75533558135E-02  0.35196426915E-01  0.51100000000E-03 0.  1.
</event>
<event>
 8    1  0.1112958E+005  0.1043930E+01  0.7957747E-01            NaN
         13   -1    0    0    0    0  0.00000000000E+00  0.00000000000E+00  0.74505805969E-08  0.10566000000E+00  0.10566000000E+00 0.  1.
     999900   -1    0    0    0    0 -0.00000000000E+00 -0.00000000000E+00 -0.74505805969E-08  0.93827000000E+00  0.93827000000E+00 0. -1.
     999902    2    1    2    0    0  0.62456793782E-02 -0.22145265305E-01  0.67135690815E-02  0.10199614102E+01  0.10196797463E+01 0.  0.
     999903    2    3    3    0    0 -0.12734398200E+00 -0.13228838962E-01 -0.61423230678E-02  0.12974178886E+00  0.20092578562E-01 0.  0.
         14    1    1    2    0    0 -0.62456793782E-02  0.22145265305E-01 -0.67135690815E-02  0.23968589782E-01  0.00000000000E+00 0. -1.
     999901    1    3    3    0    0  0.13358966137E+00 -0.89164263437E-02  0.12855892149E-01  0.89021962136E+00  0.88000000000E+00 0.  1.
        -11    1    4    4    0    0 -0.83507820947E-01 -0.42938802071E-02 -0.12510723839E-01  0.84550416312E-01  0.51100000000E-03 0.  1.
         11    1    4    4    0    0 -0.43836161050E-01 -0.89349587545E-02  0.63684007717E-02  0.45191372550E-01  0.51100000000E-03 0. -1.
</event>
<event>
 8    1  0.1112958E+005  0.1043930E+01  0.7957747E-01            NaN
         13   -1    0    0    0    0  0.00000000000E+00  0.00000000000E+00  0.74505805969E-08  0.10566000000E+00  0.10566000000E+00 0.  1.
     999900   -1    0    0    0    0 -0.00000000000E+00 -0.00000000000E+00 -0.74505805969E-08  0.93827000000E+00  0.93827000000E+00 0.  1.
     999902    2    1    2    0    0 -0.15136836560E-01 -0.61693358863E-02  0.15350982461E-01  0.10215059685E+01  0.10212598134E+01 0.  0.
     999903    2    3    3    0    0  0.17813981403E-03 -0.58244850598E-01 -0.11479386368E+00  0.13027979703E+00  0.20067387003E-01 0.  0.
         14    1    1    2    0    0  0.15136836560E-01  0.61693358863E-02 -0.15350982461E-01  0.22424031502E-01  0.00000000000E+00 0. -1.
     999901    1    3    3    0    0 -0.15314976374E-01  0.52075514711E-01  0.13014484614E+00  0.89122617147E+00  0.88000000000E+00 0. -1.
        -11    1    4    4    0    0 -0.66962033680E-02 -0.43527696351E-01 -0.94667812060E-01  0.10441147088E+00  0.51100000000E-03 0. -1.
         11    1    4    4    0    0  0.68743431820E-02 -0.14717154247E-01 -0.20126051618E-01  0.25868326154E-01  0.51100000000E-03 0.  1.
</event>
<event>
 8    1  0.1112958E+005  0.1043930E+01  0.7957747E-01            NaN
         13   -1    0    0    0    0  0.00000000000E+00  0.00000000000E+00  0.74505805969E-08  0.10566000000E+00  0.10566000000E+00 0.  1.
     999900   -1    0    0    0    0 -0.00000000000E+00 -0.00000000000E+00 -0.74505805969E-08  0.93827000000E+00  0.93827000000E+00 0.  1.
     999902    2    1    2    0    0  0.20008065136E-01  0.74978229221E-02  0.87186660431E-02  0.10208528434E+01  0.10205919717E+01 0.  0.
     999903    2    3    3    0    0  0.52771759759E-01 -0.16267307523E-01 -0.11712201887E+00  0.13097975184E+00  0.19714060093E-01 0.  0.
         14    1    1    2    0    0 -0.20008065136E-01 -0.74978229221E-02 -0.87186660431E-02  0.23077156597E-01  0.00000000000E+00 0. -1.
     999901    1    3    3    0    0 -0.32763694623E-01  0.23765130445E-01  0.12584068491E+00  0.88987309156E+00  0.88000000000E+00 0. -1.
        -11    1    4    4    0    0  0.29164413498E-01  0.12949949075E-02 -0.59541238393E-01  0.66314856683E-01  0.51100000000E-03 0. -1.
         11    1    4    4    0    0  0.23607346261E-01 -0.17562302430E-01 -0.57580780477E-01  0.64664895156E-01  0.51100000000E-03 0.  1.
</event>
<event>
 8    1  0.1112958E+005  0.1043930E+01  0.7957747E-01            NaN
         13   -1    0    0    0    0  0.00000000000E+00  0.00000000000E+00  0.74505805969E-08  0.10566000000E+00  0.10566000000E+00 0. -1.
     999900   -1    0    0    0    0 -0.00000000000E+00 -0.00000000000E+00 -0.74505805969E-08  0.93827000000E+00  0.93827000000E+00 0.  1.
     999902    2    1    2    0    0 -0.66206180020E-02  0.23657284537E-01 -0.91867853673E-02  0.10177022147E+01  0.10173641930E+01 0.  0.
     999903    2    3    3    0    0  0.48939182031E-01  0.42795048328E-01 -0.11066402402E+00  0.12992365263E+00  0.20178443970E-01 0.  0.
         14    1    1    2    0    0  0.66206180020E-02 -0.23657284537E-01  0.91867853673E-02  0.26227785262E-01  0.00000000000E+00 0. -1.
     999901    1    3    3    0    0 -0.55559800033E-01 -0.19137763791E-01  0.10147723865E+00  0.88777856211E+00  0.88000000000E+00 0. -1.
        -11    1    4    4    0    0  0.66441315789E-02  0.98361723769E-02 -0.87223267802E-02  0.14738889949E-01  0.51100000000E-03 0. -1.
         11    1    4    4    0    0  0.42295050453E-01  0.32958875951E-01 -0.10194169723E+00  0.11518476268E+00  0.51100000000E-03 0.  1.
</event>
<event>
 8    1  0.1112958E+005  0.1043930E+01  0.7957747E-01            NaN
         13   -1    0    0    0    0  0.00000000000E+00  0.00000000000E+00  0.74505805969E-08  0.10566000000E+00  0.10566000000E+00 0.  1.
     999900   -1    0    0    0    0 -0.00000000000E+00 -0.00000000000E+00 -0.74505805969E-08  0.93827000000E+00  0.93827000000E+00 0. -1.
     999902    2    1    2    0    0 -0.10300435100E-01 -0.17728873560E-01  0.11466611492E-01  0.10204375523E+01  0.10201670956E+01 0.  0.
     999903    2    3    3    0    0  0.20762282154E-01  0.12494486414E+00  0.17116785641E-01  0.12838788309E+00  0.12172622416E-01 0.  0.
         14    1    1    2    0    0  0.10300435100E-01  0.17728873560E-01 -0.11466611492E-01  0.23492447724E-01  0.00000000000E+00 0. -1.
     999901    1    3    3    0    0 -0.31062717254E-01 -0.14267373770E+00 -0.56501741485E-02  0.89204966919E+00  0.88000000000E+00 0.  1.
        -11    1    4    4    0    0 -0.26196385116E-04  0.27289433158E-02 -0.12810551572E-02  0.30577837051E-02  0.51100000000E-03 0.  1.
         11    1    4    4    0    0  0.20788478539E-01  0.12221592083E+00  0.18397840798E-01  0.12533009938E+00  0.51100000000E-03 0. -1.
</event>
<event>
 8    1  0.1112958E+005  0.1043930E+01  0.7957747E-01            NaN
         13   -1    0    0    0    0  0.00000000000E+00  0.00000000000E+00  0.74505805969E-08  0.10566000000E+00  0.10566000000E+00 0.  1.
     999900   -1    0    0    0    0 -0.00000000000E+00 -0.00000000000E+00 -0.74505805969E-08  0.93827000000E+00  0.93827000000E+00 0. -1.
     999902    2    1    2    0    0 -0.21247205573E-01 -0.45952190104E-02  0.70255440334E-02  0.10210844742E+01  0.10208288717E+01 0.  0.
     999903    2    3    3    0    0  0.28022841231E-01 -0.73244770697E-01 -0.10210516147E+00  0.13032647708E+00  0.20234884839E-01 0.  0.
         14    1    1    2    0    0  0.21247205573E-01  0.45952190104E-02 -0.70255440334E-02  0.22845525850E-01  0.00000000000E+00 0. -1.
     999901    1    3    3    0    0 -0.49270046803E-01  0.68649551687E-01  0.10913070550E+00  0.89075799707E+00  0.88000000000E+00 0.  1.
        -11    1    4    4    0    0  0.21990997916E-01 -0.65876106666E-01 -0.78195468962E-01  0.10458517058E+00  0.51100000000E-03 0.  1.
         11    1    4    4    0    0  0.60318433146E-02 -0.73686640315E-02 -0.23909692508E-01  0.25741306498E-01  0.51100000000E-03 0. -1.
</event>
<event>
 8    1  0.1112958E+005  0.1043930E+01  0.7957747E-01            NaN
         13   -1    0    0    0    0  0.00000000000E+00  0.00000000000E+00  0.74505805969E-08  0.10566000000E+00  0.10566000000E+00 0. -1.
     999900   -1    0    0    0    0 -0.00000000000E+00 -0.00000000000E+00 -0.74505805969E-08  0.93827000000E+00  0.93827000000E+00 0.  1.
     999902    2    1    2    0    0 -0.11164932107E-01 -0.52866178146E-02 -0.20381287682E-01  0.10200972300E+01  0.10198187867E+01 0.  0.
     999903    2    3    3    0    0 -0.52359005353E-01 -0.69372075474E-01 -0.98910762255E-01  0.13332173650E+00  0.20914020073E-01 0.  0.
         14    1    1    2    0    0  0.11164932107E-01  0.52866178146E-02  0.20381287682E-01  0.23832769970E-01  0.00000000000E+00 0. -1.
     999901    1    3    3    0    0  0.41194073245E-01  0.64085457659E-01  0.78529474573E-01  0.88677549353E+00  0.88000000000E+00 0. -1.
        -11    1    4    4    0    0 -0.14092009419E-01 -0.29872666938E-01 -0.48726717604E-01  0.58868625676E-01  0.51100000000E-03 0.  1.
         11    1    4    4    0    0 -0.38266995933E-01 -0.39499408536E-01 -0.50184044651E-01  0.74453110821E-01  0.51100000000E-03 0. -1.
</event>
<event>
 8    1  0.1112958E+005  0.1043930E+01  0.7957747E-01            NaN
         13   -1    0    0    0    0  0.00000000000E+00  0.00000000000E+00  0.74505805969E-08  0.10566000000E+00  0.10566000000E+00 0.  1.
     999900   -1    0    0    0    0 -0.00000000000E+00 -0.00000000000E+00 -0.74505805969E-08  0.93827000000E+00  0.93827000000E+00 0. -1.
     999902    2    1    2    0    0  0.16747130509E-01  0.92820567526E-02  0.14646947855E-01  0.10198228218E+01  0.10195378521E+01 0.  0.
     999903    2    3    3    0    0 -0.86848565006E-01 -0.45798361544E-01  0.82296526873E-01  0.12946200387E+00  0.18642128317E-01 0.  0.
         14    1    1    2    0    0 -0.16747130509E-01 -0.92820567526E-02 -0.14646947855E-01  0.24107178170E-01  0.00000000000E+00 0. -1.
     999901    1    3    3    0    0  0.10359569552E+00  0.55080418296E-01 -0.67649579019E-01  0.89036081796E+00  0.88000000000E+00 0.  1.
        -11    1    4    4    0    0 -0.30242347043E-01 -0.21254230955E-01  0.21125812218E-01  0.42578198071E-01  0.51100000000E-03 0.  1.
         11    1    4    4    0    0 -0.56606217963E-01 -0.24544130589E-01  0.61170714655E-01  0.86883805804E-01  0.51100000000E-03 0. -1.
</event>
<event>
 8    1  0.1112958E+005  0.1043930E+01  0.7957747E-01            NaN
         13   -1    0    0    0    0  0.00000000000E+00  0.00000000000E+00  0.74505805969E-08  0.10566000000E+00  0.10566000000E+00 0.  1.
     999900   -1    0    0    0    0 -0.00000000000E+00 -0.00000000000E+00 -0.74505805969E-08  0.93827000000E+00  0.93827000000E+00 0. -1.
     999902    2    1    2    0    0 -0.18692551254E-02  0.57831817704E-02 -0.23429525087E-01  0.10197250015E+01  0.10194376865E+01 0.  0.
     999903    2    3    3    0    0  0.94371779943E-01 -0.60984865357E-01  0.58480515798E-01  0.12819285753E+00  0.19704094546E-01 0.  0.
         14    1    1    2    0    0  0.18692551254E-02 -0.57831817704E-02  0.23429525087E-01  0.24204998491E-01  0.00000000000E+00 0.  1.
     999901    1    3    3    0    0 -0.96241035068E-01  0.66768047127E-01 -0.81910040885E-01  0.89153214398E+00  0.88000000000E+00 0. -1.
        -11    1    4    4    0    0  0.48447525678E-01 -0.30679897013E-01  0.18788589450E-01  0.60346425243E-01  0.51100000000E-03 0. -1.
         11    1    4    4    0    0  0.45924254265E-01 -0.30304968344E-01  0.39691926348E-01  0.67846432289E-01  0.51100000000E-03 0.  1.
</event>
<event>
 8    1  0.1112958E+005  0.1043930E+01  0.7957747E-01            NaN
         13   -1    0    0    0    0  0.00000000000E+00  0.00000000000E+00  0.74505805969E-08  0.10566000000E+00  0.10566000000E+00 0.  1.
     999900   -1    0    0    0    0 -0.00000000000E+00 -0.00000000000E+00 -0.74505805969E-08  0.93827000000E+00  0.93827000000E+00 0. -1.
     999902    2    1    2    0    0  0.88376056512E-02 -0.14450047210E-01 -0.14133687951E-01  0.10218694408E+01  0.10216312866E+01 0.  0.
     999903    2    3    3    0    0  0.12145494858E+00  0.47923359928E-01  0.24133415648E-02  0.13234883279E+00  0.21504333602E-01 0.  0.
         14    1    1    2    0    0 -0.88376056512E-02  0.14450047210E-01  0.14133687951E-01  0.22060559220E-01  0.00000000000E+00 0.  1.
     999901    1    3    3    0    0 -0.11261734293E+00 -0.62373407139E-01 -0.16547029516E-01  0.88952060799E+00  0.88000000000E+00 0. -1.
        -11    1    4    4    0    0  0.98125021233E-01  0.33465050133E-01 -0.53709303408E-02  0.10381491890E+00  0.51100000000E-03 0.  1.
         11    1    4    4    0    0  0.23329927344E-01  0.14458309796E-01  0.77842719057E-02  0.28533913894E-01  0.51100000000E-03 0. -1.
</event>
<event>
 7    1  0.1112958E+005  0.1043930E+01  0.7957747E-01            NaN
         13   -1    0    0    0    0  0.00000000000E+00  0.00000000000E+00  0.74505805969E-08  0.10566000000E+00  0.10566000000E+00 0.  1.
     999900   -1    0    0    0    0 -0.00000000000E+00 -0.00000000000E+00 -0.74505805969E-08  0.93827000000E+00  0.93827000000E+00 0. -1.
     999903    2    1    2    0    0 -0.14236246949E-01 -0.68076228649E-02 -0.10488724113E+00  0.10779589994E+00  0.19225197926E-01 0.  0.
         14    1    1    2    0    0 -0.40032243991E-01  0.74282436642E-02 -0.20509459336E-01  0.45589442694E-01  0.00000000000E+00 0.  1.
     999901    1    1    2    0    0  0.54268490940E-01 -0.62062079927E-03  0.12539670047E+00  0.89054465737E+00  0.88000000000E+00 0.  1.
        -11    1    3    3    0    0 -0.71312850074E-02  0.18508272134E-02 -0.81773359375E-01  0.82106176453E-01  0.51100000000E-03 0. -1.
         11    1    3    3    0    0 -0.71049619418E-02 -0.86584500783E-02 -0.23113881755E-01  0.25689723485E-01  0.51100000000E-03 0.  1.
</event>
<event>
 8    1  0.1112958E+005  0.1043930E+01  0.7957747E-01            NaN
         13   -1    0    0    0    0  0.00000000000E+00  0.00000000000E+00  0.74505805969E-08  0.10566000000E+00  0.10566000000E+00 0. -1.
     999900   -1    0    0    0    0 -0.00000000000E+00 -0.00000000000E+00 -0.74505805969E-08  0.93827000000E+00  0.93827000000E+00 0. -1.
     999902    2    1    2    0    0 -0.18505772521E-02 -0.13191395591E-01  0.18773064097E-01  0.10209111927E+01  0.10206516536E+01 0.  0.
     999903    2    3    3    0    0 -0.60606249697E-01  0.17757748956E-02 -0.11224195064E+00  0.12914823130E+00  0.20118133257E-01 0.  0.
         14    1    1    2    0    0  0.18505772521E-02  0.13191395591E-01 -0.18773064097E-01  0.23018807297E-01  0.00000000000E+00 0.  1.
     999901    1    3    3    0    0  0.58755672445E-01 -0.14967170486E-01  0.13101501474E+00  0.89176296140E+00  0.88000000000E+00 0.  1.
        -11    1    4    4    0    0 -0.61474712962E-01  0.13801061091E-02 -0.11233231745E+00  0.12806192131E+00  0.51100000000E-03 0. -1.
         11    1    4    4    0    0  0.86846326496E-03  0.39566878651E-03  0.90366804781E-04  0.10863099883E-02  0.51100000000E-03 0.  1.
</event>
<event>
 8    1  0.1112958E+005  0.1043930E+01  0.7957747E-01            NaN
         13   -1    0    0    0    0  0.00000000000E+00  0.00000000000E+00  0.74505805969E-08  0.10566000000E+00  0.10566000000E+00 0. -1.
     999900   -1    0    0    0    0 -0.00000000000E+00 -0.00000000000E+00 -0.74505805969E-08  0.93827000000E+00  0.93827000000E+00 0.  1.
     999902    2    1    2    0    0  0.17867782814E-01 -0.56973858512E-02 -0.13999804780E-01  0.10205267438E+01  0.10202583606E+01 0.  0.
     999903    2    3    3    0    0  0.10942547425E+00 -0.73109253381E-01  0.19514393247E-03  0.13309862425E+00  0.19907494846E-01 0.  0.
         14    1    1    2    0    0 -0.17867782814E-01  0.56973858512E-02  0.13999804780E-01  0.23403256228E-01  0.00000000000E+00 0. -1.
     999901    1    3    3    0    0 -0.91557691440E-01  0.67411867530E-01 -0.14194948712E-01  0.88742811952E+00  0.88000000000E+00 0. -1.
        -11    1    4    4    0    0  0.82307346492E-01 -0.64695336921E-01  0.79657084971E-03  0.10469422884E+00  0.51100000000E-03 0.  1.
         11    1    4    4    0    0  0.27118127762E-01 -0.84139164598E-02 -0.60142691724E-03  0.28404395414E-01  0.51100000000E-03 0. -1.
</event>
<event>
 8    1  0.1112958E+005  0.1043930E+01  0.7957747E-01            NaN
         13   -1    0    0    0    0  0.00000000000E+00  0.00000000000E+00  0.74505805969E-08  0.10566000000E+00  0.10566000000E+00 0. -1.
     999900   -1    0    0    0    0 -0.00000000000E+00 -0.00000000000E+00 -0.74505805969E-08  0.93827000000E+00  0.93827000000E+00 0.  1.
     999902    2    1    2    0    0  0.14431229246E-01  0.18278179414E-01  0.92557371376E-02  0.10188696550E+01  0.10185614135E+01 0.  0.
     999903    2    3    3    0    0 -0.60577308741E-01  0.79141196546E-01  0.82114496870E-01  0.13059099014E+00  0.19449338912E-01 0.  0.
         14    1    1    2    0    0 -0.14431229246E-01 -0.18278179414E-01 -0.92557371376E-02  0.25060344974E-01  0.00000000000E+00 0. -1.
     999901    1    3    3    0    0  0.75008537987E-01 -0.60863017132E-01 -0.72858759732E-01  0.88827866489E+00  0.88000000000E+00 0.  1.
        -11    1    4    4    0    0 -0.25988901465E-01  0.38934899923E-01  0.26740688087E-01  0.53913587820E-01  0.51100000000E-03 0. -1.
         11    1    4    4    0    0 -0.34588407276E-01  0.40206296623E-01  0.55373808783E-01  0.76677402318E-01  0.51100000000E-03 0.  1.
</event>
<event>
 8    1  0.1112958E+005  0.1043930E+01  0.7957747E-01            NaN
         13   -1    0    0    0    0  0.00000000000E+00  0.00000000000E+00  0.74505805969E-08  0.10566000000E+00  0.10566000000E+00 0.  1.
     999900   -1    0    0    0    0 -0.00000000000E+00 -0.00000000000E+00 -0.74505805969E-08  0.93827000000E+00  0.93827000000E+00 0. -1.
     999902    2    1    2    0    0  0.94244912021E-03 -0.14264086249E-01  0.20102075682E-01  0.10192633056E+01  0.10189647885E+01 0.  0.
     999903    2    3    3    0    0 -0.11853799786E+00 -0.47154213871E-01 -0.12804899223E-01  0.12997133626E+00  0.21302722374E-01 0.  0.
         14    1    1    2    0    0 -0.94244912021E-03  0.14264086249E-01 -0.20102075682E-01  0.24666694420E-01  0.00000000000E+00 0. -1.
     999901    1    3    3    0    0  0.11948044699E+00  0.32890127622E-01  0.32906974905E-01  0.88929196932E+00  0.88000000000E+00 0. -1.
        -11    1    4    4    0    0 -0.96873800502E-01 -0.33391065683E-01 -0.17272963037E-01  0.10391396857E+00  0.51100000000E-03 0. -1.
         11    1    4    4    0    0 -0.21664197363E-01 -0.13763148188E-01  0.44680638144E-02  0.26057367685E-01  0.51100000000E-03 0.  1.
</event>
<event>
 8    1  0.1112958E+005  0.1043930E+01  0.7957747E-01            NaN
         13   -1    0    0    0    0  0.00000000000E+00  0.00000000000E+00  0.74505805969E-08  0.10566000000E+00  0.10566000000E+00 0. -1.
     999900   -1    0    0    0    0 -0.00000000000E+00 -0.00000000000E+00 -0.74505805969E-08  0.93827000000E+00  0.93827000000E+00 0. -1.
     999902    2    1    2    0    0 -0.15060049198E-01  0.17841759512E-01  0.10652133443E-02  0.10205576201E+01  0.10202899528E+01 0.  0.
     999903    2    3    3    0    0 -0.82697862582E-01 -0.44264320314E-01 -0.89559902857E-01  0.13115054193E+00  0.19524905133E-01 0.  0.
         14    1    1    2    0    0  0.15060049198E-01 -0.17841759512E-01 -0.10652133443E-02  0.23372379934E-01  0.00000000000E+00 0. -1.
     999901    1    3    3    0    0  0.67637813385E-01  0.62106079826E-01  0.90625116201E-01  0.88940707814E+00  0.88000000000E+00 0.  1.
        -11    1    4    4    0    0 -0.26443920728E-01 -0.13234159891E-01 -0.41299194467E-01  0.50796737258E-01  0.51100000000E-03 0.  1.
         11    1    4    4    0    0 -0.56253941854E-01 -0.31030160423E-01 -0.48260708390E-01  0.80353804672E-01  0.51100000000E-03 0. -1.
</event>
<event>
 8    1  0.1112958E+005  0.1043930E+01  0.7957747E-01            NaN
         13   -1    0    0    0    0  0.00000000000E+00  0.00000000000E+00  0.74505805969E-08  0.10566000000E+00  0.10566000000E+00 0.  1.
     999900   -1    0    0    0    0 -0.00000000000E+00 -0.00000000000E+00 -0.74505805969E-08  0.93827000000E+00  0.93827000000E+00 0. -1.
     999902    2    1    2    0    0  0.90001094119E-02 -0.98688043154E-02 -0.19210898346E-01  0.10205322676E+01  0.10202640125E+01 0.  0.
     999903    2    3    3    0    0  0.10876608650E+00 -0.72523559865E-01  0.86998602564E-02  0.13224296839E+00  0.17966268689E-01 0.  0.
         14    1    1    2    0    0 -0.90001094119E-02  0.98688043154E-02  0.19210898346E-01  0.23397732439E-01  0.00000000000E+00 0.  1.
     999901    1    3    3    0    0 -0.99765977093E-01  0.62654755550E-01 -0.27910758603E-01  0.88828929917E+00  0.88000000000E+00 0. -1.
        -11    1    4    4    0    0  0.38290671010E-01 -0.34828466979E-01  0.75403964404E-02  0.52309810724E-01  0.51100000000E-03 0.  1.
         11    1    4    4    0    0  0.70475415495E-01 -0.37695092887E-01  0.11594638160E-02  0.79933157664E-01  0.51100000000E-03 0. -1.
</event>
<event>
 8    1  0.1112958E+005  0.1043930E+01  0.7957747E-01            NaN
         13   -1    0    0    0    0  0.00000000000E+00  0.00000000000E+00  0.74505805969E-08  0.10566000000E+00  0.10566000000E+00 0. -1.
     999900   -1    0    0    0    0 -0.00000000000E+00 -0.00000000000E+00 -0.74505805969E-08  0.93827000000E+00  0.93827000000E+00 0.  1.
     999902    2    1    2    0    0  0.16614375552E-01 -0.35447886378E-02 -0.88987761518E-02  0.10247521164E+01  0.10245726470E+01 0.  0.
     999903    2    3    3    0    0  0.10215570499E+00  0.54062561700E-01  0.68105927429E-01  0.13538961990E+00  0.18258783781E-01 0.  0.
         14    1    1    2    0    0 -0.16614375552E-01  0.35447886378E-02  0.88987761518E-02  0.19177883577E-01  0.00000000000E+00 0. -1.
     999901    1    3    3    0    0 -0.85541329437E-01 -0.57607350338E-01 -0.77004703581E-01  0.88936249653E+00  0.88000000000E+00 0.  1.
        -11    1    4    4    0    0  0.58164848878E-01  0.20600898448E-01  0.34349790882E-01  0.70623763115E-01  0.51100000000E-03 0.  1.
         11    1    4    4    0    0  0.43990856112E-01  0.33461663252E-01  0.33756136547E-01  0.64765856781E-01  0.51100000000E-03 0. -1.
</event>
<event>
 8    1  0.1112958E+005  0.1043930E+01  0.7957747E-01            NaN
         13   -1    0    0    0    0  0.00000000000E+00  0.00000000000E+00  0.74505805969E-08  0.10566000000E+00  0.10566000000E+00 0.  1.
     999900   -1    0    0    0    0 -0.00000000000E+00 -0.00000000000E+00 -0.74505805969E-08  0.93827000000E+00  0.93827000000E+00 0.  1.
     999902    2    1    2    0    0 -0.16030363448E-01 -0.17305319631E-01  0.33297513270E-02  0.10201070303E+01  0.10198288187E+01 0.  0.
     999903    2    3    3    0    0 -0.10755086184E+00 -0.21915164008E-02 -0.73711517069E-01  0.13188420598E+00  0.19699375893E-01 0.  0.
         14    1    1    2    0    0  0.16030363448E-01  0.17305319631E-01 -0.33297513270E-02  0.23822969666E-01  0.00000000000E+00 0. -1.
     999901    1    3    3    0    0  0.91520498393E-01 -0.15113803230E-01  0.77041268396E-01  0.88822282436E+00  0.88000000000E+00 0. -1.
        -11    1    4    4    0    0 -0.49928417876E-01 -0.10778955363E-01 -0.33186670577E-01  0.60915096777E-01  0.51100000000E-03 0.  1.
         11    1    4    4    0    0 -0.57622443965E-01  0.85874389625E-02 -0.40524846492E-01  0.70969109200E-01  0.51100000000E-03 0. -1.
</event>
<event>
 8    1  0.1112958E+005  0.1043930E+01  0.7957747E-01            NaN
         13   -1    0    0    0    0  0.00000000000E+00  0.00000000000E+00  0.74505805969E-08  0.10566000000E+00  0.10566000000E+00 0.  1.
     999900   -1    0    0    0    0 -0.00000000000E+00 -0.00000000000E+00 -0.74505805969E-08  0.93827000000E+00  0.93827000000E+00 0.  1.
     999902    2    1    2    0    0 -0.18560118491E-01  0.18799203881E-01  0.15509040819E-01  0.10132963843E+01  0.10128332261E+01 0.  0.
     999903    2    3    3    0    0  0.45697192523E-01  0.11130008610E+00  0.31485178323E-01  0.12597420367E+00  0.20055945893E-01 0.  0.
         14    1    1    2    0    0  0.18560118491E-01 -0.18799203881E-01 -0.15509040819E-01  0.30633615720E-01  0.00000000000E+00 0. -1.
     999901    1    3    3    0    0 -0.64257311014E-01 -0.92500882222E-01 -0.15976137504E-01  0.88732218061E+00  0.88000000000E+00 0. -1.
        -11    1    4    4    0    0  0.15440695065E-01  0.52300213486E-01  0.57074414019E-02  0.54832138415E-01  0.51100000000E-03 0.  1.
         11    1    4    4    0    0  0.30256497458E-01  0.58999872617E-01  0.25777736921E-01  0.71142065257E-01  0.51100000000E-03 0. -1.
</event>
<event>
 8    1  0.1112958E+005  0.1043930E+01  0.7957747E-01            NaN
         13   -1    0    0    0    0  0.00000000000E+00  0.00000000000E+00  0.74505805969E-08  0.10566000000E+00  0.10566000000E+00 0.  1.
     999900   -1    0    0    0    0 -0.00000000000E+00 -0.00000000000E+00 -0.74505805969E-08  0.93827000000E+00  0.93827000000E+00 0.  1.
     999902    2    1    2    0    0  0.35202955904E-02  0.85629310864E-02  0.20861411473E-01  0.10211064429E+01  0.10208513374E+01 0.  0.
     999903    2    3    3    0    0 -0.94973651211E-01 -0.77416767952E-01 -0.32509807940E-01  0.12984775248E+00  0.28110510958E-01 0.  0.
         14    1    1    2    0    0 -0.35202955904E-02 -0.85629310864E-02 -0.20861411473E-01  0.22823557095E-01  0.00000000000E+00 0. -1.
     999901    1    3    3    0    0  0.98493946801E-01  0.85979699039E-01  0.53371219413E-01  0.89125869043E+00  0.88000000000E+00 0. -1.
        -11    1    4    4    0    0 -0.36864925591E-01 -0.47975626382E-01 -0.17709470310E-01  0.63044190258E-01  0.51100000000E-03 0.  1.
         11    1    4    4    0    0 -0.58108725620E-01 -0.29441141570E-01 -0.14800337631E-01  0.66803562218E-01  0.51100000000E-03 0. -1.
</event>
<event>
 8    1  0.1112958E+005  0.1043930E+01  0.7957747E-01            NaN
         13   -1    0    0    0    0  0.00000000000E+00  0.00000000000E+00  0.74505805969E-08  0.10566000000E+00  0.10566000000E+00 0.  1.
     999900   -1    0    0    0    0 -0.00000000000E+00 -0.00000000000E+00 -0.74505805969E-08  0.93827000000E+00  0.93827000000E+00 0.  1.
     999902    2    1    2    0    0  0.20597903377E-01 -0.88262139323E-02  0.10068612610E-01  0.10193626917E+01  0.10190666046E+01 0.  0.
     999903    2    3    3    0    0 -0.84313339641E-02  0.83856231469E-01  0.96797701741E-01  0.12978151656E+00  0.19248169529E-01 0.  0.
         14    1    1    2    0    0 -0.20597903377E-01  0.88262139323E-02 -0.10068612610E-01  0.24567308273E-01  0.00000000000E+00 0.  1.
     999901    1    3    3    0    0  0.29029237341E-01 -0.92682445401E-01 -0.86729089131E-01  0.88958117516E+00  0.88000000000E+00 0.  1.
        -11    1    4    4    0    0 -0.79597367365E-02  0.12154386320E-01  0.19828832766E-01  0.24587196782E-01  0.51100000000E-03 0.  1.
         11    1    4    4    0    0 -0.47159722758E-03  0.71701845149E-01  0.76968868975E-01  0.10519431978E+00  0.51100000000E-03 0. -1.
</event>
<event>
 8    1  0.1112958E+005  0.1043930E+01  0.7957747E-01            NaN
         13   -1    0    0    0    0  0.00000000000E+00  0.00000000000E+00  0.74505805969E-08  0.10566000000E+00  0.10566000000E+00 0. -1.
     999900   -1    0    0    0    0 -0.00000000000E+00 -0.00000000000E+00 -0.74505805969E-08  0.93827000000E+00  0.93827000000E+00 0.  1.
     999902    2    1    2    0    0  0.17606651395E-01 -0.98482472155E-02  0.16943393466E-01  0.10175849677E+01  0.10172438772E+01 0.  0.
     999903    2    3    3    0    0  0.88063295963E-01  0.34774325763E-01 -0.83741217059E-01  0.12792621085E+00  0.19700917736E-01 0.  0.
         14    1    1    2    0    0 -0.17606651395E-01  0.98482472155E-02 -0.16943393466E-01  0.26345032334E-01  0.00000000000E+00 0. -1.
     999901    1    3    3    0    0 -0.70456644568E-01 -0.44622572979E-01  0.10068461053E+00  0.88965875682E+00  0.88000000000E+00 0. -1.
        -11    1    4    4    0    0  0.37643216647E-01  0.23419633812E-01 -0.31126838665E-01  0.54172245788E-01  0.51100000000E-03 0.  1.
         11    1    4    4    0    0  0.50420079316E-01  0.11354691951E-01 -0.52614378394E-01  0.73753965062E-01  0.51100000000E-03 0. -1.
</event>
<event>
 8    1  0.1112958E+005  0.1043930E+01  0.7957747E-01            NaN
         13   -1    0    0    0    0  0.00000000000E+00  0.00000000000E+00  0.74505805969E-08  0.10566000000E+00  0.10566000000E+00 0. -1.
     999900   -1    0    0    0    0 -0.00000000000E+00 -0.00000000000E+00 -0.74505805969E-08  0.93827000000E+00  0.93827000000E+00 0. -1.
     999902    2    1    2    0    0 -0.22869316658E-01 -0.14576598318E-02  0.48734241354E-02  0.10205017974E+01  0.10202328351E+01 0.  0.
     999903    2    3    3    0    0  0.94161513714E-01  0.84979049060E-01  0.41764082364E-02  0.12855560742E+00  0.20524920684E-01 0.  0.
         14    1    1    2    0    0  0.22869316658E-01  0.14576598318E-02 -0.48734241354E-02  0.23428202650E-01  0.00000000000E+00 0.  1.
     999901    1    3    3    0    0 -0.11703083037E+00 -0.86436708891E-01  0.69701589907E-03  0.89194618993E+00  0.88000000000E+00 0. -1.
        -11    1    4    4    0    0  0.85195654466E-01  0.68829769028E-01 -0.36552413775E-03  0.10952730880E+00  0.51100000000E-03 0.  1.
         11    1    4    4    0    0  0.89658592486E-02  0.16149280032E-01  0.45419323741E-02  0.19028298618E-01  0.51100000000E-03 0. -1.
</event>
<event>
 8    1  0.1112958E+005  0.1043930E+01  0.7957747E-01            NaN
         13   -1    0    0    0    0  0.00000000000E+00  0.00000000000E+00  0.74505805969E-08  0.10566000000E+00  0.10566000000E+00 0.  1.
     999900   -1    0    0    0    0 -0.00000000000E+00 -0.00000000000E+00 -0.74505805969E-08  0.93827000000E+00  0.93827000000E+00 0. -1.
     999902    2    1    2    0    0 -0.51063181749E-02 -0.45840620789E-04  0.23463310213E-01  0.10199174301E+01  0.10196347193E+01 0.  0.
     999903    2    3    3    0    0 -0.66511753872E-01 -0.44699475788E-01 -0.97935593724E-01  0.12834451186E+00  0.21426074508E-01 0.  0.
         14    1    1    2    0    0  0.51063181749E-02  0.45840620789E-04 -0.23463310213E-01  0.24012569892E-01  0.00000000000E+00 0. -1.
     999901    1    3    3    0    0  0.61405435698E-01  0.44653635167E-01  0.12139890394E+00  0.89157291824E+00  0.88000000000E+00 0.  1.
        -11    1    4    4    0    0 -0.36491310875E-01 -0.24531167983E-01 -0.69901477519E-01  0.82582514204E-01  0.51100000000E-03 0.  1.
         11    1    4    4    0    0 -0.30020442997E-01 -0.20168307805E-01 -0.28034116205E-01  0.45761997661E-01  0.51100000000E-03 0. -1.
</event>
<event>
 8    1  0.1112958E+005  0.1043930E+01  0.7957747E-01            NaN
         13   -1    0    0    0    0  0.00000000000E+00  0.00000000000E+00  0.74505805969E-08  0.10566000000E+00  0.10566000000E+00 0.  1.
     999900   -1    0    0    0    0 -0.00000000000E+00 -0.00000000000E+00 -0.74505805969E-08  0.93827000000E+00  0.93827000000E+00 0.  1.
     999902    2    1    2    0    0  0.25848604349E-01  0.18348263711E-01  0.10340720770E-02  0.10122144134E+01  0.10117174212E+01 0.  0.
     999903    2    3    3    0    0  0.64365204752E-01  0.15851170925E-02  0.10531425201E+00  0.12506229143E+00  0.20102061640E-01 0.  0.
         14    1    1    2    0    0 -0.25848604349E-01 -0.18348263711E-01 -0.10340720770E-02  0.31715586595E-01  0.00000000000E+00 0.  1.
     999901    1    3    3    0    0 -0.38516600403E-01  0.16763146618E-01 -0.10428017994E+00  0.88715212197E+00  0.88000000000E+00 0.  1.
        -11    1    4    4    0    0  0.53124610952E-01 -0.43726627489E-03  0.98044645631E-01  0.11151425536E+00  0.51100000000E-03 0.  1.
         11    1    4    4    0    0  0.11240593801E-01  0.20223833674E-02  0.72696063836E-02  0.13548036073E-01  0.51100000000E-03 0. -1.
</event>
<event>
 8    1  0.1112958E+005  0.1043930E+01  0.7957747E-01            NaN
         13   -1    0    0    0    0  0.00000000000E+00  0.00000000000E+00  0.74505805969E-08  0.10566000000E+00  0.10566000000E+00 0.  1.
     999900   -1    0    0    0    0 -0.00000000000E+00 -0.00000000000E+00 -0.74505805969E-08  0.93827000000E+00  0.93827000000E+00 0. -1.
     999902    2    1    2    0    0 -0.25338445716E-02  0.14774856036E-01 -0.18031246931E-01  0.10204812771E+01  0.10202118380E+01 0.  0.
     999903    2    3    3    0    0  0.30515027500E-01 -0.11295307441E+00 -0.54101275691E-01  0.12991533394E+00  0.16170406305E-01 0.  0.
         14    1    1    2    0    0  0.25338445716E-02 -0.14774856036E-01  0.18031246931E-01  0.23448722888E-01  0.00000000000E+00 0.  1.
     999901    1    3    3    0    0 -0.33048872072E-01  0.12772793044E+00  0.36070028760E-01  0.89056594317E+00  0.88000000000E+00 0. -1.
        -11    1    4    4    0    0  0.86242423998E-02 -0.58542707699E-01 -0.22647862348E-01  0.63362551808E-01  0.51100000000E-03 0.  1.
         11    1    4    4    0    0  0.21890785100E-01 -0.54410366709E-01 -0.31453413343E-01  0.66552782133E-01  0.51100000000E-03 0. -1.
</event>
<event>
 8    1  0.1112958E+005  0.1043930E+01  0.7957747E-01            NaN
         13   -1    0    0    0    0  0.00000000000E+00  0.00000000000E+00  0.74505805969E-08  0.10566000000E+00  0.10566000000E+00 0.  1.
     999900   -1    0    0    0    0 -0.00000000000E+00 -0.00000000000E+00 -0.74505805969E-08  0.93827000000E+00  0.93827000000E+00 0.  1.
     999902    2    1    2    0    0  0.14083028577E-01 -0.13027550229E-01 -0.15120490360E-01  0.10195030070E+01  0.10192103332E+01 0.  0.
     999903    2    3    3    0    0 -0.26190008163E-02 -0.31342542448E-01  0.12290697487E+00  0.12839920951E+00  0.19774185143E-01 0.  0.
         14    1    1    2    0    0 -0.14083028577E-01  0.13027550229E-01  0.15120490360E-01  0.24426993012E-01  0.00000000000E+00 0.  1.
     999901    1    3    3    0    0  0.16702029394E-01  0.18314992220E-01 -0.13802746523E+00  0.89110379748E+00  0.88000000000E+00 0.  1.
        -11    1    4    4    0    0  0.66521315172E-02 -0.66308256369E-02  0.19133682409E-01  0.21320826107E-01  0.51100000000E-03 0.  1.
         11    1    4    4    0    0 -0.92711323335E-02 -0.24711716811E-01  0.10377329246E+00  0.10707838340E+00  0.51100000000E-03 0. -1.
</event>
<event>
 8    1  0.1112958E+005  0.1043930E+01  0.7957747E-01            NaN
         13   -1    0    0    0    0  0.00000000000E+00  0.00000000000E+00  0.74505805969E-08  0.10566000000E+00  0.10566000000E+00 0.  1.
     999900   -1    0    0    0    0 -0.00000000000E+00 -0.00000000000E+00 -0.74505805969E-08  0.93827000000E+00  0.93827000000E+00 0.  1.
     999902    2    1    2    0    0  0.11533660137E-01 -0.66772426861E-02  0.17255582297E-01  0.10221271101E+01  0.10218945461E+01 0.  0.
     999903    2    3    3    0    0 -0.10871355717E-01 -0.12309341241E+00 -0.42115084200E-01  0.13219476139E+00  0.20774986556E-01 0.  0.
         14    1    1    2    0    0 -0.11533660137E-01  0.66772426861E-02 -0.17255582297E-01  0.21802889865E-01  0.00000000000E+00 0. -1.
     999901    1    3    3    0    0  0.22405015853E-01  0.11641616973E+00  0.59370666498E-01  0.88993234875E+00  0.88000000000E+00 0.  1.
        -11    1    4    4    0    0 -0.12040371416E-01 -0.73734226919E-01 -0.34279266947E-01  0.82201192367E-01  0.51100000000E-03 0. -1.
         11    1    4    4    0    0  0.11690156988E-02 -0.49359185493E-01 -0.78358172535E-02  0.49993569019E-01  0.51100000000E-03 0.  1.
</event>
<event>
 8    1  0.1112958E+005  0.1043930E+01  0.7957747E-01            NaN
         13   -1    0    0    0    0  0.00000000000E+00  0.00000000000E+00  0.74505805969E-08  0.10566000000E+00  0.10566000000E+00 0.  1.
     999900   -1    0    0    0    0 -0.00000000000E+00 -0.00000000000E+00 -0.74505805969E-08  0.93827000000E+00  0.93827000000E+00 0.  1.
     999902    2    1    2    0    0  0.18135577132E-01  0.14488443577E-01 -0.20858522658E-02  0.10206241009E+01  0.10203579717E+01 0.  0.
     999903    2    3    3    0    0 -0.28087426988E-01 -0.79381124306E-02  0.12510209102E+00  0.12999719275E+00  0.19920335353E-01 0.  0.
         14    1    1    2    0    0 -0.18135577132E-01 -0.14488443577E-01  0.20858522658E-02  0.23305899143E-01  0.00000000000E+00 0. -1.
     999901    1    3    3    0    0  0.46223004120E-01  0.22426556007E-01 -0.12718794329E+00  0.89062690811E+00  0.88000000000E+00 0.  1.
        -11    1    4    4    0    0  0.98054978022E-03 -0.22595491655E-02  0.36255389795E-01  0.36342557016E-01  0.51100000000E-03 0. -1.
         11    1    4    4    0    0 -0.29067976768E-01 -0.56785632651E-02  0.88846701230E-01  0.93654635735E-01  0.51100000000E-03 0.  1.
</event>
<event>
 8    1  0.1112958E+005  0.1043930E+01  0.7957747E-01            NaN
         13   -1    0    0    0    0  0.00000000000E+00  0.00000000000E+00  0.74505805969E-08  0.10566000000E+00  0.10566000000E+00 0.  1.
     999900   -1    0    0    0    0 -0.00000000000E+00 -0.00000000000E+00 -0.74505805969E-08  0.93827000000E+00  0.93827000000E+00 0.  1.
     999902    2    1    2    0    0  0.29610869966E-02  0.18270605338E-01  0.12099920524E-01  0.10218168561E+01  0.10215775528E+01 0.  0.
     999903    2    3    3    0    0 -0.12390756885E+00  0.37857763897E-01 -0.15305511908E-01  0.13208073212E+00  0.20609832567E-01 0.  0.
         14    1    1    2    0    0 -0.29610869966E-02 -0.18270605338E-01 -0.12099920524E-01  0.22113143881E-01  0.00000000000E+00 0. -1.
     999901    1    3    3    0    0  0.12686865584E+00 -0.19587158559E-01  0.27405432431E-01  0.88973612400E+00  0.88000000000E+00 0. -1.
        -11    1    4    4    0    0 -0.21056335922E-01  0.11286988974E-01 -0.94288714698E-02  0.25689105487E-01  0.51100000000E-03 0. -1.
         11    1    4    4    0    0 -0.10285123293E+00  0.26570774923E-01 -0.58766404381E-02  0.10639162664E+00  0.51100000000E-03 0.  1.
</event>
<event>
 8    1  0.1112958E+005  0.1043930E+01  0.7957747E-01            NaN
         13   -1    0    0    0    0  0.00000000000E+00  0.00000000000E+00  0.74505805969E-08  0.10566000000E+00  0.10566000000E+00 0. -1.
     999900   -1    0    0    0    0 -0.00000000000E+00 -0.00000000000E+00 -0.74505805969E-08  0.93827000000E+00  0.93827000000E+00 0. -1.
     999902    2    1    2    0    0 -0.91299150705E-02 -0.21649546486E-01 -0.55994932783E-02  0.10197760658E+01  0.10194899763E+01 0.  0.
     999903    2    3    3    0    0  0.16435957765E-01 -0.10744408899E+00  0.71923891265E-01  0.13184352753E+00  0.19882068518E-01 0.  0.
         14    1    1    2    0    0  0.91299150705E-02  0.21649546486E-01  0.55994932783E-02  0.24153934197E-01  0.00000000000E+00 0.  1.
     999901    1    3    3    0    0 -0.25565872835E-01  0.85794542509E-01 -0.77523384543E-01  0.88793253828E+00  0.88000000000E+00 0. -1.
        -11    1    4    4    0    0  0.10497383172E-01 -0.18525049635E-01  0.15886965588E-01  0.26571212129E-01  0.51100000000E-03 0. -1.
         11    1    4    4    0    0  0.59385745927E-02 -0.88919039360E-01  0.56036925677E-01  0.10527231540E+00  0.51100000000E-03 0.  1.
</event>
<event>
 8    1  0.1112958E+005  0.1043930E+01  0.7957747E-01            NaN
         13   -1    0    0    0    0  0.00000000000E+00  0.00000000000E+00  0.74505805969E-08  0.10566000000E+00  0.10566000000E+00 0.  1.
     999900   -1    0    0    0    0 -0.00000000000E+00 -0.00000000000E+00 -0.74505805969E-08  0.93827000000E+00  0.93827000000E+00 0.  1.
     999902    2    1    2    0    0  0.19138146902E-01  0.86582841766E-02 -0.12150793144E-01  0.10196632259E+01  0.10193744248E+01 0.  0.
     999903    2    3    3    0    0 -0.84169823081E-01  0.68592731891E-01  0.67212527469E-01  0.12805613118E+00  0.95565107242E-02 0.  0.
         14    1    1    2    0    0 -0.19138146902E-01 -0.86582841766E-02  0.12150793144E-01  0.24266774111E-01  0.00000000000E+00 0.  1.
     999901    1    3    3    0    0  0.10330796998E+00 -0.59934447714E-01 -0.79363320612E-01  0.89160709471E+00  0.88000000000E+00 0.  1.
        -11    1    4    4    0    0 -0.22168111157E-01  0.17021353330E-01  0.12635719579E-01  0.30676931915E-01  0.51100000000E-03 0. -1.
         11    1    4    4    0    0 -0.62001711924E-01  0.51571378561E-01  0.54576807890E-01  0.97379199260E-01  0.51100000000E-03 0.  1.
</event>
<event>
 8    1  0.1112958E+005  0.1043930E+01  0.7957747E-01            NaN
         13   -1    0    0    0    0  0.00000000000E+00  0.00000000000E+00  0.74505805969E-08  0.10566000000E+00  0.10566000000E+00 0.  1.
     999900   -1    0    0    0    0 -0.00000000000E+00 -0.00000000000E+00 -0.74505805969E-08  0.93827000000E+00  0.93827000000E+00 0.  1.
     999902    2    1    2    0    0 -0.16460115283E-01 -0.13505644761E-01  0.10370020554E-01  0.10202471969E+01  0.10199722877E+01 0.  0.
     999903    2    3    3    0    0  0.11315045593E+00  0.41782806655E-01  0.39990171422E-01  0.12854485512E+00  0.19383945915E-01 0.  0.
         14    1    1    2    0    0  0.16460115283E-01  0.13505644761E-01 -0.10370020554E-01  0.23682803082E-01  0.00000000000E+00 0. -1.
     999901    1    3    3    0    0 -0.12961057121E+00 -0.55288451416E-01 -0.29620150868E-01  0.89170234180E+00  0.88000000000E+00 0.  1.
        -11    1    4    4    0    0  0.46641326150E-01  0.72149008380E-02  0.14669254534E-01  0.49425866191E-01  0.51100000000E-03 0.  1.
         11    1    4    4    0    0  0.66509129776E-01  0.34567905817E-01  0.25320916888E-01  0.79118988930E-01  0.51100000000E-03 0. -1.
</event>
<event>
 8    1  0.1112958E+005  0.1043930E+01  0.7957747E-01            NaN
         13   -1    0    0    0    0  0.00000000000E+00  0.00000000000E+00  0.74505805969E-08  0.10566000000E+00  0.10566000000E+00 0.  1.
     999900   -1    0    0    0    0 -0.00000000000E+00 -0.00000000000E+00 -0.74505805969E-08  0.93827000000E+00  0.93827000000E+00 0.  1.
     999902    2    1    2    0    0  0.16744507751E-01 -0.15252336562E-01  0.75741560512E-02  0.10200473672E+01  0.10197677437E+01 0.  0.
     999903    2    3    3    0    0 -0.48536840866E-03 -0.94260926354E-02  0.12950714566E+00  0.13145383372E+00  0.20467604127E-01 0.  0.
         14    1    1    2    0    0 -0.16744507751E-01  0.15252336562E-01 -0.75741560512E-02  0.23882632818E-01  0.00000000000E+00 0.  1.
     999901    1    3    3    0    0  0.17229876159E-01 -0.58262439266E-02 -0.12193298961E+00  0.88859353346E+00  0.88000000000E+00 0.  1.
        -11    1    4    4    0    0 -0.20901552346E-02 -0.95021303090E-02  0.23582501788E-01  0.25515774354E-01  0.51100000000E-03 0. -1.
         11    1    4    4    0    0  0.16047868260E-02  0.76037673595E-04  0.10592464387E+00  0.10593805937E+00  0.51100000000E-03 0.  1.
</event>
<event>
 8    1  0.1112958E+005  0.1043930E+01  0.7957747E-01            NaN
         13   -1    0    0    0    0  0.00000000000E+00  0.00000000000E+00  0.74505805969E-08  0.10566000000E+00  0.10566000000E+00 0.  1.
     999900   -1    0    0    0    0 -0.00000000000E+00 -0.00000000000E+00 -0.74505805969E-08  0.93827000000E+00  0.93827000000E+00 0.  1.
     999902    2    1    2    0    0  0.77281514136E-02  0.56233162068E-02  0.21793259044E-01  0.10201331063E+01  0.10198555106E+01 0.  0.
     999903    2    3    3    0    0  0.12227802164E+00 -0.39273734262E-02 -0.40713986944E-01  0.13045898381E+00  0.19864009846E-01 0.  0.
         14    1    1    2    0    0 -0.77281514136E-02 -0.56233162068E-02 -0.21793259044E-01  0.23796893688E-01  0.00000000000E+00 0. -1.
     999901    1    3    3    0    0 -0.11454987022E+00  0.95506896330E-02  0.62507245989E-01  0.88967412250E+00  0.88000000000E+00 0. -1.
        -11    1    4    4    0    0  0.29732412064E-01  0.15972345333E-03 -0.12426178256E-02  0.29763182941E-01  0.51100000000E-03 0. -1.
         11    1    4    4    0    0  0.92545609574E-01 -0.40870968795E-02 -0.39471369119E-01  0.10069580087E+00  0.51100000000E-03 0.  1.
</event>
<event>
 8    1  0.1112958E+005  0.1043930E+01  0.7957747E-01            NaN
         13   -1    0    0    0    0  0.00000000000E+00  0.00000000000E+00  0.74505805969E-08  0.10566000000E+00  0.10566000000E+00 0.  1.
     999900   -1    0    0    0    0 -0.00000000000E+00 -0.00000000000E+00 -0.74505805969E-08  0.93827000000E+00  0.93827000000E+00 0. -1.
     999902    2    1    2    0    0  0.75366955197E-02 -0.23664832527E-01 -0.19713407692E-01  0.10122212548E+01  0.10117244804E+01 0.  0.
     999903    2    3    3    0    0 -0.10144896085E+00  0.61201304644E-01 -0.81350357497E-02  0.12137099062E+00  0.25044903856E-01 0.  0.
         14    1    1    2    0    0 -0.75366955197E-02  0.23664832527E-01  0.19713407692E-01  0.31708745177E-01  0.00000000000E+00 0.  1.
     999901    1    3    3    0    0  0.10898565637E+00 -0.84866137171E-01 -0.11578371942E-01  0.89085026420E+00  0.88000000000E+00 0.  1.
        -11    1    4    4    0    0 -0.16049436387E-01  0.57504356921E-04 -0.15375829040E-02  0.16131118910E-01  0.51100000000E-03 0. -1.
         11    1    4    4    0    0 -0.85399524466E-01  0.61143800287E-01 -0.65974528457E-02  0.10523987171E+00  0.51100000000E-03 0.  1.
</event>
<event>
 8    1  0.1112958E+005  0.1043930E+01  0.7957747E-01            NaN
         13   -1    0    0    0    0  0.00000000000E+00  0.00000000000E+00  0.74505805969E-08  0.10566000000E+00  0.10566000000E+00 0. -1.
     999900   -1    0    0    0    0 -0.00000000000E+00 -0.00000000000E+00 -0.74505805969E-08  0.93827000000E+00  0.93827000000E+00 0.  1.
     999902    2    1    2    0    0 -0.18987153353E-01  0.16420817054E-01 -0.44336882266E-02  0.10184385737E+01  0.10181194996E+01 0.  0.
     999903    2    3    3    0    0 -0.99823095682E-01  0.51010838237E-01 -0.66118532598E-01  0.13190829265E+00  0.21479787415E-01 0.  0.
         14    1    1    2    0    0  0.18987153353E-01 -0.16420817054E-01  0.44336882266E-02  0.25491426333E-01  0.00000000000E+00 0. -1.
     999901    1    3    3    0    0  0.80835942329E-01 -0.34590021182E-01  0.61684844371E-01  0.88653028102E+00  0.88000000000E+00 0. -1.
        -11    1    4    4    0    0 -0.61262237728E-01  0.34429023480E-01 -0.52690291389E-01  0.87834773051E-01  0.51100000000E-03 0.  1.
         11    1    4    4    0    0 -0.38560857954E-01  0.16581814756E-01 -0.13428241209E-01  0.44073519598E-01  0.51100000000E-03 0. -1.
</event>
<event>
 8    1  0.1112958E+005  0.1043930E+01  0.7957747E-01            NaN
         13   -1    0    0    0    0  0.00000000000E+00  0.00000000000E+00  0.74505805969E-08  0.10566000000E+00  0.10566000000E+00 0.  1.
     999900   -1    0    0    0    0 -0.00000000000E+00 -0.00000000000E+00 -0.74505805969E-08  0.93827000000E+00  0.93827000000E+00 0. -1.
     999902    2    1    2    0    0  0.12689935100E-02 -0.22824190450E-01 -0.27438276106E-02  0.10209064772E+01  0.10206468304E+01 0.  0.
     999903    2    3    3    0    0 -0.10384093539E-01  0.46050588557E-01  0.11915967724E+00  0.12976115000E+00  0.20259350024E-01 0.  0.
         14    1    1    2    0    0 -0.12689935100E-02  0.22824190450E-01  0.27438276106E-02  0.23023522844E-01  0.00000000000E+00 0. -1.
     999901    1    3    3    0    0  0.11653087050E-01 -0.68874779006E-01 -0.12190350485E+00  0.89114532716E+00  0.88000000000E+00 0. -1.
        -11    1    4    4    0    0 -0.22479775123E-02  0.39919209576E-01  0.82043670428E-01  0.91268952412E-01  0.51100000000E-03 0. -1.
         11    1    4    4    0    0 -0.81361160272E-02  0.61313789805E-02  0.37116006813E-01  0.38492197586E-01  0.51100000000E-03 0.  1.
</event>
<event>
 8    1  0.1112958E+005  0.1043930E+01  0.7957747E-01            NaN
         13   -1    0    0    0    0  0.00000000000E+00  0.00000000000E+00  0.74505805969E-08  0.10566000000E+00  0.10566000000E+00 0.  1.
     999900   -1    0    0    0    0 -0.00000000000E+00 -0.00000000000E+00 -0.74505805969E-08  0.93827000000E+00  0.93827000000E+00 0.  1.
     999902    2    1    2    0    0 -0.25254196367E-01  0.75525886647E-02  0.73375243067E-02  0.10165684340E+01  0.10162001406E+01 0.  0.
     999903    2    3    3    0    0  0.11593611464E+00  0.12718219690E-01  0.38387127855E-01  0.12475821568E+00  0.22093098541E-01 0.  0.
         14    1    1    2    0    0  0.25254196367E-01 -0.75525886647E-02 -0.73375243067E-02  0.27361565976E-01  0.00000000000E+00 0.  1.
     999901    1    3    3    0    0 -0.14119031101E+00 -0.51656310249E-02 -0.31049603548E-01  0.89181021835E+00  0.88000000000E+00 0. -1.
        -11    1    4    4    0    0  0.25954363046E-01 -0.49531500349E-02  0.35641519280E-02  0.26666963763E-01  0.51100000000E-03 0. -1.
         11    1    4    4    0    0  0.89981751599E-01  0.17671369725E-01  0.34822975927E-01  0.98091251914E-01  0.51100000000E-03 0.  1.
</event>
<event>
 8    1  0.1112958E+005  0.1043930E+01  0.7957747E-01            NaN
         13   -1    0    0    0    0  0.00000000000E+00  0.00000000000E+00  0.74505805969E-08  0.10566000000E+00  0.10566000000E+00 0. -1.
     999900   -1    0    0    0    0 -0.00000000000E+00 -0.00000000000E+00 -0.74505805969E-08  0.93827000000E+00  0.93827000000E+00 0.  1.
     999902    2    1    2    0    0 -0.24454223422E-01  0.13601475367E-01 -0.99316287720E-02  0.10142374685E+01  0.10138027402E+01 0.  0.
     999903    2    3    3    0    0 -0.28119922046E-01  0.74563453344E-01  0.95176944470E-01  0.12588077650E+00  0.20901687537E-01 0.  0.
         14    1    1    2    0    0  0.24454223422E-01 -0.13601475367E-01  0.99316287720E-02  0.29692531475E-01  0.00000000000E+00 0. -1.
     999901    1    3    3    0    0  0.36656986238E-02 -0.60961977977E-01 -0.10510857324E+00  0.88835669203E+00  0.88000000000E+00 0.  1.
        -11    1    4    4    0    0 -0.15327868446E-01  0.22555866982E-01  0.44204973219E-01  0.51942771053E-01  0.51100000000E-03 0. -1.
         11    1    4    4    0    0 -0.12792053599E-01  0.52007586362E-01  0.50971971251E-01  0.73938005442E-01  0.51100000000E-03 0.  1.
</event>
<event>
 8    1  0.1112958E+005  0.1043930E+01  0.7957747E-01            NaN
         13   -1    0    0    0    0  0.00000000000E+00  0.00000000000E+00  0.74505805969E-08  0.10566000000E+00  0.10566000000E+00 0.  1.
     999900   -1    0    0    0    0 -0.00000000000E+00 -0.00000000000E+00 -0.74505805969E-08  0.93827000000E+00  0.93827000000E+00 0. -1.
     999902    2    1    2    0    0  0.58509681125E-02  0.15557109413E-01 -0.19214767677E-01  0.10185240011E+01  0.10182070890E+01 0.  0.
     999903    2    3    3    0    0  0.28368088357E-01 -0.64127340775E-01 -0.10794121262E+00  0.13019466225E+00  0.19551992869E-01 0.  0.
         14    1    1    2    0    0 -0.58509681125E-02 -0.15557109413E-01  0.19214767677E-01  0.25405998859E-01  0.00000000000E+00 0.  1.
     999901    1    3    3    0    0 -0.22517120245E-01  0.79684450188E-01  0.88726444938E-01  0.88832933889E+00  0.88000000000E+00 0.  1.
        -11    1    4    4    0    0  0.20845826989E-02 -0.27732094515E-01 -0.44379341275E-01  0.52375582138E-01  0.51100000000E-03 0.  1.
         11    1    4    4    0    0  0.26283505659E-01 -0.36395246260E-01 -0.63561871341E-01  0.77819080111E-01  0.51100000000E-03 0. -1.
</event>
<event>
 8    1  0.1112958E+005  0.1043930E+01  0.7957747E-01            NaN
         13   -1    0    0    0    0  0.00000000000E+00  0.00000000000E+00  0.74505805969E-08  0.10566000000E+00  0.10566000000E+00 0.  1.
     999900   -1    0    0    0    0 -0.00000000000E+00 -0.00000000000E+00 -0.74505805969E-08  0.93827000000E+00  0.93827000000E+00 0. -1.
     999902    2    1    2    0    0  0.50843136018E-03 -0.75492821113E-02 -0.22650505232E-01  0.10200491384E+01  0.10197695569E+01 0.  0.
     999903    2    3    3    0    0 -0.17874742520E-02  0.99909493287E-01  0.76683711276E-01  0.12796172893E+00  0.22554613324E-01 0.  0.
         14    1    1    2    0    0 -0.50843136018E-03  0.75492821113E-02  0.22650505232E-01  0.23880861586E-01  0.00000000000E+00 0.  1.
     999901    1    3    3    0    0  0.22959056122E-02 -0.10745877540E+00 -0.99334216508E-01  0.89208740949E+00  0.88000000000E+00 0. -1.
        -11    1    4    4    0    0 -0.33414803322E-02  0.29297652075E-01  0.10901779802E-01  0.31442452700E-01  0.51100000000E-03 0. -1.
         11    1    4    4    0    0  0.15540060802E-02  0.70611841212E-01  0.65781931474E-01  0.96519276229E-01  0.51100000000E-03 0.  1.
</event>
<event>
 8    1  0.1112958E+005  0.1043930E+01  0.7957747E-01            NaN
         13   -1    0    0    0    0  0.00000000000E+00  0.00000000000E+00  0.74505805969E-08  0.10566000000E+00  0.10566000000E+00 0. -1.
     999900   -1    0    0    0    0 -0.00000000000E+00 -0.00000000000E+00 -0.74505805969E-08  0.93827000000E+00  0.93827000000E+00 0. -1.
     999902    2    1    2    0    0 -0.73757888265E-02  0.19735128559E-01 -0.10031079396E-01  0.10205954738E+01  0.10203286828E+01 0.  0.
     999903    2    3    3    0    0  0.81776866001E-02  0.66006086221E-01  0.11108853053E+00  0.13095910311E+00  0.19645536272E-01 0.  0.
         14    1    1    2    0    0  0.73757888265E-02 -0.19735128559E-01  0.10031079396E-01  0.23334526220E-01  0.00000000000E+00 0. -1.
     999901    1    3    3    0    0 -0.15553475427E-01 -0.46270957662E-01 -0.12111960992E+00  0.88963637068E+00  0.88000000000E+00 0. -1.
        -11    1    4    4    0    0 -0.14582796812E-02  0.43805835516E-01  0.83122675607E-01  0.93971900725E-01  0.51100000000E-03 0. -1.
         11    1    4    4    0    0  0.96359662813E-02  0.22200250705E-01  0.27965854918E-01  0.36987202380E-01  0.51100000000E-03 0.  1.
</event>
<event>
 8    1  0.1112958E+005  0.1043930E+01  0.7957747E-01            NaN
         13   -1    0    0    0    0  0.00000000000E+00  0.00000000000E+00  0.74505805969E-08  0.10566000000E+00  0.10566000000E+00 0.  1.
     999900   -1    0    0    0    0 -0.00000000000E+00 -0.00000000000E+00 -0.74505805969E-08  0.93827000000E+00  0.93827000000E+00 0.  1.
     999902    2    1    2    0    0  0.10688814204E-01 -0.21791586716E-01  0.36185831452E-02  0.10193898667E+01  0.10190944422E+01 0.  0.
     999903    2    3    3    0    0  0.90830319750E-01  0.64172466512E-02 -0.90949895240E-01  0.13025455845E+00  0.20075819089E-01 0.  0.
         14    1    1    2    0    0 -0.10688814204E-01  0.21791586716E-01 -0.36185831452E-02  0.24540133347E-01  0.00000000000E+00 0. -1.
     999901    1    3    3    0    0 -0.80141505546E-01 -0.28208833367E-01  0.94568478385E-01  0.88913530820E+00  0.88000000000E+00 0.  1.
        -11    1    4    4    0    0  0.18859285097E-01 -0.21920302329E-02 -0.95515748034E-02  0.21259617427E-01  0.51100000000E-03 0. -1.
         11    1    4    4    0    0  0.71971034653E-01  0.86092768842E-02 -0.81398320437E-01  0.10899494102E+00  0.51100000000E-03 0.  1.
</event>
<event>
 8    1  0.1112958E+005  0.1043930E+01  0.7957747E-01            NaN
         13   -1    0    0    0    0  0.00000000000E+00  0.00000000000E+00  0.74505805969E-08  0.10566000000E+00  0.10566000000E+00 0.  1.
     999900   -1    0    0    0    0 -0.00000000000E+00 -0.00000000000E+00 -0.74505805969E-08  0.93827000000E+00  0.93827000000E+00 0. -1.
     999902    2    1    2    0    0  0.14809724915E-01 -0.17394795696E-01  0.66107371754E-02  0.10201474704E+01  0.10198702136E+01 0.  0.
     999903    2    3    3    0    0 -0.12261489914E+00  0.23652085895E-01 -0.21647740118E-01  0.12808866327E+00  0.18553876898E-01 0.  0.
         14    1    1    2    0    0 -0.14809724915E-01  0.17394795696E-01 -0.66107371754E-02  0.23782529625E-01  0.00000000000E+00 0. -1.
     999901    1    3    3    0    0  0.13742462406E+00 -0.41046881591E-01  0.28258477294E-01  0.89205880710E+00  0.88000000000E+00 0. -1.
        -11    1    4    4    0    0 -0.13723496477E-01  0.85933351301E-02 -0.46435040275E-02  0.16852388996E-01  0.51100000000E-03 0.  1.
         11    1    4    4    0    0 -0.10889140267E+00  0.15058750765E-01 -0.17004236091E-01  0.11123627428E+00  0.51100000000E-03 0. -1.
</event>
<event>
 8    1  0.1112958E+005  0.1043930E+01  0.7957747E-01            NaN
         13   -1    0    0    0    0  0.00000000000E+00  0.00000000000E+00  0.74505805969E-08  0.10566000000E+00  0.10566000000E+00 0.  1.
     999900   -1    0    0    0    0 -0.00000000000E+00 -0.00000000000E+00 -0.74505805969E-08  0.93827000000E+00  0.93827000000E+00 0.  1.
     999902    2    1    2    0    0  0.65068570681E-02 -0.45320712796E-02  0.21938768469E-01  0.10206021535E+01  0.10203355171E+01 0.  0.
     999903    2    3    3    0    0  0.83014876585E-01 -0.10000870444E+00  0.12619537763E-01  0.13208872505E+00  0.19873798166E-01 0.  0.
         14    1    1    2    0    0 -0.65068570681E-02  0.45320712796E-02 -0.21938768469E-01  0.23327846470E-01  0.00000000000E+00 0. -1.
     999901    1    3    3    0    0 -0.76508019517E-01  0.95476633160E-01  0.93192307058E-02  0.88851342848E+00  0.88000000000E+00 0.  1.
        -11    1    4    4    0    0  0.38053478947E-01 -0.38184395942E-01  0.13740140753E-01  0.55634233547E-01  0.51100000000E-03 0. -1.
         11    1    4    4    0    0  0.44961397638E-01 -0.61824308498E-01 -0.11206029901E-02  0.76454491502E-01  0.51100000000E-03 0.  1.
</event>
<event>
 8    1  0.1112958E+005  0.1043930E+01  0.7957747E-01            NaN
         13   -1    0    0    0    0  0.00000000000E+00  0.00000000000E+00  0.74505805969E-08  0.10566000000E+00  0.10566000000E+00 0. -1.
     999900   -1    0    0    0    0 -0.00000000000E+00 -0.00000000000E+00 -0.74505805969E-08  0.93827000000E+00  0.93827000000E+00 0.  1.
     999902    2    1    2    0    0  0.41550560920E-02 -0.16678895560E-01 -0.16412058906E-01  0.10201643583E+01  0.10198874998E+01 0.  0.
     999903    2    3    3    0    0  0.71690601388E-01  0.10365346819E+00 -0.20945467619E-01  0.12939981059E+00  0.20542993279E-01 0.  0.
         14    1    1    2    0    0 -0.41550560920E-02  0.16678895560E-01  0.16412058906E-01  0.23765641708E-01  0.00000000000E+00 0. -1.
     999901    1    3    3    0    0 -0.67535545296E-01 -0.12033236375E+00  0.45334087130E-02  0.89076454770E+00  0.88000000000E+00 0. -1.
        -11    1    4    4    0    0  0.47914416534E-01  0.57541465641E-01 -0.20010465368E-01  0.77508008780E-01  0.51100000000E-03 0. -1.
         11    1    4    4    0    0  0.23776184855E-01  0.46112002547E-01 -0.93500225151E-03  0.51891801813E-01  0.51100000000E-03 0.  1.
</event>
<event>
 8    1  0.1112958E+005  0.1043930E+01  0.7957747E-01            NaN
         13   -1    0    0    0    0  0.00000000000E+00  0.00000000000E+00  0.74505805969E-08  0.10566000000E+00  0.10566000000E+00 0.  1.
     999900   -1    0    0    0    0 -0.00000000000E+00 -0.00000000000E+00 -0.74505805969E-08  0.93827000000E+00  0.93827000000E+00 0.  1.
     999902    2    1    2    0    0  0.40624757377E-02  0.20641151706E-01 -0.10968204687E-01  0.10202052794E+01  0.10199293847E+01 0.  0.
     999903    2    3    3    0    0 -0.90037999435E-01 -0.74433992082E-01  0.48658675812E-01  0.12810127916E+00  0.19874870330E-01 0.  0.
         14    1    1    2    0    0 -0.40624757377E-02 -0.20641151706E-01  0.10968204687E-01  0.23724720587E-01  0.00000000000E+00 0.  1.
     999901    1    3    3    0    0  0.94100475173E-01  0.95075143787E-01 -0.59626880499E-01  0.89210400026E+00  0.88000000000E+00 0. -1.
        -11    1    4    4    0    0 -0.61671313190E-01 -0.38485063129E-01  0.29115304757E-01  0.78309725110E-01  0.51100000000E-03 0.  1.
         11    1    4    4    0    0 -0.28366686244E-01 -0.35948928952E-01  0.19543371055E-01  0.49791554048E-01  0.51100000000E-03 0. -1.
</event>
<event>
 8    1  0.1112958E+005  0.1043930E+01  0.7957747E-01            NaN
         13   -1    0    0    0    0  0.00000000000E+00  0.00000000000E+00  0.74505805969E-08  0.10566000000E+00  0.10566000000E+00 0.  1.
     999900   -1    0    0    0    0 -0.00000000000E+00 -0.00000000000E+00 -0.74505805969E-08  0.93827000000E+00  0.93827000000E+00 0. -1.
     999902    2    1    2    0    0  0.17843202494E-01  0.15291241457E-01 -0.64607793168E-02  0.10195590417E+01  0.10192677253E+01 0.  0.
     999903    2    3    3    0    0 -0.12912384955E-01  0.78045656220E-01 -0.10321834581E+00  0.13150158328E+00  0.19513722148E-01 0.  0.
         14    1    1    2    0    0 -0.17843202494E-01 -0.15291241457E-01  0.64607793168E-02  0.24370958329E-01  0.00000000000E+00 0.  1.
     999901    1    3    3    0    0  0.30755587449E-01 -0.62754414763E-01  0.96757566497E-01  0.88805745839E+00  0.88000000000E+00 0.  1.
        -11    1    4    4    0    0 -0.15295742558E-01  0.75068265207E-01 -0.92462854654E-01  0.12007849430E+00  0.51100000000E-03 0.  1.
         11    1    4    4    0    0  0.23833576030E-02  0.29773910125E-02 -0.10755491160E-01  0.11423088978E-01  0.51100000000E-03 0. -1.
</event>
<event>
 8    1  0.1112958E+005  0.1043930E+01  0.7957747E-01            NaN
         13   -1    0    0    0    0  0.00000000000E+00  0.00000000000E+00  0.74505805969E-08  0.10566000000E+00  0.10566000000E+00 0. -1.
     999900   -1    0    0    0    0 -0.00000000000E+00 -0.00000000000E+00 -0.74505805969E-08  0.93827000000E+00  0.93827000000E+00 0.  1.
     999902    2    1    2    0    0 -0.60440738797E-02 -0.15880399161E-01  0.17500808092E-01  0.10195374563E+01  0.10192456174E+01 0.  0.
     999903    2    3    3    0    0  0.39566996053E-01 -0.42322769192E-02 -0.11967767144E+00  0.12766639848E+00  0.19811736752E-01 0.  0.
         14    1    1    2    0    0  0.60440738797E-02  0.15880399161E-01 -0.17500808092E-01  0.24392543747E-01  0.00000000000E+00 0.  1.
     999901    1    3    3    0    0 -0.45611069932E-01 -0.11648122242E-01  0.13717847954E+00  0.89187105778E+00  0.88000000000E+00 0. -1.
        -11    1    4    4    0    0  0.22228245178E-02 -0.64394041897E-02 -0.23335848430E-01  0.24315217830E-01  0.51100000000E-03 0. -1.
         11    1    4    4    0    0  0.37344171535E-01  0.22071272704E-02 -0.96341823014E-01  0.10335118065E+00  0.51100000000E-03 0.  1.
</event>
<event>
 8    1  0.1112958E+005  0.1043930E+01  0.7957747E-01            NaN
         13   -1    0    0    0    0  0.00000000000E+00  0.00000000000E+00  0.74505805969E-08  0.10566000000E+00  0.10566000000E+00 0. -1.
     999900   -1    0    0    0    0 -0.00000000000E+00 -0.00000000000E+00 -0.74505805969E-08  0.93827000000E+00  0.93827000000E+00 0.  1.
     999902    2    1    2    0    0 -0.17590006214E-01 -0.11687793691E-01 -0.99228417145E-02  0.10205959985E+01  0.10203292196E+01 0.  0.
     999903    2    3    3    0    0 -0.39394609403E-01  0.12223150499E+00 -0.78013222187E-02  0.13019478546E+00  0.19933526279E-01 0.  0.
         14    1    1    2    0    0  0.17590006214E-01  0.11687793691E-01  0.99228417145E-02  0.23334001535E-01  0.00000000000E+00 0. -1.
     999901    1    3    3    0    0  0.21804603189E-01 -0.13391929868E+00 -0.21215194958E-02  0.89040121301E+00  0.88000000000E+00 0. -1.
        -11    1    4    4    0    0 -0.21600391404E-01  0.87686252505E-01  0.11444622896E-02  0.90316259345E-01  0.51100000000E-03 0. -1.
         11    1    4    4    0    0 -0.17794217999E-01  0.34545252485E-01 -0.89457845083E-02  0.39878526113E-01  0.51100000000E-03 0.  1.
</event>
<event>
 7    1  0.1112958E+005  0.1043930E+01  0.7957747E-01            NaN
         13   -1    0    0    0    0  0.00000000000E+00  0.00000000000E+00  0.74505805969E-08  0.10566000000E+00  0.10566000000E+00 0. -1.
     999900   -1    0    0    0    0 -0.00000000000E+00 -0.00000000000E+00 -0.74505805969E-08  0.93827000000E+00  0.93827000000E+00 0. -1.
     999902    2    1    2    0    0  0.11880930788E-01 -0.18752482464E-01  0.88194917798E-02  0.10200428581E+01  0.10197631278E+01 0.  0.
         14    1    1    2    0    0 -0.11880930788E-01  0.18752482464E-01 -0.88194917798E-02  0.23887141943E-01  0.00000000000E+00 0.  1.
     999901    1    3    3    0    0  0.86407292753E-02 -0.11928982770E-01  0.12931511616E+00  0.88957257270E+00  0.88000000000E+00 0.  1.
        -11    1    3    3    0    0 -0.22295548746E-01 -0.69006871369E-02 -0.71540765232E-01  0.75253260313E-01  0.51100000000E-03 0. -1.
         11    1    3    3    0    0  0.25535750258E-01  0.77187443265E-04 -0.48954859151E-01  0.55217025044E-01  0.51100000000E-03 0.  1.
</event>
<event>
 8    1  0.1112958E+005  0.1043930E+01  0.7957747E-01            NaN
         13   -1    0    0    0    0  0.00000000000E+00  0.00000000000E+00  0.74505805969E-08  0.10566000000E+00  0.10566000000E+00 0. -1.
     999900   -1    0    0    0    0 -0.00000000000E+00 -0.00000000000E+00 -0.74505805969E-08  0.93827000000E+00  0.93827000000E+00 0.  1.
     999902    2    1    2    0    0  0.30696905126E-03 -0.77449487853E-02 -0.21884207757E-01  0.10207136908E+01  0.10204496272E+01 0.  0.
     999903    2    3    3    0    0 -0.12761790108E+00  0.19563245935E-01  0.35720627617E-02  0.13068080853E+00  0.19891325162E-01 0.  0.
         14    1    1    2    0    0 -0.30696905126E-03  0.77449487853E-02  0.21884207757E-01  0.23216309156E-01  0.00000000000E+00 0. -1.
     999901    1    3    3    0    0  0.12792487013E+00 -0.27308194721E-01 -0.25456270519E-01  0.89003288232E+00  0.88000000000E+00 0.  1.
        -11    1    4    4    0    0 -0.48273208819E-01 -0.11365195850E-02  0.58827566579E-02  0.48646298043E-01  0.51100000000E-03 0. -1.
         11    1    4    4    0    0 -0.79344692263E-01  0.20699765520E-01 -0.23106938963E-02  0.82034510483E-01  0.51100000000E-03 0.  1.
</event>
<event>
 8    1  0.1112958E+005  0.1043930E+01  0.7957747E-01            NaN
         13   -1    0    0    0    0  0.00000000000E+00  0.00000000000E+00  0.74505805969E-08  0.10566000000E+00  0.10566000000E+00 0.  1.
     999900   -1    0    0    0    0 -0.00000000000E+00 -0.00000000000E+00 -0.74505805969E-08  0.93827000000E+00  0.93827000000E+00 0. -1.
     999902    2    1    2    0    0  0.20169047344E-01  0.79260240360E-02 -0.84897935068E-02  0.10206557885E+01  0.10203903908E+01 0.  0.
     999903    2    3    3    0    0 -0.11359756790E+00 -0.87674330579E-02  0.54943033183E-01  0.12813357455E+00  0.20449956439E-01 0.  0.
         14    1    1    2    0    0 -0.20169047344E-01 -0.79260240360E-02  0.84897935068E-02  0.23274211513E-01  0.00000000000E+00 0.  1.
     999901    1    3    3    0    0  0.13376661524E+00  0.16693457094E-01 -0.63432826689E-01  0.89252221393E+00  0.88000000000E+00 0.  1.
        -11    1    4    4    0    0 -0.56859589599E-01 -0.88496695246E-02  0.37835631769E-01  0.68870354525E-01  0.51100000000E-03 0.  1.
         11    1    4    4    0    0 -0.56737978297E-01  0.82236466750E-04  0.17107401414E-01  0.59263220029E-01  0.51100000000E-03 0. -1.
</event>
<event>
 8    1  0.1112958E+005  0.1043930E+01  0.7957747E-01            NaN
         13   -1    0    0    0    0  0.00000000000E+00  0.00000000000E+00  0.74505805969E-08  0.10566000000E+00  0.10566000000E+00 0.  1.
     999900   -1    0    0    0    0 -0.00000000000E+00 -0.00000000000E+00 -0.74505805969E-08  0.93827000000E+00  0.93827000000E+00 0.  1.
     999902    2    1    2    0    0  0.18520117181E-01  0.20353128056E-01 -0.12507774727E-01  0.10137027112E+01  0.10132519418E+01 0.  0.
     999903    2    3    3    0    0  0.69903095643E-01 -0.33637027923E-01  0.95345992759E-01  0.12399063269E+00  0.16276554640E-01 0.  0.
         14    1    1    2    0    0 -0.18520117181E-01 -0.20353128056E-01  0.12507774727E-01  0.30227288841E-01  0.00000000000E+00 0.  1.
     999901    1    3    3    0    0 -0.51382978462E-01  0.53990155979E-01 -0.10785376749E+00  0.88971207847E+00  0.88000000000E+00 0.  1.
        -11    1    4    4    0    0  0.32367347139E-01 -0.20136890809E-01  0.57579766966E-01  0.69056717393E-01  0.51100000000E-03 0. -1.
         11    1    4    4    0    0  0.37535748504E-01 -0.13500137114E-01  0.37766225793E-01  0.54933915293E-01  0.51100000000E-03 0.  1.
</event>
<event>
 8    1  0.1112958E+005  0.1043930E+01  0.7957747E-01            NaN
         13   -1    0    0    0    0  0.00000000000E+00  0.00000000000E+00  0.74505805969E-08  0.10566000000E+00  0.10566000000E+00 0. -1.
     999900   -1    0    0    0    0 -0.00000000000E+00 -0.00000000000E+00 -0.74505805969E-08  0.93827000000E+00  0.93827000000E+00 0.  1.
     999902    2    1    2    0    0 -0.92261841387E-02  0.45023440135E-02  0.18616034692E-01  0.10226708767E+01  0.10224498872E+01 0.  0.
     999903    2    3    3    0    0  0.53554578034E-01 -0.11418259005E+00  0.32680977008E-01  0.13237577941E+00  0.23442355193E-01 0.  0.
         14    1    1    2    0    0  0.92261841387E-02 -0.45023440135E-02 -0.18616034692E-01  0.21259123290E-01  0.00000000000E+00 0.  1.
     999901    1    3    3    0    0 -0.62780762173E-01  0.11868493407E+00 -0.14064942316E-01  0.89029509730E+00  0.88000000000E+00 0.  1.
        -11    1    4    4    0    0  0.44357928146E-01 -0.68349867761E-01  0.22459149984E-01  0.84522214543E-01  0.51100000000E-03 0. -1.
         11    1    4    4    0    0  0.91966498882E-02 -0.45832722291E-01  0.10221827024E-01  0.47853564867E-01  0.51100000000E-03 0.  1.
</event>
<event>
 8    1  0.1112958E+005  0.1043930E+01  0.7957747E-01            NaN
         13   -1    0    0    0    0  0.00000000000E+00  0.00000000000E+00  0.74505805969E-08  0.10566000000E+00  0.10566000000E+00 0. -1.
     999900   -1    0    0    0    0 -0.00000000000E+00 -0.00000000000E+00 -0.74505805969E-08  0.93827000000E+00  0.93827000000E+00 0.  1.
     999902    2    1    2    0    0  0.19812864316E-01  0.41653998571E-02 -0.12066639635E-01  0.10203608689E+01  0.10200886230E+01 0.  0.
     999903    2    3    3    0    0  0.11562630690E+00  0.35411955545E-01  0.49735235401E-01  0.13245544896E+00  0.21151900006E-01 0.  0.
         14    1    1    2    0    0 -0.19812864316E-01 -0.41653998571E-02  0.12066639635E-01  0.23569131092E-01  0.00000000000E+00 0. -1.
     999901    1    3    3    0    0 -0.95813442588E-01 -0.31246555688E-01 -0.61801875036E-01  0.88790541995E+00  0.88000000000E+00 0.  1.
        -11    1    4    4    0    0  0.88682927732E-01  0.32449566801E-01  0.46152327660E-01  0.10510915529E+00  0.51100000000E-03 0. -1.
         11    1    4    4    0    0  0.26943379172E-01  0.29623887442E-02  0.35829077408E-02  0.27346293664E-01  0.51100000000E-03 0.  1.
</event>
<event>
 8    1  0.1112958E+005  0.1043930E+01  0.7957747E-01            NaN
         13   -1    0    0    0    0  0.00000000000E+00  0.00000000000E+00  0.74505805969E-08  0.10566000000E+00  0.10566000000E+00 0.  1.
     999900   -1    0    0    0    0 -0.00000000000E+00 -0.00000000000E+00 -0.74505805969E-08  0.93827000000E+00  0.93827000000E+00 0. -1.
     999902    2    1    2    0    0  0.34096689260E-02  0.22450134674E-01  0.80190713761E-02  0.10198480587E+01  0.10195636925E+01 0.  0.
     999903    2    3    3    0    0 -0.93442002525E-01 -0.49232334331E-01  0.72429351790E-01  0.12930479373E+00  0.17846234969E-01 0.  0.
         14    1    1    2    0    0 -0.34096689260E-02 -0.22450134674E-01 -0.80190713761E-02  0.24081941259E-01  0.00000000000E+00 0. -1.
     999901    1    3    3    0    0  0.96851671451E-01  0.71682469004E-01 -0.64410280414E-01  0.89054326501E+00  0.88000000000E+00 0. -1.
        -11    1    4    4    0    0 -0.84176921470E-01 -0.41864955021E-01  0.69994676367E-01  0.11720897750E+00  0.51100000000E-03 0.  1.
         11    1    4    4    0    0 -0.92650810557E-02 -0.73673793095E-02  0.24346754231E-02  0.12095816230E-01  0.51100000000E-03 0. -1.
</event>
<event>
 8    1  0.1112958E+005  0.1043930E+01  0.7957747E-01            NaN
         13   -1    0    0    0    0  0.00000000000E+00  0.00000000000E+00  0.74505805969E-08  0.10566000000E+00  0.10566000000E+00 0.  1.
     999900   -1    0    0    0    0 -0.00000000000E+00 -0.00000000000E+00 -0.74505805969E-08  0.93827000000E+00  0.93827000000E+00 0. -1.
     999902    2    1    2    0    0  0.13106923595E-01 -0.13843604675E-01  0.14264526317E-01  0.10201200536E+01  0.10198421497E+01 0.  0.
     999903    2    3    3    0    0  0.33697357754E-01 -0.90021447071E-01 -0.86481052463E-01  0.13086379059E+00  0.20173903964E-01 0.  0.
         14    1    1    2    0    0 -0.13106923595E-01  0.13843604675E-01 -0.14264526317E-01  0.23809946400E-01  0.00000000000E+00 0. -1.
     999901    1    3    3    0    0 -0.20590434159E-01  0.76177842397E-01  0.10074557878E+00  0.88925626301E+00  0.88000000000E+00 0.  1.
        -11    1    4    4    0    0  0.93863839091E-02 -0.15632403280E-01 -0.76472830060E-02  0.19779238953E-01  0.51100000000E-03 0.  1.
         11    1    4    4    0    0  0.24310973845E-01 -0.74389043792E-01 -0.78833769457E-01  0.11108455164E+00  0.51100000000E-03 0. -1.
</event>
<event>
 8    1  0.1112958E+005  0.1043930E+01  0.7957747E-01            NaN
         13   -1    0    0    0    0  0.00000000000E+00  0.00000000000E+00  0.74505805969E-08  0.10566000000E+00  0.10566000000E+00 0.  1.
     999900   -1    0    0    0    0 -0.00000000000E+00 -0.00000000000E+00 -0.74505805969E-08  0.93827000000E+00  0.93827000000E+00 0. -1.
     999902    2    1    2    0    0 -0.27923738713E-02 -0.48228026710E-02  0.23626696007E-01  0.10196549605E+01  0.10193659603E+01 0.  0.
     999903    2    3    3    0    0  0.11721940005E+00 -0.43221469495E-01  0.32616920581E-01  0.13063409033E+00  0.19822181396E-01 0.  0.
         14    1    1    2    0    0  0.27923738713E-02  0.48228026710E-02 -0.23626696007E-01  0.24275039478E-01  0.00000000000E+00 0. -1.
     999901    1    3    3    0    0 -0.12001177392E+00  0.38398666824E-01 -0.89902245734E-02  0.88902087019E+00  0.88000000000E+00 0. -1.
        -11    1    4    4    0    0  0.63987823060E-01 -0.26023603717E-01  0.80924961124E-02  0.69551556882E-01  0.51100000000E-03 0. -1.
         11    1    4    4    0    0  0.53231576991E-01 -0.17197865777E-01  0.24524424468E-01  0.61082533451E-01  0.51100000000E-03 0.  1.
</event>
<event>
 8    1  0.1112958E+005  0.1043930E+01  0.7957747E-01            NaN
         13   -1    0    0    0    0  0.00000000000E+00  0.00000000000E+00  0.74505805969E-08  0.10566000000E+00  0.10566000000E+00 0. -1.
     999900   -1    0    0    0    0 -0.00000000000E+00 -0.00000000000E+00 -0.74505805969E-08  0.93827000000E+00  0.93827000000E+00 0. -1.
     999902    2    1    2    0    0  0.44180789671E-02  0.45003648014E-02  0.35822879964E-01  0.10075562260E+01  0.10068994474E+01 0.  0.
     999903    2    3    3    0    0 -0.75219631189E-01 -0.70252742886E-01  0.59776936596E-01  0.12048013637E+00  0.18674590006E-01 0.  0.
         14    1    1    2    0    0 -0.44180789671E-02 -0.45003648014E-02 -0.35822879964E-01  0.36373773986E-01  0.00000000000E+00 0.  1.
     999901    1    3    3    0    0  0.79637710156E-01  0.74753107687E-01 -0.23954056632E-01  0.88707608964E+00  0.88000000000E+00 0. -1.
        -11    1    4    4    0    0 -0.14625369804E-01 -0.17883098734E-01  0.55694374245E-02  0.23769442914E-01  0.51100000000E-03 0. -1.
         11    1    4    4    0    0 -0.60594261385E-01 -0.52369644152E-01  0.54207499171E-01  0.96710693456E-01  0.51100000000E-03 0.  1.
</event>
<event>
 8    1  0.1112958E+005  0.1043930E+01  0.7957747E-01            NaN
         13   -1    0    0    0    0  0.00000000000E+00  0.00000000000E+00  0.74505805969E-08  0.10566000000E+00  0.10566000000E+00 0.  1.
     999900   -1    0    0    0    0 -0.00000000000E+00 -0.00000000000E+00 -0.74505805969E-08  0.93827000000E+00  0.93827000000E+00 0.  1.
     999902    2    1    2    0    0 -0.97161201228E-02  0.11551527504E-03 -0.21839540562E-01  0.10200264047E+01  0.10197462844E+01 0.  0.
     999903    2    3    3    0    0 -0.23572669425E-01  0.68773043890E-01 -0.10936133365E+00  0.13291540580E+00  0.20523193978E-01 0.  0.
         14    1    1    2    0    0  0.97161201228E-02 -0.11551527504E-03  0.21839540562E-01  0.23903595253E-01  0.00000000000E+00 0.  1.
     999901    1    3    3    0    0  0.13856549302E-01 -0.68657528615E-01  0.87521793086E-01  0.88711099895E+00  0.88000000000E+00 0. -1.
        -11    1    4    4    0    0 -0.10966664449E-01  0.25811334753E-01 -0.25783670274E-01  0.38099232337E-01  0.51100000000E-03 0. -1.
         11    1    4    4    0    0 -0.12606004976E-01  0.42961709137E-01 -0.83577663375E-01  0.94816173460E-01  0.51100000000E-03 0.  1.
</event>
<event>
 8    1  0.1112958E+005  0.1043930E+01  0.7957747E-01            NaN
         13   -1    0    0    0    0  0.00000000000E+00  0.00000000000E+00  0.74505805969E-08  0.10566000000E+00  0.10566000000E+00 0. -1.
     999900   -1    0    0    0    0 -0.00000000000E+00 -0.00000000000E+00 -0.74505805969E-08  0.93827000000E+00  0.93827000000E+00 0.  1.
     999902    2    1    2    0    0 -0.86680249533E-02 -0.18391433534E-01 -0.11359539025E-01  0.10206401178E+01  0.10203743585E+01 0.  0.
     999903    2    3    3    0    0  0.51052105626E-01 -0.11636014051E+00 -0.33830298153E-01  0.13290744606E+00  0.19336503201E-01 0.  0.
         14    1    1    2    0    0  0.86680249533E-02  0.18391433534E-01  0.11359539025E-01  0.23289882157E-01  0.00000000000E+00 0. -1.
     999901    1    3    3    0    0 -0.59720130579E-01  0.97968706974E-01  0.22470759129E-01  0.88773267179E+00  0.88000000000E+00 0.  1.
        -11    1    4    4    0    0  0.82055843460E-02 -0.36813952396E-01 -0.15114624345E-01  0.40636334672E-01  0.51100000000E-03 0. -1.
         11    1    4    4    0    0  0.42846521280E-01 -0.79546188112E-01 -0.18715673809E-01  0.92271111384E-01  0.51100000000E-03 0.  1.
</event>
<event>
 8    1  0.1112958E+005  0.1043930E+01  0.7957747E-01            NaN
         13   -1    0    0    0    0  0.00000000000E+00  0.00000000000E+00  0.74505805969E-08  0.10566000000E+00  0.10566000000E+00 0.  1.
     999900   -1    0    0    0    0 -0.00000000000E+00 -0.00000000000E+00 -0.74505805969E-08  0.93827000000E+00  0.93827000000E+00 0.  1.
     999902    2    1    2    0    0  0.11911496226E-01  0.91253568531E-02  0.19169843980E-01  0.10195858262E+01  0.10192951575E+01 0.  0.
     999903    2    3    3    0    0  0.97638004168E-01  0.52573242749E-01 -0.66045037323E-01  0.13026117853E+00  0.17575607114E-01 0.  0.
         14    1    1    2    0    0 -0.11911496226E-01 -0.91253568531E-02 -0.19169843980E-01  0.24344173805E-01  0.00000000000E+00 0. -1.
     999901    1    3    3    0    0 -0.85726507942E-01 -0.43447885896E-01  0.85214881303E-01  0.88932464767E+00  0.88000000000E+00 0.  1.
        -11    1    4    4    0    0  0.62259271793E-01  0.32100039396E-01 -0.31779959471E-01  0.76921105026E-01  0.51100000000E-03 0.  1.
         11    1    4    4    0    0  0.35378732375E-01  0.20473203353E-01 -0.34265077852E-01  0.53340073502E-01  0.51100000000E-03 0. -1.
</event>
<event>
 8    1  0.1413701E+005  0.1043930E+01  0.7957747E-01            NaN
         13   -1    0    0    0    0  0.00000000000E+00  0.00000000000E+00  0.74505805969E-08  0.10566000000E+00  0.10566000000E+00 0. -1.
     999900   -1    0    0    0    0 -0.00000000000E+00 -0.00000000000E+00 -0.74505805969E-08  0.93827000000E+00  0.93827000000E+00 0. -1.
     999902    2    1    2    0    0  0.52199318070E-02 -0.21159488914E-01 -0.10039238624E-01  0.10199350428E+01  0.10196527515E+01 0.  0.
     999903    2    3    3    0    0  0.35667283811E-03  0.11692034192E+00 -0.49614248252E-01  0.12827598667E+00  0.17962782540E-01 0.  0.
         14    1    1    2    0    0 -0.52199318070E-02  0.21159488914E-01  0.10039238624E-01  0.23994957206E-01  0.00000000000E+00 0. -1.
     999901    1    3    3    0    0  0.48632589689E-02 -0.13807983084E+00  0.39575009628E-01  0.89165905612E+00  0.88000000000E+00 0.  1.
        -11    1    4    4    0    0 -0.86900603397E-02  0.57866920965E-01 -0.25996641789E-01  0.64032680687E-01  0.51100000000E-03 0.  1.
         11    1    4    4    0    0  0.90467331778E-02  0.59053420959E-01 -0.23617606463E-01  0.64243305987E-01  0.51100000000E-03 0. -1.
</event>
<event>
 8    1  0.1112958E+005  0.1043930E+01  0.7957747E-01            NaN
         13   -1    0    0    0    0  0.00000000000E+00  0.00000000000E+00  0.74505805969E-08  0.10566000000E+00  0.10566000000E+00 0. -1.
     999900   -1    0    0    0    0 -0.00000000000E+00 -0.00000000000E+00 -0.74505805969E-08  0.93827000000E+00  0.93827000000E+00 0. -1.
     999902    2    1    2    0    0  0.36797259759E-02 -0.23553106918E-01  0.41296960099E-02  0.10197361244E+01  0.10194490766E+01 0.  0.
     999903    2    3    3    0    0 -0.28641467302E-02  0.42114504728E-01 -0.11983060109E+00  0.12860133505E+00  0.19927257011E-01 0.  0.
         14    1    1    2    0    0 -0.36797259759E-02  0.23553106918E-01 -0.41296960099E-02  0.24193875627E-01  0.00000000000E+00 0. -1.
     999901    1    3    3    0    0  0.65438727061E-02 -0.65667611646E-01  0.12396029710E+00  0.89113478933E+00  0.88000000000E+00 0.  1.
        -11    1    4    4    0    0  0.60693285028E-02  0.33370097431E-01 -0.81389388164E-01  0.88175358109E-01  0.51100000000E-03 0.  1.
         11    1    4    4    0    0 -0.89334752331E-02  0.87444072977E-02 -0.38441212931E-01  0.40425976937E-01  0.51100000000E-03 0. -1.
</event>
<event>
 8    1  0.1112958E+005  0.1043930E+01  0.7957747E-01            NaN
         13   -1    0    0    0    0  0.00000000000E+00  0.00000000000E+00  0.74505805969E-08  0.10566000000E+00  0.10566000000E+00 0. -1.
     999900   -1    0    0    0    0 -0.00000000000E+00 -0.00000000000E+00 -0.74505805969E-08  0.93827000000E+00  0.93827000000E+00 0.  1.
     999902    2    1    2    0    0  0.12800331625E-01  0.20008957903E-01  0.46317872623E-02  0.10197295798E+01  0.10194423748E+01 0.  0.
     999903    2    3    3    0    0  0.35446443446E-01  0.33425726110E-01  0.12130106249E+00  0.13163917005E+00  0.15530415674E-01 0.  0.
         14    1    1    2    0    0 -0.12800331625E-01 -0.20008957903E-01 -0.46317872623E-02  0.24200420230E-01  0.00000000000E+00 0. -1.
     999901    1    3    3    0    0 -0.22646111821E-01 -0.13416768207E-01 -0.11666927523E+00  0.88809040972E+00  0.88000000000E+00 0.  1.
        -11    1    4    4    0    0  0.31643128076E-01  0.34678136027E-01  0.10864087846E+00  0.11835101295E+00  0.51100000000E-03 0.  1.
         11    1    4    4    0    0  0.38033153701E-02 -0.12524099174E-02  0.12660184033E-01  0.13288157101E-01  0.51100000000E-03 0. -1.
</event>
<event>
 8    1  0.1112958E+005  0.1043930E+01  0.7957747E-01            NaN
         13   -1    0    0    0    0  0.00000000000E+00  0.00000000000E+00  0.74505805969E-08  0.10566000000E+00  0.10566000000E+00 0.  1.
     999900   -1    0    0    0    0 -0.00000000000E+00 -0.00000000000E+00 -0.74505805969E-08  0.93827000000E+00  0.93827000000E+00 0. -1.
     999902    2    1    2    0    0 -0.30832461445E-02  0.23015591076E-01 -0.53494872524E-02  0.10201005885E+01  0.10198222246E+01 0.  0.
     999903    2    3    3    0    0  0.77977772689E-01 -0.98065781221E-01  0.47883678849E-02  0.12806114788E+00  0.26063358350E-01 0.  0.
         14    1    1    2    0    0  0.30832461445E-02 -0.23015591076E-01  0.53494872524E-02  0.23829411516E-01  0.00000000000E+00 0. -1.
     999901    1    3    3    0    0 -0.81061018833E-01  0.12108137230E+00 -0.10137855137E-01  0.89203944061E+00  0.88000000000E+00 0. -1.
        -11    1    4    4    0    0  0.50839112856E-01 -0.62064012786E-01 -0.94364266196E-02  0.80782822106E-01  0.51100000000E-03 0. -1.
         11    1    4    4    0    0  0.27138659833E-01 -0.36001768435E-01  0.14224794505E-01  0.47278325770E-01  0.51100000000E-03 0.  1.
</event>
<event>
 8    1  0.1112958E+005  0.1043930E+01  0.7957747E-01            NaN
         13   -1    0    0    0    0  0.00000000000E+00  0.00000000000E+00  0.74505805969E-08  0.10566000000E+00  0.10566000000E+00 0.  1.
     999900   -1    0    0    0    0 -0.00000000000E+00 -0.00000000000E+00 -0.74505805969E-08  0.93827000000E+00  0.93827000000E+00 0. -1.
     999902    2    1    2    0    0 -0.10772006388E-01  0.14597349570E-01  0.13493723990E-01  0.10213202825E+01  0.10210699879E+01 0.  0.
     999903    2    3    3    0    0 -0.10912277585E+00 -0.43926914031E-01 -0.55069934883E-01  0.13126470080E+00  0.18983412808E-01 0.  0.
         14    1    1    2    0    0  0.10772006388E-01 -0.14597349570E-01 -0.13493723990E-01  0.22609717451E-01  0.00000000000E+00 0. -1.
     999901    1    3    3    0    0  0.98350769466E-01  0.58524263600E-01  0.68563658872E-01  0.89005558175E+00  0.88000000000E+00 0. -1.
        -11    1    4    4    0    0 -0.35948061967E-01 -0.71164512488E-02 -0.23168925273E-01  0.43358589194E-01  0.51100000000E-03 0.  1.
         11    1    4    4    0    0 -0.73174713887E-01 -0.36810462782E-01 -0.31901009610E-01  0.87906111607E-01  0.51100000000E-03 0. -1.
</event>
<event>
 8    1  0.1112958E+005  0.1043930E+01  0.7957747E-01            NaN
         13   -1    0    0    0    0  0.00000000000E+00  0.00000000000E+00  0.74505805969E-08  0.10566000000E+00  0.10566000000E+00 0. -1.
     999900   -1    0    0    0    0 -0.00000000000E+00 -0.00000000000E+00 -0.74505805969E-08  0.93827000000E+00  0.93827000000E+00 0. -1.
     999902    2    1    2    0    0 -0.58291000535E-02 -0.19373030433E-01  0.13649248157E-01  0.10195251912E+01  0.10192330552E+01 0.  0.
     999903    2    3    3    0    0 -0.74612013160E-01 -0.35126891149E-01  0.10163890083E+00  0.13232653691E+00  0.19467799546E-01 0.  0.
         14    1    1    2    0    0  0.58291000535E-02  0.19373030433E-01 -0.13649248157E-01  0.24404808765E-01  0.00000000000E+00 0.  1.
     999901    1    3    3    0    0  0.68782913107E-01  0.15753860716E-01 -0.87989652670E-01  0.88719865433E+00  0.88000000000E+00 0. -1.
        -11    1    4    4    0    0 -0.12159017942E-01 -0.58700412509E-03  0.79417101052E-02  0.14543664310E-01  0.51100000000E-03 0. -1.
         11    1    4    4    0    0 -0.62452995218E-01 -0.34539887024E-01  0.93697190722E-01  0.11778287260E+00  0.51100000000E-03 0.  1.
</event>
<event>
 8    1  0.1112958E+005  0.1043930E+01  0.7957747E-01            NaN
         13   -1    0    0    0    0  0.00000000000E+00  0.00000000000E+00  0.74505805969E-08  0.10566000000E+00  0.10566000000E+00 0.  1.
     999900   -1    0    0    0    0 -0.00000000000E+00 -0.00000000000E+00 -0.74505805969E-08  0.93827000000E+00  0.93827000000E+00 0. -1.
     999902    2    1    2    0    0 -0.11604347228E-01  0.16996112659E-01 -0.11738239109E-01  0.10202379132E+01  0.10199627859E+01 0.  0.
     999903    2    3    3    0    0 -0.30976229205E-01  0.12001200512E+00  0.41850627020E-01  0.13239822581E+00  0.20381537392E-01 0.  0.
         14    1    1    2    0    0  0.11604347228E-01 -0.16996112659E-01  0.11738239109E-01  0.23692086812E-01  0.00000000000E+00 0.  1.
     999901    1    3    3    0    0  0.19371881977E-01 -0.10301589246E+00 -0.53588866129E-01  0.88783968738E+00  0.88000000000E+00 0. -1.
        -11    1    4    4    0    0 -0.28614034658E-01  0.86117774747E-01  0.37297656393E-01  0.98114272153E-01  0.51100000000E-03 0.  1.
         11    1    4    4    0    0 -0.23621945475E-02  0.33894230375E-01  0.45529706271E-02  0.34283953657E-01  0.51100000000E-03 0. -1.
</event>
<event>
 8    1  0.1112958E+005  0.1043930E+01  0.7957747E-01            NaN
         13   -1    0    0    0    0  0.00000000000E+00  0.00000000000E+00  0.74505805969E-08  0.10566000000E+00  0.10566000000E+00 0.  1.
     999900   -1    0    0    0    0 -0.00000000000E+00 -0.00000000000E+00 -0.74505805969E-08  0.93827000000E+00  0.93827000000E+00 0. -1.
     999902    2    1    2    0    0  0.56778043646E-02  0.12285691071E-01 -0.20749579577E-01  0.10191566127E+01  0.10188554757E+01 0.  0.
     999903    2    3    3    0    0 -0.11868822856E+00 -0.24899013592E-01 -0.39937232978E-01  0.12942756489E+00  0.21205081905E-01 0.  0.
         14    1    1    2    0    0 -0.56778043646E-02 -0.12285691071E-01  0.20749579577E-01  0.24773387336E-01  0.00000000000E+00 0.  1.
     999901    1    3    3    0    0  0.12436603293E+00  0.37184704663E-01  0.19187653402E-01  0.88972904777E+00  0.88000000000E+00 0.  1.
        -11    1    4    4    0    0 -0.72128556244E-01 -0.22685106312E-01 -0.17118454577E-01  0.77527061613E-01  0.51100000000E-03 0.  1.
         11    1    4    4    0    0 -0.46559672319E-01 -0.22139072799E-02 -0.22818778401E-01  0.51900503279E-01  0.51100000000E-03 0. -1.
</event>
<event>
 8    1  0.1112958E+005  0.1043930E+01  0.7957747E-01            NaN
         13   -1    0    0    0    0  0.00000000000E+00  0.00000000000E+00  0.74505805969E-08  0.10566000000E+00  0.10566000000E+00 0. -1.
     999900   -1    0    0    0    0 -0.00000000000E+00 -0.00000000000E+00 -0.74505805969E-08  0.93827000000E+00  0.93827000000E+00 0. -1.
     999902    2    1    2    0    0 -0.32593090162E-02  0.14404728708E-01  0.18462837359E-01  0.10202869108E+01  0.10200129336E+01 0.  0.
     999903    2    3    3    0    0 -0.18786998997E-01  0.66632659800E-01 -0.10825564193E+00  0.12954203208E+00  0.16400956763E-01 0.  0.
         14    1    1    2    0    0  0.32593090162E-02 -0.14404728708E-01 -0.18462837359E-01  0.23643089217E-01  0.00000000000E+00 0.  1.
     999901    1    3    3    0    0  0.15527689980E-01 -0.52227931092E-01  0.12671847929E+00  0.89074487870E+00  0.88000000000E+00 0.  1.
        -11    1    4    4    0    0 -0.19630787412E-01  0.53559407866E-01 -0.95559026167E-01  0.11129135900E+00  0.51100000000E-03 0. -1.
         11    1    4    4    0    0  0.84378841569E-03  0.13073251935E-01 -0.12696615761E-01  0.18250673079E-01  0.51100000000E-03 0.  1.
</event>
<event>
 8    1  0.1112958E+005  0.1043930E+01  0.7957747E-01            NaN
         13   -1    0    0    0    0  0.00000000000E+00  0.00000000000E+00  0.74505805969E-08  0.10566000000E+00  0.10566000000E+00 0. -1.
     999900   -1    0    0    0    0 -0.00000000000E+00 -0.00000000000E+00 -0.74505805969E-08  0.93827000000E+00  0.93827000000E+00 0.  1.
     999902    2    1    2    0    0  0.94561484912E-02 -0.18017092315E-01 -0.12712716251E-01  0.10199373446E+01  0.10196551080E+01 0.  0.
     999903    2    3    3    0    0 -0.16547397456E-01 -0.47321657945E-01 -0.12094786272E+00  0.13244098464E+00  0.19976817661E-01 0.  0.
         14    1    1    2    0    0 -0.94561484912E-02  0.18017092315E-01  0.12712716251E-01  0.23992655423E-01  0.00000000000E+00 0. -1.
     999901    1    3    3    0    0  0.26003545947E-01  0.29304565630E-01  0.10823514646E+00  0.88749635994E+00  0.88000000000E+00 0. -1.
        -11    1    4    4    0    0 -0.17826167005E-02 -0.33589418712E-01 -0.80372640785E-01  0.87128923323E-01  0.51100000000E-03 0.  1.
         11    1    4    4    0    0 -0.14764780756E-01 -0.13732239234E-01 -0.40575221931E-01  0.45312061318E-01  0.51100000000E-03 0. -1.
</event>
<event>
 8    1  0.1112958E+005  0.1043930E+01  0.7957747E-01            NaN
         13   -1    0    0    0    0  0.00000000000E+00  0.00000000000E+00  0.74505805969E-08  0.10566000000E+00  0.10566000000E+00 0.  1.
     999900   -1    0    0    0    0 -0.00000000000E+00 -0.00000000000E+00 -0.74505805969E-08  0.93827000000E+00  0.93827000000E+00 0. -1.
     999902    2    1    2    0    0 -0.16247534930E-02  0.16506878469E-01  0.14717586627E-01  0.10217551445E+01  0.10215144889E+01 0.  0.
     999903    2    3    3    0    0  0.63419802251E-01 -0.10747361925E+00 -0.29138513160E-01  0.12960867920E+00  0.19408931527E-01 0.  0.
         14    1    1    2    0    0  0.16247534930E-02 -0.16506878469E-01 -0.14717586627E-01  0.22174855508E-01  0.00000000000E+00 0. -1.
     999901    1    3    3    0    0 -0.65044555744E-01  0.12398049772E+00  0.43856099787E-01  0.89214646529E+00  0.88000000000E+00 0.  1.
        -11    1    4    4    0    0  0.11231337258E-01 -0.36491929964E-01 -0.84555741211E-02  0.39109611911E-01  0.51100000000E-03 0. -1.
         11    1    4    4    0    0  0.52188464993E-01 -0.70981689282E-01 -0.20682939039E-01  0.90499067288E-01  0.51100000000E-03 0.  1.
</event>
<event>
 8    1  0.1112958E+005  0.1043930E+01  0.7957747E-01            NaN
         13   -1    0    0    0    0  0.00000000000E+00  0.00000000000E+00  0.74505805969E-08  0.10566000000E+00  0.10566000000E+00 0.  1.
     999900   -1    0    0    0    0 -0.00000000000E+00 -0.00000000000E+00 -0.74505805969E-08  0.93827000000E+00  0.93827000000E+00 0.  1.
     999902    2    1    2    0    0  0.21654262114E-02  0.19813104637E-01  0.13576072508E-01  0.10198144878E+01  0.10195293186E+01 0.  0.
     999903    2    3    3    0    0  0.95935869969E-01 -0.67425592972E-01 -0.48267694398E-01  0.12839531700E+00  0.20141632781E-01 0.  0.
         14    1    1    2    0    0 -0.21654262114E-02 -0.19813104637E-01 -0.13576072508E-01  0.24115512244E-01  0.00000000000E+00 0. -1.
     999901    1    3    3    0    0 -0.93770443758E-01  0.87238697609E-01  0.61843766906E-01  0.89141917075E+00  0.88000000000E+00 0. -1.
        -11    1    4    4    0    0  0.78710443099E-01 -0.63855004614E-01 -0.40240657125E-01  0.10905213007E+00  0.51100000000E-03 0. -1.
         11    1    4    4    0    0  0.17225426871E-01 -0.35705883578E-02 -0.80270372734E-02  0.19343186927E-01  0.51100000000E-03 0.  1.
</event>
<event>
 8    1  0.1112958E+005  0.1043930E+01  0.7957747E-01            NaN
         13   -1    0    0    0    0  0.00000000000E+00  0.00000000000E+00  0.74505805969E-08  0.10566000000E+00  0.10566000000E+00 0.  1.
     999900   -1    0    0    0    0 -0.00000000000E+00 -0.00000000000E+00 -0.74505805969E-08  0.93827000000E+00  0.93827000000E+00 0. -1.
     999902    2    1    2    0    0  0.12751898920E-01  0.35129772656E-01  0.68665682966E-02  0.10059318209E+01  0.10052138910E+01 0.  0.
     999903    2    3    3    0    0  0.11041504348E+00  0.22130409061E-01  0.36435462172E-01  0.11994006434E+00  0.19412349110E-01 0.  0.
         14    1    1    2    0    0 -0.12751898920E-01 -0.35129772656E-01 -0.68665682966E-02  0.37998179076E-01  0.00000000000E+00 0. -1.
     999901    1    3    3    0    0 -0.97663144557E-01  0.12999363595E-01 -0.29568893875E-01  0.88599175659E+00  0.88000000000E+00 0. -1.
        -11    1    4    4    0    0  0.32569994802E-01  0.14763481824E-01  0.15596418006E-01  0.39016334177E-01  0.51100000000E-03 0. -1.
         11    1    4    4    0    0  0.77845048674E-01  0.73669272368E-02  0.20839044166E-01  0.80923730158E-01  0.51100000000E-03 0.  1.
</event>
<event>
 8    1  0.1112958E+005  0.1043930E+01  0.7957747E-01            NaN
         13   -1    0    0    0    0  0.00000000000E+00  0.00000000000E+00  0.74505805969E-08  0.10566000000E+00  0.10566000000E+00 0.  1.
     999900   -1    0    0    0    0 -0.00000000000E+00 -0.00000000000E+00 -0.74505805969E-08  0.93827000000E+00  0.93827000000E+00 0.  1.
     999902    2    1    2    0    0 -0.16051161074E-01  0.15992412516E-01 -0.69234494946E-02  0.10202375712E+01  0.10199624358E+01 0.  0.
     999903    2    3    3    0    0 -0.12828542509E+00 -0.22889234572E-01  0.94046582144E-02  0.13210755841E+00  0.19567627460E-01 0.  0.
         14    1    1    2    0    0  0.16051161074E-01 -0.15992412516E-01  0.69234494946E-02  0.23692428807E-01  0.00000000000E+00 0.  1.
     999901    1    3    3    0    0  0.11223426401E+00  0.38881647088E-01 -0.16328107709E-01  0.88813001278E+00  0.88000000000E+00 0.  1.
        -11    1    4    4    0    0 -0.39597343565E-01 -0.14648506079E-01 -0.22156295677E-02  0.42281183558E-01  0.51100000000E-03 0.  1.
         11    1    4    4    0    0 -0.88688081523E-01 -0.82407284932E-02  0.11620287782E-01  0.89826374854E-01  0.51100000000E-03 0. -1.
</event>
<event>
 8    1  0.1112958E+005  0.1043930E+01  0.7957747E-01            NaN
         13   -1    0    0    0    0  0.00000000000E+00  0.00000000000E+00  0.74505805969E-08  0.10566000000E+00  0.10566000000E+00 0.  1.
     999900   -1    0    0    0    0 -0.00000000000E+00 -0.00000000000E+00 -0.74505805969E-08  0.93827000000E+00  0.93827000000E+00 0. -1.
     999902    2    1    2    0    0 -0.32437101812E-02 -0.13455559468E-01  0.16041768283E-01  0.10227424549E+01  0.10225229665E+01 0.  0.
     999903    2    3    3    0    0  0.10586232880E+00  0.53405242991E-01  0.55630263765E-01  0.13260665427E+00  0.20756827092E-01 0.  0.
         14    1    1    2    0    0  0.32437101812E-02  0.13455559468E-01 -0.16041768283E-01  0.21187545067E-01  0.00000000000E+00 0. -1.
     999901    1    3    3    0    0 -0.10910603899E+00 -0.66860802459E-01 -0.39588495482E-01  0.89013580066E+00  0.88000000000E+00 0.  1.
        -11    1    4    4    0    0  0.65504741835E-02 -0.16483198150E-02  0.22884529767E-02  0.71500914866E-02  0.51100000000E-03 0. -1.
         11    1    4    4    0    0  0.99311854622E-01  0.55053562806E-01  0.53341810788E-01  0.12545656278E+00  0.51100000000E-03 0.  1.
</event>
<event>
 8    1  0.1112958E+005  0.1043930E+01  0.7957747E-01            NaN
         13   -1    0    0    0    0  0.00000000000E+00  0.00000000000E+00  0.74505805969E-08  0.10566000000E+00  0.10566000000E+00 0. -1.
     999900   -1    0    0    0    0 -0.00000000000E+00 -0.00000000000E+00 -0.74505805969E-08  0.93827000000E+00  0.93827000000E+00 0.  1.
     999902    2    1    2    0    0  0.11144544993E-01  0.21659767769E-01 -0.69080272720E-02  0.10186106939E+01  0.10182959680E+01 0.  0.
     999903    2    3    3    0    0 -0.10941456277E-01  0.12097077128E+00  0.46373127977E-01  0.13114838571E+00  0.17198520496E-01 0.  0.
         14    1    1    2    0    0 -0.11144544993E-01 -0.21659767769E-01  0.69080272720E-02  0.25319306146E-01  0.00000000000E+00 0.  1.
     999901    1    3    3    0    0  0.22086001270E-01 -0.99311003509E-01 -0.53281155249E-01  0.88746230814E+00  0.88000000000E+00 0. -1.
        -11    1    4    4    0    0 -0.69807665150E-02  0.35815969915E-01  0.21453759620E-01  0.42332490181E-01  0.51100000000E-03 0. -1.
         11    1    4    4    0    0 -0.39606897624E-02  0.85154801363E-01  0.24919368358E-01  0.88815895530E-01  0.51100000000E-03 0.  1.
</event>
<event>
 8    1  0.1112958E+005  0.1043930E+01  0.7957747E-01            NaN
         13   -1    0    0    0    0  0.00000000000E+00  0.00000000000E+00  0.74505805969E-08  0.10566000000E+00  0.10566000000E+00 0.  1.
     999900   -1    0    0    0    0 -0.00000000000E+00 -0.00000000000E+00 -0.74505805969E-08  0.93827000000E+00  0.93827000000E+00 0. -1.
     999902    2    1    2    0    0 -0.51181444991E-02 -0.17584667543E-01  0.15251955630E-01  0.10200964504E+01  0.10198179887E+01 0.  0.
     999903    2    3    3    0    0 -0.98962302867E-01 -0.80174862855E-01  0.31640384438E-01  0.13274486326E+00  0.19963435885E-01 0.  0.
         14    1    1    2    0    0  0.51181444991E-02  0.17584667543E-01 -0.15251955630E-01  0.23833549594E-01  0.00000000000E+00 0. -1.
     999901    1    3    3    0    0  0.93844158368E-01  0.62590195312E-01 -0.16388428808E-01  0.88735158714E+00  0.88000000000E+00 0.  1.
        -11    1    4    4    0    0 -0.79869546679E-01 -0.61957527725E-01  0.16821195453E-01  0.10247484309E+00  0.51100000000E-03 0. -1.
         11    1    4    4    0    0 -0.19092756188E-01 -0.18217335131E-01  0.14819188985E-01  0.30270020173E-01  0.51100000000E-03 0.  1.
</event>
<event>
 8    1  0.1112958E+005  0.1043930E+01  0.7957747E-01            NaN
         13   -1    0    0    0    0  0.00000000000E+00  0.00000000000E+00  0.74505805969E-08  0.10566000000E+00  0.10566000000E+00 0. -1.
     999900   -1    0    0    0    0 -0.00000000000E+00 -0.00000000000E+00 -0.74505805969E-08  0.93827000000E+00  0.93827000000E+00 0.  1.
     999902    2    1    2    0    0 -0.59081684397E-02 -0.11294906629E-01 -0.20581733362E-01  0.10197207225E+01  0.10194333047E+01 0.  0.
     999903    2    3    3    0    0  0.36443193639E-03 -0.92317247659E-01 -0.93497730388E-01  0.13297345979E+00  0.20433022153E-01 0.  0.
         14    1    1    2    0    0  0.59081684397E-02  0.11294906629E-01  0.20581733362E-01  0.24209277525E-01  0.00000000000E+00 0. -1.
     999901    1    3    3    0    0 -0.62726003761E-02  0.81022341030E-01  0.72915997026E-01  0.88674726269E+00  0.88000000000E+00 0. -1.
        -11    1    4    4    0    0  0.60275510846E-02 -0.83604037913E-01 -0.86395306693E-01  0.12037598044E+00  0.51100000000E-03 0.  1.
         11    1    4    4    0    0 -0.56631191482E-02 -0.87132097455E-02 -0.71024236950E-02  0.12597479347E-01  0.51100000000E-03 0. -1.
</event>
<event>
 8    1  0.1112958E+005  0.1043930E+01  0.7957747E-01            NaN
         13   -1    0    0    0    0  0.00000000000E+00  0.00000000000E+00  0.74505805969E-08  0.10566000000E+00  0.10566000000E+00 0.  1.
     999900   -1    0    0    0    0 -0.00000000000E+00 -0.00000000000E+00 -0.74505805969E-08  0.93827000000E+00  0.93827000000E+00 0.  1.
     999902    2    1    2    0    0 -0.17072518076E-01 -0.49313896704E-02  0.14523537303E-01  0.10209795618E+01  0.10207215796E+01 0.  0.
     999903    2    3    3    0    0  0.64842588051E-01 -0.51465469537E-01 -0.96986065570E-01  0.12895383531E+00  0.19223395797E-01 0.  0.
         14    1    1    2    0    0  0.17072518076E-01  0.49313896704E-02 -0.14523537303E-01  0.22950438195E-01  0.00000000000E+00 0.  1.
     999901    1    3    3    0    0 -0.81915106127E-01  0.46534079867E-01  0.11150960287E+00  0.89202572650E+00  0.88000000000E+00 0. -1.
        -11    1    4    4    0    0  0.31876303555E-01 -0.17108024318E-01 -0.52705106537E-01  0.63928652422E-01  0.51100000000E-03 0.  1.
         11    1    4    4    0    0  0.32966284496E-01 -0.34357445219E-01 -0.44280959033E-01  0.65025182886E-01  0.51100000000E-03 0. -1.
</event>
<event>
 8    1  0.1112958E+005  0.1043930E+01  0.7957747E-01            NaN
         13   -1    0    0    0    0  0.00000000000E+00  0.00000000000E+00  0.74505805969E-08  0.10566000000E+00  0.10566000000E+00 0. -1.
     999900   -1    0    0    0    0 -0.00000000000E+00 -0.00000000000E+00 -0.74505805969E-08  0.93827000000E+00  0.93827000000E+00 0. -1.
     999902    2    1    2    0    0 -0.26265042026E-02  0.91464353790E-02  0.22259576209E-01  0.10197216432E+01  0.10194342476E+01 0.  0.
     999903    2    3    3    0    0  0.74544184429E-01  0.99984014715E-01 -0.31905892566E-01  0.13003592400E+00  0.18377075889E-01 0.  0.
         14    1    1    2    0    0  0.26265042026E-02 -0.91464353790E-02 -0.22259576209E-01  0.24208356770E-01  0.00000000000E+00 0.  1.
     999901    1    3    3    0    0 -0.77170688631E-01 -0.90837579336E-01  0.54165468775E-01  0.88968571924E+00  0.88000000000E+00 0. -1.
        -11    1    4    4    0    0  0.30252206348E-01  0.31610436967E-01 -0.40783245438E-02  0.43946667295E-01  0.51100000000E-03 0.  1.
         11    1    4    4    0    0  0.44291978080E-01  0.68373577748E-01 -0.27827568022E-01  0.86089256701E-01  0.51100000000E-03 0. -1.
</event>
<event>
 8    1  0.1112958E+005  0.1043930E+01  0.7957747E-01            NaN
         13   -1    0    0    0    0  0.00000000000E+00  0.00000000000E+00  0.74505805969E-08  0.10566000000E+00  0.10566000000E+00 0.  1.
     999900   -1    0    0    0    0 -0.00000000000E+00 -0.00000000000E+00 -0.74505805969E-08  0.93827000000E+00  0.93827000000E+00 0.  1.
     999902    2    1    2    0    0 -0.17951113385E-01  0.24495341134E-01 -0.11031265993E-01  0.10116197379E+01  0.10111036253E+01 0.  0.
     999903    2    3    3    0    0  0.12644670098E-01  0.95150703375E-01 -0.78519219022E-01  0.12568356298E+00  0.20433947583E-01 0.  0.
         14    1    1    2    0    0  0.17951113385E-01 -0.24495341134E-01  0.11031265993E-01  0.32310262123E-01  0.00000000000E+00 0.  1.
     999901    1    3    3    0    0 -0.30595783483E-01 -0.70655362241E-01  0.67487953029E-01  0.88593617489E+00  0.88000000000E+00 0. -1.
        -11    1    4    4    0    0  0.64594406545E-02  0.20957459724E-01 -0.28604488835E-01  0.36047432560E-01  0.51100000000E-03 0.  1.
         11    1    4    4    0    0  0.61852294435E-02  0.74193243651E-01 -0.49914730187E-01  0.89636130424E-01  0.51100000000E-03 0. -1.
</event>
<event>
 8    1  0.1112958E+005  0.1043930E+01  0.7957747E-01            NaN
         13   -1    0    0    0    0  0.00000000000E+00  0.00000000000E+00  0.74505805969E-08  0.10566000000E+00  0.10566000000E+00 0. -1.
     999900   -1    0    0    0    0 -0.00000000000E+00 -0.00000000000E+00 -0.74505805969E-08  0.93827000000E+00  0.93827000000E+00 0.  1.
     999902    2    1    2    0    0 -0.97725978612E-02 -0.73112772439E-02 -0.21301739918E-01  0.10193795913E+01  0.10190839164E+01 0.  0.
     999903    2    3    3    0    0 -0.75068446072E-02  0.12266745143E+00 -0.39127011519E-01  0.12965078776E+00  0.13219204925E-01 0.  0.
         14    1    1    2    0    0  0.97725978612E-02  0.73112772439E-02  0.21301739918E-01  0.24550408702E-01  0.00000000000E+00 0. -1.
     999901    1    3    3    0    0 -0.22657532540E-02 -0.12997872867E+00  0.17825271601E-01  0.88972880354E+00  0.88000000000E+00 0.  1.
        -11    1    4    4    0    0 -0.68217634396E-03  0.72533239680E-01 -0.28571464770E-01  0.77962336696E-01  0.51100000000E-03 0.  1.
         11    1    4    4    0    0 -0.68246682632E-02  0.50134211751E-01 -0.10555546749E-01  0.51688451060E-01  0.51100000000E-03 0. -1.
</event>
<event>
 8    1  0.1112958E+005  0.1043930E+01  0.7957747E-01            NaN
         13   -1    0    0    0    0  0.00000000000E+00  0.00000000000E+00  0.74505805969E-08  0.10566000000E+00  0.10566000000E+00 0.  1.
     999900   -1    0    0    0    0 -0.00000000000E+00 -0.00000000000E+00 -0.74505805969E-08  0.93827000000E+00  0.93827000000E+00 0. -1.
     999902    2    1    2    0    0 -0.17516131573E-01  0.14891023846E-01 -0.43930426845E-02  0.10205236701E+01  0.10202552156E+01 0.  0.
     999903    2    3    3    0    0 -0.44426820961E-01 -0.11623221264E+00  0.30286576850E-01  0.12972618222E+00  0.20686612595E-01 0.  0.
         14    1    1    2    0    0  0.17516131573E-01 -0.14891023846E-01  0.43930426845E-02  0.23406329924E-01  0.00000000000E+00 0.  1.
     999901    1    3    3    0    0  0.26910689387E-01  0.13112323649E+00 -0.34679619534E-01  0.89079748785E+00  0.88000000000E+00 0.  1.
        -11    1    4    4    0    0 -0.32946606925E-01 -0.10374448950E+00  0.29304875235E-01  0.11272725865E+00  0.51100000000E-03 0.  1.
         11    1    4    4    0    0 -0.11480214036E-01 -0.12487723147E-01  0.98170161496E-03  0.16998923577E-01  0.51100000000E-03 0. -1.
</event>
<event>
 8    1  0.1112958E+005  0.1043930E+01  0.7957747E-01            NaN
         13   -1    0    0    0    0  0.00000000000E+00  0.00000000000E+00  0.74505805969E-08  0.10566000000E+00  0.10566000000E+00 0. -1.
     999900   -1    0    0    0    0 -0.00000000000E+00 -0.00000000000E+00 -0.74505805969E-08  0.93827000000E+00  0.93827000000E+00 0. -1.
     999902    2    1    2    0    0 -0.19446225696E-01  0.10392496699E-02 -0.11911370948E-01  0.10211020239E+01  0.10208468185E+01 0.  0.
     999903    2    3    3    0    0 -0.50342953632E-01  0.82576637797E-01 -0.89477440988E-01  0.13339742854E+00  0.20864980319E-01 0.  0.
         14    1    1    2    0    0  0.19446225696E-01 -0.10392496699E-02  0.11911370948E-01  0.22827976072E-01  0.00000000000E+00 0. -1.
     999901    1    3    3    0    0  0.30896727937E-01 -0.81537388127E-01  0.77566070041E-01  0.88770459539E+00  0.88000000000E+00 0.  1.
        -11    1    4    4    0    0 -0.27989411126E-01  0.64009100955E-01 -0.62277204241E-01  0.93591043532E-01  0.51100000000E-03 0. -1.
         11    1    4    4    0    0 -0.22353542506E-01  0.18567536843E-01 -0.27200236747E-01  0.39806385004E-01  0.51100000000E-03 0.  1.
</event>
<event>
 8    1  0.1112958E+005  0.1043930E+01  0.7957747E-01            NaN
         13   -1    0    0    0    0  0.00000000000E+00  0.00000000000E+00  0.74505805969E-08  0.10566000000E+00  0.10566000000E+00 0. -1.
     999900   -1    0    0    0    0 -0.00000000000E+00 -0.00000000000E+00 -0.74505805969E-08  0.93827000000E+00  0.93827000000E+00 0. -1.
     999902    2    1    2    0    0  0.25297165746E-02  0.10951231693E-01  0.24452193880E-01  0.10170183162E+01  0.10166621940E+01 0.  0.
     999903    2    3    3    0    0 -0.22691223224E-01  0.31316948960E-01  0.12340398180E+00  0.13087932335E+00  0.20129869654E-01 0.  0.
         14    1    1    2    0    0 -0.25297165746E-02 -0.10951231693E-01 -0.24452193880E-01  0.26911683839E-01  0.00000000000E+00 0.  1.
     999901    1    3    3    0    0  0.25220939799E-01 -0.20365717267E-01 -0.98951787924E-01  0.88613899281E+00  0.88000000000E+00 0. -1.
        -11    1    4    4    0    0 -0.18843874897E-01  0.32552169460E-01  0.94858796219E-01  0.10204502780E+00  0.51100000000E-03 0.  1.
         11    1    4    4    0    0 -0.38473483265E-02 -0.12352205002E-02  0.28545185584E-01  0.28834295550E-01  0.51100000000E-03 0. -1.
</event>
<event>
 8    1  0.1112958E+005  0.1043930E+01  0.7957747E-01            NaN
         13   -1    0    0    0    0  0.00000000000E+00  0.00000000000E+00  0.74505805969E-08  0.10566000000E+00  0.10566000000E+00 0. -1.
     999900   -1    0    0    0    0 -0.00000000000E+00 -0.00000000000E+00 -0.74505805969E-08  0.93827000000E+00  0.93827000000E+00 0. -1.
     999902    2    1    2    0    0  0.97560231726E-02 -0.21701785005E-01 -0.96907052966E-02  0.10182384210E+01  0.10179142522E+01 0.  0.
     999903    2    3    3    0    0  0.77140026462E-02 -0.11548470597E+00  0.57425488381E-01  0.13071152591E+00  0.19788712464E-01 0.  0.
         14    1    1    2    0    0 -0.97560231726E-02  0.21701785005E-01  0.96907052966E-02  0.25691578965E-01  0.00000000000E+00 0. -1.
     999901    1    3    3    0    0  0.20420205263E-02  0.93782920964E-01 -0.67116193677E-01  0.88752689512E+00  0.88000000000E+00 0. -1.
        -11    1    4    4    0    0 -0.56812667361E-02 -0.33666301639E-01  0.21517483336E-01  0.40360374972E-01  0.51100000000E-03 0. -1.
         11    1    4    4    0    0  0.13395269382E-01 -0.81818404331E-01  0.35908005045E-01  0.90351150941E-01  0.51100000000E-03 0.  1.
</event>
<event>
 8    1  0.1112958E+005  0.1043930E+01  0.7957747E-01            NaN
         13   -1    0    0    0    0  0.00000000000E+00  0.00000000000E+00  0.74505805969E-08  0.10566000000E+00  0.10566000000E+00 0.  1.
     999900   -1    0    0    0    0 -0.00000000000E+00 -0.00000000000E+00 -0.74505805969E-08  0.93827000000E+00  0.93827000000E+00 0.  1.
     999902    2    1    2    0    0 -0.11625979361E-01 -0.31710448297E-02 -0.19998958965E-01  0.10205809683E+01  0.10203138417E+01 0.  0.
     999903    2    3    3    0    0 -0.53691546310E-01  0.44111603142E-01 -0.11225305670E+00  0.13349812027E+00  0.19808677402E-01 0.  0.
         14    1    1    2    0    0  0.11625979361E-01  0.31710448297E-02  0.19998958965E-01  0.23349031695E-01  0.00000000000E+00 0.  1.
     999901    1    3    3    0    0  0.42065566949E-01 -0.47282647972E-01  0.92254097738E-01  0.88708284803E+00  0.88000000000E+00 0. -1.
        -11    1    4    4    0    0 -0.31055129541E-01  0.36334665534E-01 -0.67015974742E-01  0.82316650696E-01  0.51100000000E-03 0.  1.
         11    1    4    4    0    0 -0.22636416769E-01  0.77769376087E-02 -0.45237081962E-01  0.51181469577E-01  0.51100000000E-03 0. -1.
</event>
<event>
 8    1  0.1112958E+005  0.1043930E+01  0.7957747E-01            NaN
         13   -1    0    0    0    0  0.00000000000E+00  0.00000000000E+00  0.74505805969E-08  0.10566000000E+00  0.10566000000E+00 0. -1.
     999900   -1    0    0    0    0 -0.00000000000E+00 -0.00000000000E+00 -0.74505805969E-08  0.93827000000E+00  0.93827000000E+00 0.  1.
     999902    2    1    2    0    0  0.21303913957E-01 -0.40256730800E-02  0.88915124062E-02  0.10204966523E+01  0.10202275704E+01 0.  0.
     999903    2    3    3    0    0  0.66757589149E-01 -0.56868418803E-01 -0.96267151089E-01  0.13149904997E+00  0.18276843211E-01 0.  0.
         14    1    1    2    0    0 -0.21303913957E-01  0.40256730800E-02 -0.88915124062E-02  0.23433347744E-01  0.00000000000E+00 0.  1.
     999901    1    3    3    0    0 -0.45453675193E-01  0.52842745723E-01  0.10515866349E+00  0.88899760229E+00  0.88000000000E+00 0. -1.
        -11    1    4    4    0    0  0.14524581644E-01 -0.22892479246E-01 -0.32763389643E-01  0.42529165285E-01  0.51100000000E-03 0. -1.
         11    1    4    4    0    0  0.52233007506E-01 -0.33975939557E-01 -0.63503761446E-01  0.88969884684E-01  0.51100000000E-03 0.  1.
</event>
<event>
 8    1  0.1112958E+005  0.1043930E+01  0.7957747E-01            NaN
         13   -1    0    0    0    0  0.00000000000E+00  0.00000000000E+00  0.74505805969E-08  0.10566000000E+00  0.10566000000E+00 0.  1.
     999900   -1    0    0    0    0 -0.00000000000E+00 -0.00000000000E+00 -0.74505805969E-08  0.93827000000E+00  0.93827000000E+00 0.  1.
     999902    2    1    2    0    0  0.12600500053E-01  0.33396373693E-02  0.19712215638E-01  0.10202974541E+01  0.10200237241E+01 0.  0.
     999903    2    3    3    0    0 -0.12519203255E+00  0.15722044233E-01 -0.16362300535E-01  0.12875862897E+00  0.19769470573E-01 0.  0.
         14    1    1    2    0    0 -0.12600500053E-01 -0.33396373693E-02 -0.19712215638E-01  0.23632545879E-01  0.00000000000E+00 0. -1.
     999901    1    3    3    0    0  0.13779253260E+00 -0.12382406864E-01  0.36074516173E-01  0.89153882515E+00  0.88000000000E+00 0. -1.
        -11    1    4    4    0    0 -0.80057443600E-01  0.49382308855E-02 -0.18442971497E-01  0.82304220540E-01  0.51100000000E-03 0. -1.
         11    1    4    4    0    0 -0.45134588947E-01  0.10783813348E-01  0.20806709617E-02  0.46454408427E-01  0.51100000000E-03 0.  1.
</event>
<event>
 8    1  0.1112958E+005  0.1043930E+01  0.7957747E-01            NaN
         13   -1    0    0    0    0  0.00000000000E+00  0.00000000000E+00  0.74505805969E-08  0.10566000000E+00  0.10566000000E+00 0. -1.
     999900   -1    0    0    0    0 -0.00000000000E+00 -0.00000000000E+00 -0.74505805969E-08  0.93827000000E+00  0.93827000000E+00 0. -1.
     999902    2    1    2    0    0  0.22222462687E-01 -0.64969339250E-02  0.20942609579E-03  0.10207763425E+01  0.10205137184E+01 0.  0.
     999903    2    3    3    0    0  0.18328644994E-01 -0.12389066859E+00 -0.37581321748E-01  0.13216810967E+00  0.19266978948E-01 0.  0.
         14    1    1    2    0    0 -0.22222462687E-01  0.64969339250E-02 -0.20942609579E-03  0.23153657543E-01  0.00000000000E+00 0. -1.
     999901    1    3    3    0    0  0.38938176933E-02  0.11739373467E+00  0.37790747844E-01  0.88860823279E+00  0.88000000000E+00 0.  1.
        -11    1    4    4    0    0  0.46679773897E-02 -0.50551049287E-01 -0.24711322382E-01  0.56463343612E-01  0.51100000000E-03 0. -1.
         11    1    4    4    0    0  0.13660667604E-01 -0.73339619305E-01 -0.12869999365E-01  0.75704766058E-01  0.51100000000E-03 0.  1.
</event>
<event>
 8    1  0.1112958E+005  0.1043930E+01  0.7957747E-01            NaN
         13   -1    0    0    0    0  0.00000000000E+00  0.00000000000E+00  0.74505805969E-08  0.10566000000E+00  0.10566000000E+00 0.  1.
     999900   -1    0    0    0    0 -0.00000000000E+00 -0.00000000000E+00 -0.74505805969E-08  0.93827000000E+00  0.93827000000E+00 0.  1.
     999902    2    1    2    0    0  0.11651061883E-01  0.36306264064E-02 -0.21298939576E-01  0.10193826271E+01  0.10190870261E+01 0.  0.
     999903    2    3    3    0    0  0.91130969218E-01  0.78195742040E-01 -0.51621862160E-01  0.13214168359E+00  0.19421129345E-01 0.  0.
         14    1    1    2    0    0 -0.11651061883E-01 -0.36306264064E-02  0.21298939576E-01  0.24547372939E-01  0.00000000000E+00 0.  1.
     999901    1    3    3    0    0 -0.79479907335E-01 -0.74565115634E-01  0.30322922584E-01  0.88724094347E+00  0.88000000000E+00 0. -1.
        -11    1    4    4    0    0  0.21150619587E-01  0.84681975576E-02 -0.80348205757E-02  0.24163578822E-01  0.51100000000E-03 0. -1.
         11    1    4    4    0    0  0.69980349631E-01  0.69727544483E-01 -0.43587041584E-01  0.10797810477E+00  0.51100000000E-03 0.  1.
</event>
<event>
 8    1  0.1112958E+005  0.1043930E+01  0.7957747E-01            NaN
         13   -1    0    0    0    0  0.00000000000E+00  0.00000000000E+00  0.74505805969E-08  0.10566000000E+00  0.10566000000E+00 0. -1.
     999900   -1    0    0    0    0 -0.00000000000E+00 -0.00000000000E+00 -0.74505805969E-08  0.93827000000E+00  0.93827000000E+00 0. -1.
     999902    2    1    2    0    0  0.12110859725E-01 -0.19670235609E-02  0.19937622617E-01  0.10205195130E+01  0.10202509620E+01 0.  0.
     999903    2    3    3    0    0 -0.11809862622E+00  0.48520423271E-01 -0.18040909153E-02  0.12924166935E+00  0.19965905016E-01 0.  0.
         14    1    1    2    0    0 -0.12110859725E-01  0.19670235609E-02 -0.19937622617E-01  0.23410486979E-01  0.00000000000E+00 0.  1.
     999901    1    3    3    0    0  0.13020948594E+00 -0.50487446832E-01  0.21741713533E-01  0.89127784367E+00  0.88000000000E+00 0.  1.
        -11    1    4    4    0    0 -0.91560764866E-01  0.33585026335E-01  0.62843527569E-02  0.97729636587E-01  0.51100000000E-03 0. -1.
         11    1    4    4    0    0 -0.26537861349E-01  0.14935396936E-01 -0.80884436722E-02  0.31512032760E-01  0.51100000000E-03 0.  1.
</event>
<event>
 8    1  0.1112958E+005  0.1043930E+01  0.7957747E-01            NaN
         13   -1    0    0    0    0  0.00000000000E+00  0.00000000000E+00  0.74505805969E-08  0.10566000000E+00  0.10566000000E+00 0.  1.
     999900   -1    0    0    0    0 -0.00000000000E+00 -0.00000000000E+00 -0.74505805969E-08  0.93827000000E+00  0.93827000000E+00 0. -1.
     999902    2    1    2    0    0  0.18667898235E-01 -0.12275846263E-01 -0.57396180954E-02  0.10208620560E+01  0.10206013949E+01 0.  0.
     999903    2    3    3    0    0  0.70165289658E-01  0.78354779153E-01 -0.76697868063E-01  0.13187332442E+00  0.21103825204E-01 0.  0.
         14    1    1    2    0    0 -0.18667898235E-01  0.12275846263E-01  0.57396180954E-02  0.23067944032E-01  0.00000000000E+00 0.  1.
     999901    1    3    3    0    0 -0.51497391423E-01 -0.90630625416E-01  0.70958249968E-01  0.88898873155E+00  0.88000000000E+00 0.  1.
        -11    1    4    4    0    0  0.41548499527E-01  0.50042873538E-01 -0.34802305957E-01  0.73770106587E-01  0.51100000000E-03 0. -1.
         11    1    4    4    0    0  0.28616790131E-01  0.28311905615E-01 -0.41895562106E-01  0.58103217830E-01  0.51100000000E-03 0.  1.
</event>
<event>
 7    1  0.1112958E+005  0.1043930E+01  0.7957747E-01            NaN
         13   -1    0    0    0    0  0.00000000000E+00  0.00000000000E+00  0.74505805969E-08  0.10566000000E+00  0.10566000000E+00 0. -1.
     999900   -1    0    0    0    0 -0.00000000000E+00 -0.00000000000E+00 -0.74505805969E-08  0.93827000000E+00  0.93827000000E+00 0.  1.
     999903    2    1    2    0    0  0.88489056022E-01  0.62679081907E-01  0.37852255625E-01  0.11655761030E+00  0.19846987626E-01 0.  0.
         14    1    1    2    0    0  0.91251235449E-02 -0.37726761725E-02 -0.38779761566E-01  0.40017132235E-01  0.00000000000E+00 0.  1.
     999901    1    1    2    0    0 -0.97614179567E-01 -0.58906405734E-01  0.92750594063E-03  0.88735525747E+00  0.88000000000E+00 0.  1.
        -11    1    3    3    0    0  0.53554949159E-01  0.38451201950E-01  0.12651803063E-01  0.67133871873E-01  0.51100000000E-03 0.  1.
         11    1    3    3    0    0  0.34934106863E-01  0.24227879957E-01  0.25200452562E-01  0.49423738424E-01  0.51100000000E-03 0. -1.
</event>
<event>
 8    1  0.1112958E+005  0.1043930E+01  0.7957747E-01            NaN
         13   -1    0    0    0    0  0.00000000000E+00  0.00000000000E+00  0.74505805969E-08  0.10566000000E+00  0.10566000000E+00 0.  1.
     999900   -1    0    0    0    0 -0.00000000000E+00 -0.00000000000E+00 -0.74505805969E-08  0.93827000000E+00  0.93827000000E+00 0.  1.
     999902    2    1    2    0    0 -0.19590702282E-01 -0.10675469297E-01 -0.12949917229E-01  0.10181334573E+01  0.10178066001E+01 0.  0.
     999903    2    3    3    0    0  0.64776211997E-01  0.59687311447E-01 -0.90478657987E-01  0.12792033516E+00  0.20461959994E-01 0.  0.
         14    1    1    2    0    0  0.19590702282E-01  0.10675469297E-01  0.12949917229E-01  0.25796542731E-01  0.00000000000E+00 0.  1.
     999901    1    3    3    0    0 -0.84366914279E-01 -0.70362780745E-01  0.77528740758E-01  0.89021312211E+00  0.88000000000E+00 0. -1.
        -11    1    4    4    0    0  0.14565823469E-01  0.18879706098E-01 -0.36778389961E-01  0.43835118396E-01  0.51100000000E-03 0.  1.
         11    1    4    4    0    0  0.50210388528E-01  0.40807605350E-01 -0.53700268026E-01  0.84085216760E-01  0.51100000000E-03 0. -1.
</event>
<event>
 8    1  0.1112958E+005  0.1043930E+01  0.7957747E-01            NaN
         13   -1    0    0    0    0  0.00000000000E+00  0.00000000000E+00  0.74505805969E-08  0.10566000000E+00  0.10566000000E+00 0. -1.
     999900   -1    0    0    0    0 -0.00000000000E+00 -0.00000000000E+00 -0.74505805969E-08  0.93827000000E+00  0.93827000000E+00 0. -1.
     999902    2    1    2    0    0  0.10761084792E-01  0.17991763502E-02  0.20866752192E-01  0.10203830399E+01  0.10201113120E+01 0.  0.
     999903    2    3    3    0    0  0.30101416392E-01  0.88300948968E-01  0.92880574682E-01  0.13300341670E+00  0.18972475956E-01 0.  0.
         14    1    1    2    0    0 -0.10761084792E-01 -0.17991763502E-02 -0.20866752192E-01  0.23546960069E-01  0.00000000000E+00 0.  1.
     999901    1    3    3    0    0 -0.19340331600E-01 -0.86501772617E-01 -0.72013822489E-01  0.88737962323E+00  0.88000000000E+00 0.  1.
        -11    1    4    4    0    0 -0.18600497899E-02  0.10715814450E-01  0.70598404357E-02  0.12976553184E-01  0.51100000000E-03 0.  1.
         11    1    4    4    0    0  0.31961466182E-01  0.77585134517E-01  0.85820734246E-01  0.12002686352E+00  0.51100000000E-03 0. -1.
</event>
<event>
 8    1  0.1112958E+005  0.1043930E+01  0.7957747E-01            NaN
         13   -1    0    0    0    0  0.00000000000E+00  0.00000000000E+00  0.74505805969E-08  0.10566000000E+00  0.10566000000E+00 0.  1.
     999900   -1    0    0    0    0 -0.00000000000E+00 -0.00000000000E+00 -0.74505805969E-08  0.93827000000E+00  0.93827000000E+00 0.  1.
     999902    2    1    2    0    0 -0.64928149208E-02  0.22761978370E-01 -0.11919246121E-01  0.10174284390E+01  0.10170832296E+01 0.  0.
     999903    2    3    3    0    0 -0.28256542608E-01 -0.14474223878E-01 -0.12387870220E+00  0.12928705705E+00  0.19007232961E-01 0.  0.
         14    1    1    2    0    0  0.64928149208E-02 -0.22761978370E-01  0.11919246121E-01  0.26501560954E-01  0.00000000000E+00 0. -1.
     999901    1    3    3    0    0  0.21763727687E-01  0.37236202247E-01  0.11195945608E+00  0.88814138199E+00  0.88000000000E+00 0. -1.
        -11    1    4    4    0    0 -0.22394675987E-01 -0.45012819004E-02 -0.56921371646E-01  0.61335851851E-01  0.51100000000E-03 0. -1.
         11    1    4    4    0    0 -0.58618666214E-02 -0.99729419772E-02 -0.66957330558E-01  0.67951205202E-01  0.51100000000E-03 0.  1.
</event>
<event>
 8    1  0.1112958E+005  0.1043930E+01  0.7957747E-01            NaN
         13   -1    0    0    0    0  0.00000000000E+00  0.00000000000E+00  0.74505805969E-08  0.10566000000E+00  0.10566000000E+00 0. -1.
     999900   -1    0    0    0    0 -0.00000000000E+00 -0.00000000000E+00 -0.74505805969E-08  0.93827000000E+00  0.93827000000E+00 0. -1.
     999902    2    1    2    0    0  0.17299057883E-01  0.11380148572E-01  0.86190198303E-02  0.10215011639E+01  0.10212549022E+01 0.  0.
     999903    2    3    3    0    0  0.11326482898E+00  0.53945068059E-01  0.44101136621E-01  0.13455123173E+00  0.20497118250E-01 0.  0.
         14    1    1    2    0    0 -0.17299057883E-01 -0.11380148572E-01 -0.86190198303E-02  0.22428836082E-01  0.00000000000E+00 0.  1.
     999901    1    3    3    0    0 -0.95965771100E-01 -0.42564919487E-01 -0.35482116791E-01  0.88694993219E+00  0.88000000000E+00 0.  1.
        -11    1    4    4    0    0  0.13859435018E-01  0.13374159348E-01  0.25960502368E-02  0.19441004993E-01  0.51100000000E-03 0. -1.
         11    1    4    4    0    0  0.99405393965E-01  0.40570908711E-01  0.41505086384E-01  0.11511022674E+00  0.51100000000E-03 0.  1.
</event>
<event>
 8    1  0.1112958E+005  0.1043930E+01  0.7957747E-01            NaN
         13   -1    0    0    0    0  0.00000000000E+00  0.00000000000E+00  0.74505805969E-08  0.10566000000E+00  0.10566000000E+00 0.  1.
     999900   -1    0    0    0    0 -0.00000000000E+00 -0.00000000000E+00 -0.74505805969E-08  0.93827000000E+00  0.93827000000E+00 0.  1.
     999902    2    1    2    0    0 -0.91781166697E-02 -0.11179392968E-01  0.17921383452E-01  0.10208997452E+01  0.10206399449E+01 0.  0.
     999903    2    3    3    0    0  0.26158796761E-02 -0.13046293879E+00 -0.10190660035E-01  0.13232901099E+00  0.19485799261E-01 0.  0.
         14    1    1    2    0    0  0.91781166697E-02  0.11179392968E-01 -0.17921383452E-01  0.23030254831E-01  0.00000000000E+00 0. -1.
     999901    1    3    3    0    0 -0.11793996346E-01  0.11928354582E+00  0.28112043487E-01  0.88857073418E+00  0.88000000000E+00 0. -1.
        -11    1    4    4    0    0 -0.58905455999E-02 -0.54926269146E-01  0.23114589823E-02  0.55291930093E-01  0.51100000000E-03 0.  1.
         11    1    4    4    0    0  0.85064252760E-02 -0.75536669644E-01 -0.12502119017E-01  0.77037080895E-01  0.51100000000E-03 0. -1.
</event>
<event>
 8    1  0.1112958E+005  0.1043930E+01  0.7957747E-01            NaN
         13   -1    0    0    0    0  0.00000000000E+00  0.00000000000E+00  0.74505805969E-08  0.10566000000E+00  0.10566000000E+00 0.  1.
     999900   -1    0    0    0    0 -0.00000000000E+00 -0.00000000000E+00 -0.74505805969E-08  0.93827000000E+00  0.93827000000E+00 0. -1.
     999902    2    1    2    0    0 -0.75686173836E-02 -0.13541942397E-01  0.18256953113E-01  0.10199720262E+01  0.10196906147E+01 0.  0.
     999903    2    3    3    0    0 -0.41217546051E-01  0.68471110974E-01 -0.97945213240E-01  0.12791746798E+00  0.19555937147E-01 0.  0.
         14    1    1    2    0    0  0.75686173836E-02  0.13541942397E-01 -0.18256953113E-01  0.23957973828E-01  0.00000000000E+00 0. -1.
     999901    1    3    3    0    0  0.33648928668E-01 -0.82013053371E-01  0.11620216635E+00  0.89205455819E+00  0.88000000000E+00 0.  1.
        -11    1    4    4    0    0 -0.30878272003E-01  0.63660995448E-01 -0.86501315816E-01  0.11175387592E+00  0.51100000000E-03 0.  1.
         11    1    4    4    0    0 -0.10339274048E-01  0.48101155263E-02 -0.11443897423E-01  0.16163592065E-01  0.51100000000E-03 0. -1.
</event>
<event>
 8    1  0.1112958E+005  0.1043930E+01  0.7957747E-01            NaN
         13   -1    0    0    0    0  0.00000000000E+00  0.00000000000E+00  0.74505805969E-08  0.10566000000E+00  0.10566000000E+00 0. -1.
     999900   -1    0    0    0    0 -0.00000000000E+00 -0.00000000000E+00 -0.74505805969E-08  0.93827000000E+00  0.93827000000E+00 0.  1.
     999902    2    1    2    0    0  0.21406004331E-01 -0.94467771670E-02  0.32897233267E-02  0.10203020314E+01  0.10200284086E+01 0.  0.
     999903    2    3    3    0    0  0.16696402446E-01 -0.73595589315E-01  0.10640583502E+00  0.13194952089E+00  0.19834155252E-01 0.  0.
         14    1    1    2    0    0 -0.21406004331E-01  0.94467771670E-02 -0.32897233267E-02  0.23627968593E-01  0.00000000000E+00 0.  1.
     999901    1    3    3    0    0  0.47096018853E-02  0.64148812148E-01 -0.10311611170E+00  0.88835251052E+00  0.88000000000E+00 0.  1.
        -11    1    4    4    0    0  0.13176487273E-01 -0.43793618952E-01  0.48104432583E-01  0.66376188750E-01  0.51100000000E-03 0.  1.
         11    1    4    4    0    0  0.35199151723E-02 -0.29801970363E-01  0.58301402442E-01  0.65573332140E-01  0.51100000000E-03 0. -1.
</event>
<event>
 8    1  0.1112958E+005  0.1043930E+01  0.7957747E-01            NaN
         13   -1    0    0    0    0  0.00000000000E+00  0.00000000000E+00  0.74505805969E-08  0.10566000000E+00  0.10566000000E+00 0.  1.
     999900   -1    0    0    0    0 -0.00000000000E+00 -0.00000000000E+00 -0.74505805969E-08  0.93827000000E+00  0.93827000000E+00 0. -1.
     999902    2    1    2    0    0 -0.15635786769E-01  0.99817054845E-02 -0.16163118095E-01  0.10193259626E+01  0.10190289786E+01 0.  0.
     999903    2    3    3    0    0 -0.74937055469E-01  0.73623221689E-01 -0.78915799638E-01  0.13281325418E+00  0.19383394960E-01 0.  0.
         14    1    1    2    0    0  0.15635786769E-01 -0.99817054845E-02  0.16163118095E-01  0.24604037450E-01  0.00000000000E+00 0.  1.
     999901    1    3    3    0    0  0.59301268700E-01 -0.63641516205E-01  0.62752681543E-01  0.88651270837E+00  0.88000000000E+00 0.  1.
        -11    1    4    4    0    0 -0.33100912724E-01  0.46015869778E-01 -0.42867221557E-01  0.71070320807E-01  0.51100000000E-03 0.  1.
         11    1    4    4    0    0 -0.41836142745E-01  0.27607351911E-01 -0.36048578081E-01  0.61742933377E-01  0.51100000000E-03 0. -1.
</event>
<event>
 8    1  0.1112958E+005  0.1043930E+01  0.7957747E-01            NaN
         13   -1    0    0    0    0  0.00000000000E+00  0.00000000000E+00  0.74505805969E-08  0.10566000000E+00  0.10566000000E+00 0. -1.
     999900   -1    0    0    0    0 -0.00000000000E+00 -0.00000000000E+00 -0.74505805969E-08  0.93827000000E+00  0.93827000000E+00 0.  1.
     999902    2    1    2    0    0  0.33489427221E-02 -0.23420213237E-01 -0.39459489836E-02  0.10199447479E+01  0.10196626876E+01 0.  0.
     999903    2    3    3    0    0  0.93075287315E-02 -0.95152196119E-01 -0.89909187382E-01  0.13283107960E+00  0.20490564018E-01 0.  0.
         14    1    1    2    0    0 -0.33489427221E-02  0.23420213237E-01  0.39459489836E-02  0.23985252111E-01  0.00000000000E+00 0. -1.
     999901    1    3    3    0    0 -0.59585860094E-02  0.71731982882E-01  0.85963238398E-01  0.88711366829E+00  0.88000000000E+00 0. -1.
        -11    1    4    4    0    0  0.15471024523E-01 -0.54554995590E-01 -0.51606298850E-01  0.76675102514E-01  0.51100000000E-03 0. -1.
         11    1    4    4    0    0 -0.61634957912E-02 -0.40597200530E-01 -0.38302888532E-01  0.56155977083E-01  0.51100000000E-03 0.  1.
</event>
<event>
 8    1  0.1112958E+005  0.1043930E+01  0.7957747E-01            NaN
         13   -1    0    0    0    0  0.00000000000E+00  0.00000000000E+00  0.74505805969E-08  0.10566000000E+00  0.10566000000E+00 0. -1.
     999900   -1    0    0    0    0 -0.00000000000E+00 -0.00000000000E+00 -0.74505805969E-08  0.93827000000E+00  0.93827000000E+00 0.  1.
     999902    2    1    2    0    0  0.12523151719E-01 -0.18645653519E-01  0.65215189137E-02  0.10205415427E+01  0.10202735028E+01 0.  0.
     999903    2    3    3    0    0  0.61343347069E-01  0.48014153083E-01 -0.10234132968E+00  0.12999223973E+00  0.18864503745E-01 0.  0.
         14    1    1    2    0    0 -0.12523151719E-01  0.18645653519E-01 -0.65215189137E-02  0.23388457261E-01  0.00000000000E+00 0. -1.
     999901    1    3    3    0    0 -0.48820195350E-01 -0.66659806602E-01  0.10886284860E+00  0.89054930301E+00  0.88000000000E+00 0. -1.
        -11    1    4    4    0    0  0.35287594134E-01  0.19226169434E-01 -0.62902978608E-01  0.74645198972E-01  0.51100000000E-03 0.  1.
         11    1    4    4    0    0  0.26055752935E-01  0.28787983649E-01 -0.39438351077E-01  0.55347040754E-01  0.51100000000E-03 0. -1.
</event>
<event>
 8    1  0.1112958E+005  0.1043930E+01  0.7957747E-01            NaN
         13   -1    0    0    0    0  0.00000000000E+00  0.00000000000E+00  0.74505805969E-08  0.10566000000E+00  0.10566000000E+00 0.  1.
     999900   -1    0    0    0    0 -0.00000000000E+00 -0.00000000000E+00 -0.74505805969E-08  0.93827000000E+00  0.93827000000E+00 0. -1.
     999902    2    1    2    0    0 -0.12032870263E-01 -0.49947870408E-02  0.21943345560E-01  0.10184104334E+01  0.10180906456E+01 0.  0.
     999903    2    3    3    0    0 -0.18220296585E-01 -0.10835198467E+00 -0.63037909741E-01  0.12827403471E+00  0.20206883131E-01 0.  0.
         14    1    1    2    0    0  0.12032870263E-01  0.49947870408E-02 -0.21943345560E-01  0.25519566586E-01  0.00000000000E+00 0.  1.
     999901    1    3    3    0    0  0.61874263222E-02  0.10335719763E+00  0.84981255301E-01  0.89013639870E+00  0.88000000000E+00 0. -1.
        -11    1    4    4    0    0 -0.22580009174E-01 -0.92645761930E-01 -0.55151144280E-01  0.11015899352E+00  0.51100000000E-03 0. -1.
         11    1    4    4    0    0  0.43597125883E-02 -0.15706222742E-01 -0.78867654605E-02  0.18115041184E-01  0.51100000000E-03 0.  1.
</event>
<event>
 8    1  0.1112958E+005  0.1043930E+01  0.7957747E-01            NaN
         13   -1    0    0    0    0  0.00000000000E+00  0.00000000000E+00  0.74505805969E-08  0.10566000000E+00  0.10566000000E+00 0. -1.
     999900   -1    0    0    0    0 -0.00000000000E+00 -0.00000000000E+00 -0.74505805969E-08  0.93827000000E+00  0.93827000000E+00 0. -1.
     999902    2    1    2    0    0  0.22654456411E-01 -0.42539807181E-02 -0.28932331967E-03  0.10208777885E+01  0.10206174869E+01 0.  0.
     999903    2    3    3    0    0  0.11812845806E+00 -0.24125100856E-01 -0.54638369421E-01  0.13382425842E+00  0.19678100335E-01 0.  0.
         14    1    1    2    0    0 -0.22654456411E-01  0.42539807181E-02  0.28932331967E-03  0.23052211504E-01  0.00000000000E+00 0.  1.
     999901    1    3    3    0    0 -0.95474001653E-01  0.19871120137E-01  0.54349046102E-01  0.88705353008E+00  0.88000000000E+00 0.  1.
        -11    1    4    4    0    0  0.32112915537E-01 -0.15398156294E-01 -0.13674746096E-01  0.38152357244E-01  0.51100000000E-03 0.  1.
         11    1    4    4    0    0  0.86015542528E-01 -0.87269445620E-02 -0.40963623325E-01  0.95671901176E-01  0.51100000000E-03 0. -1.
</event>
<event>
 8    1  0.1112958E+005  0.1043930E+01  0.7957747E-01            NaN
         13   -1    0    0    0    0  0.00000000000E+00  0.00000000000E+00  0.74505805969E-08  0.10566000000E+00  0.10566000000E+00 0. -1.
     999900   -1    0    0    0    0 -0.00000000000E+00 -0.00000000000E+00 -0.74505805969E-08  0.93827000000E+00  0.93827000000E+00 0.  1.
     999902    2    1    2    0    0 -0.34067599811E-02 -0.16043461646E-01 -0.17308453441E-01  0.10200850585E+01  0.10198063274E+01 0.  0.
     999903    2    3    3    0    0 -0.11749579783E+00 -0.40294960996E-01  0.35682955909E-01  0.13080864857E+00  0.20215904857E-01 0.  0.
         14    1    1    2    0    0  0.34067599811E-02  0.16043461646E-01  0.17308453441E-01  0.23844941511E-01  0.00000000000E+00 0. -1.
     999901    1    3    3    0    0  0.11408903785E+00  0.24251499350E-01 -0.52991409350E-01  0.88927640992E+00  0.88000000000E+00 0.  1.
        -11    1    4    4    0    0 -0.75736294725E-01 -0.33242133488E-01  0.16633902587E-01  0.84368084095E-01  0.51100000000E-03 0. -1.
         11    1    4    4    0    0 -0.41759503101E-01 -0.70528275075E-02  0.19049053322E-01  0.46440564473E-01  0.51100000000E-03 0.  1.
</event>
<event>
 8    1  0.1112958E+005  0.1043930E+01  0.7957747E-01            NaN
         13   -1    0    0    0    0  0.00000000000E+00  0.00000000000E+00  0.74505805969E-08  0.10566000000E+00  0.10566000000E+00 0.  1.
     999900   -1    0    0    0    0 -0.00000000000E+00 -0.00000000000E+00 -0.74505805969E-08  0.93827000000E+00  0.93827000000E+00 0. -1.
     999902    2    1    2    0    0 -0.13319350653E-01  0.16620718734E-01 -0.10761282571E-01  0.10200666684E+01  0.10197875021E+01 0.  0.
     999903    2    3    3    0    0  0.97944402859E-01  0.50290989534E-01 -0.66997097576E-01  0.13064226077E+00  0.21365849747E-01 0.  0.
         14    1    1    2    0    0  0.13319350653E-01 -0.16620718734E-01  0.10761282571E-01  0.23863331612E-01  0.00000000000E+00 0. -1.
     999901    1    3    3    0    0 -0.11126375351E+00 -0.33670270800E-01  0.56235815005E-01  0.88942440762E+00  0.88000000000E+00 0.  1.
        -11    1    4    4    0    0  0.85530857243E-01  0.38487909066E-01 -0.63173621908E-01  0.11308410282E+00  0.51100000000E-03 0. -1.
         11    1    4    4    0    0  0.12413545616E-01  0.11803080468E-01 -0.38234756672E-02  0.17558157946E-01  0.51100000000E-03 0.  1.
</event>
<event>
 8    1  0.1112958E+005  0.1043930E+01  0.7957747E-01            NaN
         13   -1    0    0    0    0  0.00000000000E+00  0.00000000000E+00  0.74505805969E-08  0.10566000000E+00  0.10566000000E+00 0.  1.
     999900   -1    0    0    0    0 -0.00000000000E+00 -0.00000000000E+00 -0.74505805969E-08  0.93827000000E+00  0.93827000000E+00 0. -1.
     999902    2    1    2    0    0  0.35299611875E-02 -0.89697287635E-02 -0.21443217769E-01  0.10204198267E+01  0.10201489570E+01 0.  0.
     999903    2    3    3    0    0  0.10508095373E+00 -0.48135938854E-01  0.56561781561E-01  0.13028984967E+00  0.20423867088E-01 0.  0.
         14    1    1    2    0    0 -0.35299611875E-02  0.89697287635E-02  0.21443217769E-01  0.23510173295E-01  0.00000000000E+00 0.  1.
     999901    1    3    3    0    0 -0.10155099254E+00  0.39166210090E-01 -0.78004999330E-01  0.89012997704E+00  0.88000000000E+00 0. -1.
        -11    1    4    4    0    0  0.51711769932E-01 -0.34850800720E-01  0.29187000547E-01  0.68853667892E-01  0.51100000000E-03 0.  1.
         11    1    4    4    0    0  0.53369183799E-01 -0.13285138134E-01  0.27374781013E-01  0.61436181776E-01  0.51100000000E-03 0. -1.
</event>
<event>
 8    1  0.1112958E+005  0.1043930E+01  0.7957747E-01            NaN
         13   -1    0    0    0    0  0.00000000000E+00  0.00000000000E+00  0.74505805969E-08  0.10566000000E+00  0.10566000000E+00 0. -1.
     999900   -1    0    0    0    0 -0.00000000000E+00 -0.00000000000E+00 -0.74505805969E-08  0.93827000000E+00  0.93827000000E+00 0. -1.
     999902    2    1    2    0    0  0.42382685033E-02  0.22226885086E-01  0.68844983053E-02  0.10202784957E+01  0.10200043211E+01 0.  0.
     999903    2    3    3    0    0  0.29555398999E-01 -0.63639130962E-01  0.10741092319E+00  0.13004285724E+00  0.21226815582E-01 0.  0.
         14    1    1    2    0    0 -0.42382685033E-02 -0.22226885086E-01 -0.68844983053E-02  0.23651504338E-01  0.00000000000E+00 0.  1.
     999901    1    3    3    0    0 -0.25317130496E-01  0.85866016048E-01 -0.10052642489E+00  0.89023563842E+00  0.88000000000E+00 0. -1.
        -11    1    4    4    0    0  0.30519251292E-01 -0.48057525884E-01  0.75961925795E-01  0.94928529879E-01  0.51100000000E-03 0.  1.
         11    1    4    4    0    0 -0.96385229285E-03 -0.15581605078E-01  0.31448997397E-01  0.35114327366E-01  0.51100000000E-03 0. -1.
</event>
<event>
 8    1  0.1112958E+005  0.1043930E+01  0.7957747E-01            NaN
         13   -1    0    0    0    0  0.00000000000E+00  0.00000000000E+00  0.74505805969E-08  0.10566000000E+00  0.10566000000E+00 0.  1.
     999900   -1    0    0    0    0 -0.00000000000E+00 -0.00000000000E+00 -0.74505805969E-08  0.93827000000E+00  0.93827000000E+00 0. -1.
     999902    2    1    2    0    0  0.16474800773E-01 -0.59278350634E-03 -0.18285042856E-01  0.10193106327E+01  0.10190132741E+01 0.  0.
     999903    2    3    3    0    0  0.15406966896E-01 -0.12477515738E+00 -0.28550402284E-01  0.13053181893E+00  0.20425859915E-01 0.  0.
         14    1    1    2    0    0 -0.16474800773E-01  0.59278350634E-03  0.18285042856E-01  0.24619367275E-01  0.00000000000E+00 0.  1.
     999901    1    3    3    0    0  0.10678338764E-02  0.12418237388E+00  0.10265359428E-01  0.88877881380E+00  0.88000000000E+00 0.  1.
        -11    1    4    4    0    0  0.17515242410E-01 -0.93183519995E-01 -0.14620578679E-01  0.95937347041E-01  0.51100000000E-03 0. -1.
         11    1    4    4    0    0 -0.21082755136E-02 -0.31591637387E-01 -0.13929823606E-01  0.34594471887E-01  0.51100000000E-03 0.  1.
</event>
<event>
 8    1  0.1112958E+005  0.1043930E+01  0.7957747E-01            NaN
         13   -1    0    0    0    0  0.00000000000E+00  0.00000000000E+00  0.74505805969E-08  0.10566000000E+00  0.10566000000E+00 0. -1.
     999900   -1    0    0    0    0 -0.00000000000E+00 -0.00000000000E+00 -0.74505805969E-08  0.93827000000E+00  0.93827000000E+00 0.  1.
     999902    2    1    2    0    0  0.27305089756E-02 -0.65739083039E-02  0.25038066003E-01  0.10178996965E+01  0.10175668113E+01 0.  0.
     999903    2    3    3    0    0 -0.40110085469E-01 -0.10949011002E+00  0.54040794469E-01  0.13039295325E+00  0.22022979855E-01 0.  0.
         14    1    1    2    0    0 -0.27305089756E-02  0.65739083039E-02 -0.25038066003E-01  0.26030303472E-01  0.00000000000E+00 0.  1.
     999901    1    3    3    0    0  0.42840594444E-01  0.10291620172E+00 -0.29002728466E-01  0.88750674328E+00  0.88000000000E+00 0.  1.
        -11    1    4    4    0    0 -0.38992027977E-01 -0.91988747541E-01  0.52269330307E-01  0.11275926539E+00  0.51100000000E-03 0.  1.
         11    1    4    4    0    0 -0.11180574920E-02 -0.17501362478E-01  0.17714641614E-02  0.17633687857E-01  0.51100000000E-03 0. -1.
</event>
<event>
 8    1  0.1112958E+005  0.1043930E+01  0.7957747E-01            NaN
         13   -1    0    0    0    0  0.00000000000E+00  0.00000000000E+00  0.74505805969E-08  0.10566000000E+00  0.10566000000E+00 0.  1.
     999900   -1    0    0    0    0 -0.00000000000E+00 -0.00000000000E+00 -0.74505805969E-08  0.93827000000E+00  0.93827000000E+00 0. -1.
     999902    2    1    2    0    0  0.11818987707E-01 -0.20099455223E-01  0.63040816795E-03  0.10206046064E+01  0.10203380267E+01 0.  0.
     999903    2    3    3    0    0 -0.36472646844E-01 -0.12233398834E+00  0.31872117085E-01  0.13282083427E+00  0.18157188604E-01 0.  0.
         14    1    1    2    0    0 -0.11818987707E-01  0.20099455223E-01 -0.63040816795E-03  0.23325393568E-01  0.00000000000E+00 0.  1.
     999901    1    3    3    0    0  0.48291634551E-01  0.10223453312E+00 -0.31241708917E-01  0.88778377216E+00  0.88000000000E+00 0. -1.
        -11    1    4    4    0    0 -0.13962852601E-01 -0.58864104211E-01  0.23722438268E-01  0.64984299763E-01  0.51100000000E-03 0.  1.
         11    1    4    4    0    0 -0.22509794243E-01 -0.63469884132E-01  0.81496788169E-02  0.67836534511E-01  0.51100000000E-03 0. -1.
</event>
<event>
 8    1  0.1112958E+005  0.1043930E+01  0.7957747E-01            NaN
         13   -1    0    0    0    0  0.00000000000E+00  0.00000000000E+00  0.74505805969E-08  0.10566000000E+00  0.10566000000E+00 0. -1.
     999900   -1    0    0    0    0 -0.00000000000E+00 -0.00000000000E+00 -0.74505805969E-08  0.93827000000E+00  0.93827000000E+00 0.  1.
     999902    2    1    2    0    0  0.19836735891E-01 -0.57279985921E-02  0.11566934295E-01  0.10202635675E+01  0.10199890426E+01 0.  0.
     999903    2    3    3    0    0 -0.81069918493E-01 -0.82073392572E-01  0.56600476004E-01  0.13007325528E+00  0.20175837085E-01 0.  0.
         14    1    1    2    0    0 -0.19836735891E-01  0.57279985921E-02 -0.11566934295E-01  0.23666432508E-01  0.00000000000E+00 0. -1.
     999901    1    3    3    0    0  0.10090665438E+00  0.76345393980E-01 -0.45033541709E-01  0.89019031221E+00  0.88000000000E+00 0.  1.
        -11    1    4    4    0    0 -0.64660965559E-02 -0.50097734909E-02 -0.11141516359E-02  0.82710755025E-02  0.51100000000E-03 0.  1.
         11    1    4    4    0    0 -0.74603821937E-01 -0.77063619081E-01  0.57714627640E-01  0.12180217978E+00  0.51100000000E-03 0. -1.
</event>
<event>
 8    1  0.1112958E+005  0.1043930E+01  0.7957747E-01            NaN
         13   -1    0    0    0    0  0.00000000000E+00  0.00000000000E+00  0.74505805969E-08  0.10566000000E+00  0.10566000000E+00 0. -1.
     999900   -1    0    0    0    0 -0.00000000000E+00 -0.00000000000E+00 -0.74505805969E-08  0.93827000000E+00  0.93827000000E+00 0.  1.
     999902    2    1    2    0    0 -0.13501859908E-01 -0.19775749459E-01 -0.61088140292E-03  0.10199768444E+01  0.10196955474E+01 0.  0.
     999903    2    3    3    0    0 -0.55724359388E-01  0.10028765785E+00  0.54745297689E-01  0.12909959819E+00  0.22513109246E-01 0.  0.
         14    1    1    2    0    0  0.13501859908E-01  0.19775749459E-01  0.61088140292E-03  0.23953155611E-01  0.00000000000E+00 0. -1.
     999901    1    3    3    0    0  0.42222499480E-01 -0.12006340730E+00 -0.55356179092E-01  0.89087724620E+00  0.88000000000E+00 0. -1.
        -11    1    4    4    0    0 -0.27662117826E-01  0.53547446431E-01  0.16458861053E-01  0.62479412690E-01  0.51100000000E-03 0.  1.
         11    1    4    4    0    0 -0.28062241562E-01  0.46740211414E-01  0.38286436635E-01  0.66620185498E-01  0.51100000000E-03 0. -1.
</event>
<event>
 8    1  0.1112958E+005  0.1043930E+01  0.7957747E-01            NaN
         13   -1    0    0    0    0  0.00000000000E+00  0.00000000000E+00  0.74505805969E-08  0.10566000000E+00  0.10566000000E+00 0.  1.
     999900   -1    0    0    0    0 -0.00000000000E+00 -0.00000000000E+00 -0.74505805969E-08  0.93827000000E+00  0.93827000000E+00 0. -1.
     999902    2    1    2    0    0 -0.13787994913E-01  0.14227628130E-01  0.13714163210E-01  0.10198340983E+01  0.10195493983E+01 0.  0.
     999903    2    3    3    0    0  0.25913347029E-01 -0.11328884182E+00  0.51912929506E-01  0.12893803680E+00  0.20596161028E-01 0.  0.
         14    1    1    2    0    0  0.13787994913E-01 -0.14227628130E-01 -0.13714163210E-01  0.24095901695E-01  0.00000000000E+00 0. -1.
     999901    1    3    3    0    0 -0.39701341941E-01  0.12751646995E+00 -0.38198766296E-01  0.89089606151E+00  0.88000000000E+00 0. -1.
        -11    1    4    4    0    0 -0.10362653167E-02 -0.88051002755E-02  0.94805081259E-02  0.12990180599E-01  0.51100000000E-03 0.  1.
         11    1    4    4    0    0  0.26949612345E-01 -0.10448374154E+00  0.42432421380E-01  0.11594785620E+00  0.51100000000E-03 0. -1.
</event>
<event>
 8    1  0.1112958E+005  0.1043930E+01  0.7957747E-01            NaN
         13   -1    0    0    0    0  0.00000000000E+00  0.00000000000E+00  0.74505805969E-08  0.10566000000E+00  0.10566000000E+00 0. -1.
     999900   -1    0    0    0    0 -0.00000000000E+00 -0.00000000000E+00 -0.74505805969E-08  0.93827000000E+00  0.93827000000E+00 0. -1.
     999902    2    1    2    0    0 -0.63634784309E-02  0.15204531618E-01  0.20431706063E-01  0.10176787857E+01  0.10173401519E+01 0.  0.
     999903    2    3    3    0    0  0.26682025497E-01 -0.10679923459E+00  0.61617818738E-01  0.12769383067E+00  0.19772501424E-01 0.  0.
         14    1    1    2    0    0  0.63634784309E-02 -0.15204531618E-01 -0.20431706063E-01  0.26251214298E-01  0.00000000000E+00 0.  1.
     999901    1    3    3    0    0 -0.33045503928E-01  0.12200376621E+00 -0.41186112675E-01  0.88998495503E+00  0.88000000000E+00 0.  1.
        -11    1    4    4    0    0  0.29055336680E-01 -0.84397375630E-01  0.50716582195E-01  0.10266237107E+00  0.51100000000E-03 0. -1.
         11    1    4    4    0    0 -0.23733111826E-02 -0.22401858960E-01  0.10901236543E-01  0.25031459606E-01  0.51100000000E-03 0.  1.
</event>
<event>
 8    1  0.1112958E+005  0.1043930E+01  0.7957747E-01            NaN
         13   -1    0    0    0    0  0.00000000000E+00  0.00000000000E+00  0.74505805969E-08  0.10566000000E+00  0.10566000000E+00 0. -1.
     999900   -1    0    0    0    0 -0.00000000000E+00 -0.00000000000E+00 -0.74505805969E-08  0.93827000000E+00  0.93827000000E+00 0. -1.
     999902    2    1    2    0    0 -0.65115097177E-02 -0.22131031364E-02  0.22550083387E-01  0.10203545075E+01  0.10200821130E+01 0.  0.
     999903    2    3    3    0    0 -0.40756508041E-01 -0.12152545406E+00 -0.16964673972E-01  0.13076495440E+00  0.19548509024E-01 0.  0.
         14    1    1    2    0    0  0.65115097177E-02  0.22131031364E-02 -0.22550083387E-01  0.23575492467E-01  0.00000000000E+00 0.  1.
     999901    1    3    3    0    0  0.34244998323E-01  0.11931235092E+00  0.39514757359E-01  0.88958955313E+00  0.88000000000E+00 0.  1.
        -11    1    4    4    0    0 -0.14409064583E-01 -0.70634465565E-01 -0.13556382869E-01  0.73354519324E-01  0.51100000000E-03 0. -1.
         11    1    4    4    0    0 -0.26347443458E-01 -0.50890988492E-01 -0.34082911032E-02  0.57410435077E-01  0.51100000000E-03 0.  1.
</event>
<event>
 8    1  0.1112958E+005  0.1043930E+01  0.7957747E-01            NaN
         13   -1    0    0    0    0  0.00000000000E+00  0.00000000000E+00  0.74505805969E-08  0.10566000000E+00  0.10566000000E+00 0.  1.
     999900   -1    0    0    0    0 -0.00000000000E+00 -0.00000000000E+00 -0.74505805969E-08  0.93827000000E+00  0.93827000000E+00 0.  1.
     999902    2    1    2    0    0  0.18979011942E-01  0.48614571319E-04  0.11240282749E-01  0.10218721394E+01  0.10216340441E+01 0.  0.
     999903    2    3    3    0    0  0.81784269548E-01 -0.10139848926E+00  0.22718536355E-01  0.13374615422E+00  0.20039498591E-01 0.  0.
         14    1    1    2    0    0 -0.18979011942E-01 -0.48614571319E-04 -0.11240282749E-01  0.22057860593E-01  0.00000000000E+00 0. -1.
     999901    1    3    3    0    0 -0.62805257605E-01  0.10144710384E+00 -0.11478253606E-01  0.88812598519E+00  0.88000000000E+00 0. -1.
        -11    1    4    4    0    0  0.55472267708E-01 -0.62207233876E-01  0.56249108293E-02  0.83539291199E-01  0.51100000000E-03 0.  1.
         11    1    4    4    0    0  0.26312001840E-01 -0.39191255387E-01  0.17093625526E-01  0.50206863020E-01  0.51100000000E-03 0. -1.
</event>
<event>
 8    1  0.1112958E+005  0.1043930E+01  0.7957747E-01            NaN
         13   -1    0    0    0    0  0.00000000000E+00  0.00000000000E+00  0.74505805969E-08  0.10566000000E+00  0.10566000000E+00 0. -1.
     999900   -1    0    0    0    0 -0.00000000000E+00 -0.00000000000E+00 -0.74505805969E-08  0.93827000000E+00  0.93827000000E+00 0.  1.
     999902    2    1    2    0    0 -0.19052604237E-01  0.56993109788E-02 -0.11605113640E-01  0.10209047413E+01  0.10206450550E+01 0.  0.
     999903    2    3    3    0    0  0.12246448349E+00 -0.32153920745E-01  0.93567076901E-02  0.12854867383E+00  0.20144210753E-01 0.  0.
         14    1    1    2    0    0  0.19052604237E-01 -0.56993109788E-02  0.11605113640E-01  0.23025258662E-01  0.00000000000E+00 0. -1.
     999901    1    3    3    0    0 -0.14151708773E+00  0.37853231724E-01 -0.20961821330E-01  0.89235606751E+00  0.88000000000E+00 0.  1.
        -11    1    4    4    0    0  0.75650263348E-01 -0.23282957817E-01 -0.33795118142E-02  0.79225883968E-01  0.51100000000E-03 0.  1.
         11    1    4    4    0    0  0.46814220146E-01 -0.88709629273E-02  0.12736219504E-01  0.49322789858E-01  0.51100000000E-03 0. -1.
</event>
<event>
 8    1  0.1112958E+005  0.1043930E+01  0.7957747E-01            NaN
         13   -1    0    0    0    0  0.00000000000E+00  0.00000000000E+00  0.74505805969E-08  0.10566000000E+00  0.10566000000E+00 0. -1.
     999900   -1    0    0    0    0 -0.00000000000E+00 -0.00000000000E+00 -0.74505805969E-08  0.93827000000E+00  0.93827000000E+00 0.  1.
     999902    2    1    2    0    0  0.52955108384E-02  0.17202187713E-01  0.15137355115E-01  0.10204119810E+01  0.10201409284E+01 0.  0.
     999903    2    3    3    0    0 -0.12654888913E+00 -0.17332432352E-01 -0.92209284193E-02  0.12958713192E+00  0.19818291724E-01 0.  0.
         14    1    1    2    0    0 -0.52955108384E-02 -0.17202187713E-01 -0.15137355115E-01  0.23518018986E-01  0.00000000000E+00 0. -1.
     999901    1    3    3    0    0  0.13184439997E+00  0.34534620065E-01  0.24358283534E-01  0.89082484909E+00  0.88000000000E+00 0. -1.
        -11    1    4    4    0    0 -0.78104793345E-01 -0.59280726238E-02 -0.14054546152E-01  0.79581983998E-01  0.51100000000E-03 0.  1.
         11    1    4    4    0    0 -0.48444095786E-01 -0.11404359728E-01  0.48336177330E-02  0.50005147922E-01  0.51100000000E-03 0. -1.
</event>
<event>
 8    1  0.1112958E+005  0.1043930E+01  0.7957747E-01            NaN
         13   -1    0    0    0    0  0.00000000000E+00  0.00000000000E+00  0.74505805969E-08  0.10566000000E+00  0.10566000000E+00 0. -1.
     999900   -1    0    0    0    0 -0.00000000000E+00 -0.00000000000E+00 -0.74505805969E-08  0.93827000000E+00  0.93827000000E+00 0.  1.
     999902    2    1    2    0    0  0.28737837652E-02  0.20892716841E-01 -0.11302940058E-01  0.10200025951E+01  0.10197219098E+01 0.  0.
     999903    2    3    3    0    0  0.49115350056E-01 -0.70759632155E-01 -0.95333157912E-01  0.13005905026E+00  0.20191641930E-01 0.  0.
         14    1    1    2    0    0 -0.28737837652E-02 -0.20892716841E-01  0.11302940058E-01  0.23927404876E-01  0.00000000000E+00 0.  1.
     999901    1    3    3    0    0 -0.46241566291E-01  0.91652348996E-01  0.84030217854E-01  0.88994354486E+00  0.88000000000E+00 0.  1.
        -11    1    4    4    0    0  0.27761646542E-01 -0.42738464605E-01 -0.41522233865E-01  0.65739199886E-01  0.51100000000E-03 0.  1.
         11    1    4    4    0    0  0.21353703514E-01 -0.28021167549E-01 -0.53810924047E-01  0.64319850376E-01  0.51100000000E-03 0. -1.
</event>
<event>
 8    1  0.1112958E+005  0.1043930E+01  0.7957747E-01            NaN
         13   -1    0    0    0    0  0.00000000000E+00  0.00000000000E+00  0.74505805969E-08  0.10566000000E+00  0.10566000000E+00 0.  1.
     999900   -1    0    0    0    0 -0.00000000000E+00 -0.00000000000E+00 -0.74505805969E-08  0.93827000000E+00  0.93827000000E+00 0. -1.
     999902    2    1    2    0    0  0.15283079433E-01  0.17132032218E-01 -0.35888582253E-02  0.10206929832E+01  0.10204284429E+01 0.  0.
     999903    2    3    3    0    0  0.77963168361E-01  0.96763058905E-01 -0.45653216576E-01  0.13387885152E+00  0.19949574218E-01 0.  0.
         14    1    1    2    0    0 -0.15283079433E-01 -0.17132032218E-01  0.35888582253E-02  0.23237016767E-01  0.00000000000E+00 0. -1.
     999901    1    3    3    0    0 -0.62680088928E-01 -0.79631026687E-01  0.42064358351E-01  0.88681413171E+00  0.88000000000E+00 0.  1.
        -11    1    4    4    0    0  0.50356267275E-02  0.90333631334E-02  0.14450211985E-02  0.10455065438E-01  0.51100000000E-03 0.  1.
         11    1    4    4    0    0  0.72927541634E-01  0.87729695771E-01 -0.47098237775E-01  0.12342378608E+00  0.51100000000E-03 0. -1.
</event>
<event>
 8    1  0.1112958E+005  0.1043930E+01  0.7957747E-01            NaN
         13   -1    0    0    0    0  0.00000000000E+00  0.00000000000E+00  0.74505805969E-08  0.10566000000E+00  0.10566000000E+00 0.  1.
     999900   -1    0    0    0    0 -0.00000000000E+00 -0.00000000000E+00 -0.74505805969E-08  0.93827000000E+00  0.93827000000E+00 0. -1.
     999902    2    1    2    0    0  0.28703430778E-02 -0.22484227187E-01 -0.56519118405E-02  0.10205692755E+01  0.10203018782E+01 0.  0.
     999903    2    3    3    0    0  0.58080412879E-01  0.98999747614E-01 -0.55611959783E-01  0.12910838778E+00  0.20049971009E-01 0.  0.
         14    1    1    2    0    0 -0.28703430778E-02  0.22484227187E-01  0.56519118405E-02  0.23360724497E-01  0.00000000000E+00 0.  1.
     999901    1    3    3    0    0 -0.55210069801E-01 -0.12148397480E+00  0.49960047943E-01  0.89146088772E+00  0.88000000000E+00 0.  1.
        -11    1    4    4    0    0  0.53463516111E-01  0.79164069331E-01 -0.40575440845E-01  0.10378788440E+00  0.51100000000E-03 0. -1.
         11    1    4    4    0    0  0.46168967680E-02  0.19835678283E-01 -0.15036518939E-01  0.25320503382E-01  0.51100000000E-03 0.  1.
</event>
<event>
 8    1  0.1112958E+005  0.1043930E+01  0.7957747E-01            NaN
         13   -1    0    0    0    0  0.00000000000E+00  0.00000000000E+00  0.74505805969E-08  0.10566000000E+00  0.10566000000E+00 0. -1.
     999900   -1    0    0    0    0 -0.00000000000E+00 -0.00000000000E+00 -0.74505805969E-08  0.93827000000E+00  0.93827000000E+00 0.  1.
     999902    2    1    2    0    0  0.12252355532E-01 -0.17791138203E-01 -0.10108163728E-01  0.10200800568E+01  0.10198012074E+01 0.  0.
     999903    2    3    3    0    0 -0.10209116049E-01  0.12235748610E+00  0.28918234584E-01  0.12785294766E+00  0.20845418633E-01 0.  0.
         14    1    1    2    0    0 -0.12252355532E-01  0.17791138203E-01  0.10108163728E-01  0.23849943157E-01  0.00000000000E+00 0. -1.
     999901    1    3    3    0    0  0.22461471581E-01 -0.14014862430E+00 -0.39026398312E-01  0.89222710919E+00  0.88000000000E+00 0.  1.
        -11    1    4    4    0    0 -0.43239378132E-02  0.80830992310E-01  0.28768001885E-01  0.85908118415E-01  0.51100000000E-03 0. -1.
         11    1    4    4    0    0 -0.58851782362E-02  0.41526493791E-01  0.15023269902E-03  0.41944829244E-01  0.51100000000E-03 0.  1.
</event>
<event>
 8    1  0.1112958E+005  0.1043930E+01  0.7957747E-01            NaN
         13   -1    0    0    0    0  0.00000000000E+00  0.00000000000E+00  0.74505805969E-08  0.10566000000E+00  0.10566000000E+00 0.  1.
     999900   -1    0    0    0    0 -0.00000000000E+00 -0.00000000000E+00 -0.74505805969E-08  0.93827000000E+00  0.93827000000E+00 0. -1.
     999902    2    1    2    0    0  0.16978243031E-01  0.14820590285E-01  0.84120017471E-02  0.10198743893E+01  0.10195906519E+01 0.  0.
     999903    2    3    3    0    0 -0.14039665663E-01  0.12905561155E+00  0.12380510955E-01  0.13193998868E+00  0.20060420643E-01 0.  0.
         14    1    1    2    0    0 -0.16978243031E-01 -0.14820590285E-01 -0.84120017471E-02  0.24055610701E-01  0.00000000000E+00 0. -1.
     999901    1    3    3    0    0  0.31017908694E-01 -0.11423502126E+00 -0.39685092083E-02  0.88793440062E+00  0.88000000000E+00 0.  1.
        -11    1    4    4    0    0 -0.17352733795E-01  0.10018444715E+00  0.42814477983E-02  0.10176754265E+00  0.51100000000E-03 0. -1.
         11    1    4    4    0    0  0.33130681318E-02  0.28871164401E-01  0.80990631572E-02  0.30172446029E-01  0.51100000000E-03 0.  1.
</event>
<event>
 8    1  0.1112958E+005  0.1043930E+01  0.7957747E-01            NaN
         13   -1    0    0    0    0  0.00000000000E+00  0.00000000000E+00  0.74505805969E-08  0.10566000000E+00  0.10566000000E+00 0. -1.
     999900   -1    0    0    0    0 -0.00000000000E+00 -0.00000000000E+00 -0.74505805969E-08  0.93827000000E+00  0.93827000000E+00 0.  1.
     999902    2    1    2    0    0 -0.15234944815E-01  0.16038930991E-01  0.35805153357E-02  0.10215208291E+01  0.10212750038E+01 0.  0.
     999903    2    3    3    0    0 -0.42791103357E-01  0.72697891881E-01 -0.10110315367E+00  0.13307935646E+00  0.19292626137E-01 0.  0.
         14    1    1    2    0    0  0.15234944815E-01 -0.16038930991E-01 -0.35805153357E-02  0.22409170911E-01  0.00000000000E+00 0.  1.
     999901    1    3    3    0    0  0.27556158543E-01 -0.56658960890E-01  0.10468366901E+00  0.88844147263E+00  0.88000000000E+00 0.  1.
        -11    1    4    4    0    0 -0.16458195667E-01  0.30952966943E-01 -0.27980936581E-01  0.44857020634E-01  0.51100000000E-03 0.  1.
         11    1    4    4    0    0 -0.26332907690E-01  0.41744924938E-01 -0.73122217094E-01  0.88222335830E-01  0.51100000000E-03 0. -1.
</event>
<event>
 8    1  0.1112958E+005  0.1043930E+01  0.7957747E-01            NaN
         13   -1    0    0    0    0  0.00000000000E+00  0.00000000000E+00  0.74505805969E-08  0.10566000000E+00  0.10566000000E+00 0.  1.
     999900   -1    0    0    0    0 -0.00000000000E+00 -0.00000000000E+00 -0.74505805969E-08  0.93827000000E+00  0.93827000000E+00 0.  1.
     999902    2    1    2    0    0 -0.15430629327E-01  0.14338844911E-01 -0.11607858820E-01  0.10198790295E+01  0.10195954029E+01 0.  0.
     999903    2    3    3    0    0 -0.66197046773E-01  0.11263684469E+00 -0.13999929768E-01  0.13294867830E+00  0.20254511734E-01 0.  0.
         14    1    1    2    0    0  0.15430629327E-01 -0.14338844911E-01  0.11607858820E-01  0.24050970483E-01  0.00000000000E+00 0.  1.
     999901    1    3    3    0    0  0.50766417446E-01 -0.98297999780E-01  0.23920709484E-02  0.88693035121E+00  0.88000000000E+00 0. -1.
        -11    1    4    4    0    0 -0.47384072586E-01  0.66162185178E-01 -0.15223478205E-01  0.82793118628E-01  0.51100000000E-03 0. -1.
         11    1    4    4    0    0 -0.18812974187E-01  0.46474659513E-01  0.12235484368E-02  0.50155559675E-01  0.51100000000E-03 0.  1.
</event>
<event>
 8    1  0.1112958E+005  0.1043930E+01  0.7957747E-01            NaN
         13   -1    0    0    0    0  0.00000000000E+00  0.00000000000E+00  0.74505805969E-08  0.10566000000E+00  0.10566000000E+00 0.  1.
     999900   -1    0    0    0    0 -0.00000000000E+00 -0.00000000000E+00 -0.74505805969E-08  0.93827000000E+00  0.93827000000E+00 0.  1.
     999902    2    1    2    0    0  0.23255979360E-01  0.33665912027E-02 -0.33253486896E-02  0.10201974810E+01  0.10199214028E+01 0.  0.
     999903    2    3    3    0    0 -0.10145723146E+00 -0.62614286543E-01 -0.42320386936E-01  0.12810585223E+00  0.20148834457E-01 0.  0.
         14    1    1    2    0    0 -0.23255979360E-01 -0.33665912027E-02  0.33253486896E-02  0.23732518961E-01  0.00000000000E+00 0.  1.
     999901    1    3    3    0    0  0.12471321082E+00  0.65980877745E-01  0.38995038246E-01  0.89209162881E+00  0.88000000000E+00 0. -1.
        -11    1    4    4    0    0 -0.42312985121E-01 -0.37786659436E-01 -0.21420474793E-01  0.60640895462E-01  0.51100000000E-03 0. -1.
         11    1    4    4    0    0 -0.59144246343E-01 -0.24827627107E-01 -0.20899912143E-01  0.67464956769E-01  0.51100000000E-03 0.  1.
</event>
<event>
 8    1  0.1112958E+005  0.1043930E+01  0.7957747E-01            NaN
         13   -1    0    0    0    0  0.00000000000E+00  0.00000000000E+00  0.74505805969E-08  0.10566000000E+00  0.10566000000E+00 0. -1.
     999900   -1    0    0    0    0 -0.00000000000E+00 -0.00000000000E+00 -0.74505805969E-08  0.93827000000E+00  0.93827000000E+00 0. -1.
     999902    2    1    2    0    0 -0.59750565937E-02  0.17844028729E-01  0.14266048484E-01  0.10203157924E+01  0.10200424919E+01 0.  0.
     999903    2    3    3    0    0  0.40367979189E-01  0.10809099444E+00  0.63382113298E-01  0.13312664703E+00  0.19803409828E-01 0.  0.
         14    1    1    2    0    0  0.59750565937E-02 -0.17844028729E-01 -0.14266048484E-01  0.23614207628E-01  0.00000000000E+00 0.  1.
     999901    1    3    3    0    0 -0.46343035783E-01 -0.90246965712E-01 -0.49116064815E-01  0.88718914534E+00  0.88000000000E+00 0. -1.
        -11    1    4    4    0    0  0.76390823633E-02  0.20990023545E-01  0.21777840014E-01  0.31200514491E-01  0.51100000000E-03 0.  1.
         11    1    4    4    0    0  0.32728896826E-01  0.87100970896E-01  0.41604273284E-01  0.10192613254E+00  0.51100000000E-03 0. -1.
</event>
<event>
 8    1  0.1112958E+005  0.1043930E+01  0.7957747E-01            NaN
         13   -1    0    0    0    0  0.00000000000E+00  0.00000000000E+00  0.74505805969E-08  0.10566000000E+00  0.10566000000E+00 0.  1.
     999900   -1    0    0    0    0 -0.00000000000E+00 -0.00000000000E+00 -0.74505805969E-08  0.93827000000E+00  0.93827000000E+00 0.  1.
     999902    2    1    2    0    0  0.22501680412E-01 -0.38389660948E-02  0.47817616990E-02  0.10206077247E+01  0.10203412170E+01 0.  0.
     999903    2    3    3    0    0  0.12007448277E+00  0.21413179170E-01  0.50870881297E-01  0.13365658196E+00  0.19995741586E-01 0.  0.
         14    1    1    2    0    0 -0.22501680412E-01  0.38389660948E-02 -0.47817616990E-02  0.23322275339E-01  0.00000000000E+00 0. -1.
     999901    1    3    3    0    0 -0.97572802359E-01 -0.25252145265E-01 -0.46089119598E-01  0.88695114271E+00  0.88000000000E+00 0.  1.
        -11    1    4    4    0    0  0.69234384912E-01  0.43817371079E-02  0.22123467958E-01  0.72816952901E-01  0.51100000000E-03 0.  1.
         11    1    4    4    0    0  0.50840097858E-01  0.17031442063E-01  0.28747413339E-01  0.60839629056E-01  0.51100000000E-03 0. -1.
</event>
<event>
 8    1  0.1112958E+005  0.1043930E+01  0.7957747E-01            NaN
         13   -1    0    0    0    0  0.00000000000E+00  0.00000000000E+00  0.74505805969E-08  0.10566000000E+00  0.10566000000E+00 0.  1.
     999900   -1    0    0    0    0 -0.00000000000E+00 -0.00000000000E+00 -0.74505805969E-08  0.93827000000E+00  0.93827000000E+00 0.  1.
     999902    2    1    2    0    0 -0.16799543058E-02  0.81964643752E-02  0.21184062376E-01  0.10211535039E+01  0.10208994612E+01 0.  0.
     999903    2    3    3    0    0  0.97452575096E-01 -0.56068657386E-01  0.66458109061E-01  0.13210513428E+00  0.19859192073E-01 0.  0.
         14    1    1    2    0    0  0.16799543058E-02 -0.81964643752E-02 -0.21184062376E-01  0.22776496075E-01  0.00000000000E+00 0. -1.
     999901    1    3    3    0    0 -0.99132529402E-01  0.64265121762E-01 -0.45274046685E-01  0.88904836964E+00  0.88000000000E+00 0. -1.
        -11    1    4    4    0    0  0.67249177229E-01 -0.48203410922E-01  0.44589139093E-01  0.93991877885E-01  0.51100000000E-03 0.  1.
         11    1    4    4    0    0  0.30203397868E-01 -0.78652464646E-02  0.21868969968E-01  0.38113256397E-01  0.51100000000E-03 0. -1.
</event>
<event>
 8    1  0.1112958E+005  0.1043930E+01  0.7957747E-01            NaN
         13   -1    0    0    0    0  0.00000000000E+00  0.00000000000E+00  0.74505805969E-08  0.10566000000E+00  0.10566000000E+00 0. -1.
     999900   -1    0    0    0    0 -0.00000000000E+00 -0.00000000000E+00 -0.74505805969E-08  0.93827000000E+00  0.93827000000E+00 0. -1.
     999902    2    1    2    0    0  0.89919391626E-02  0.18595365362E-01  0.27659216435E-02  0.10230903046E+01  0.10228780369E+01 0.  0.
     999903    2    3    3    0    0  0.40951943555E-01 -0.10262082118E+00 -0.68270756017E-01  0.13137229123E+00  0.19740520632E-01 0.  0.
         14    1    1    2    0    0 -0.89919391626E-02 -0.18595365362E-01 -0.27659216435E-02  0.20839695424E-01  0.00000000000E+00 0.  1.
     999901    1    3    3    0    0 -0.31960004392E-01  0.12121618654E+00  0.71036677661E-01  0.89171801335E+00  0.88000000000E+00 0.  1.
        -11    1    4    4    0    0  0.37648589378E-01 -0.84585739295E-01 -0.63956931170E-01  0.11252961272E+00  0.51100000000E-03 0.  1.
         11    1    4    4    0    0  0.33033541769E-02 -0.18035081881E-01 -0.43138248476E-02  0.18842678501E-01  0.51100000000E-03 0. -1.
</event>
<event>
 8    1  0.1112958E+005  0.1043930E+01  0.7957747E-01            NaN
         13   -1    0    0    0    0  0.00000000000E+00  0.00000000000E+00  0.74505805969E-08  0.10566000000E+00  0.10566000000E+00 0. -1.
     999900   -1    0    0    0    0 -0.00000000000E+00 -0.00000000000E+00 -0.74505805969E-08  0.93827000000E+00  0.93827000000E+00 0. -1.
     999902    2    1    2    0    0 -0.68391903390E-02  0.13127448693E-01  0.18994718538E-01  0.10198488089E+01  0.10195644605E+01 0.  0.
     999903    2    3    3    0    0 -0.32285024717E-02 -0.97232145031E-01 -0.79974178045E-01  0.12744356489E+00  0.19531508473E-01 0.  0.
         14    1    1    2    0    0  0.68391903390E-02 -0.13127448693E-01 -0.18994718538E-01  0.24081191125E-01  0.00000000000E+00 0.  1.
     999901    1    3    3    0    0 -0.36106878673E-02  0.11035959372E+00  0.98968896583E-01  0.89240524398E+00  0.88000000000E+00 0.  1.
        -11    1    4    4    0    0 -0.12945237135E-02 -0.82919718858E-02 -0.96857150400E-03  0.84635596033E-02  0.51100000000E-03 0.  1.
         11    1    4    4    0    0 -0.19339787582E-02 -0.88940173146E-01 -0.79005606541E-01  0.11898000529E+00  0.51100000000E-03 0. -1.
</event>
<event>
 8    1  0.1112958E+005  0.1043930E+01  0.7957747E-01            NaN
         13   -1    0    0    0    0  0.00000000000E+00  0.00000000000E+00  0.74505805969E-08  0.10566000000E+00  0.10566000000E+00 0.  1.
     999900   -1    0    0    0    0 -0.00000000000E+00 -0.00000000000E+00 -0.74505805969E-08  0.93827000000E+00  0.93827000000E+00 0.  1.
     999902    2    1    2    0    0  0.90864914863E-02  0.19563072179E-01 -0.76867058742E-02  0.10210310138E+01  0.10207742001E+01 0.  0.
     999903    2    3    3    0    0 -0.11824010425E+00  0.74336742299E-02 -0.51356235430E-01  0.13071297397E+00  0.20308542059E-01 0.  0.
         14    1    1    2    0    0 -0.90864914863E-02 -0.19563072179E-01  0.76867058742E-02  0.22898986175E-01  0.00000000000E+00 0.  1.
     999901    1    3    3    0    0  0.12732659574E+00  0.12129397950E-01  0.43669529556E-01  0.89031803985E+00  0.88000000000E+00 0. -1.
        -11    1    4    4    0    0 -0.39736834515E-01  0.17651427714E-02 -0.70784457915E-02  0.40404173820E-01  0.51100000000E-03 0.  1.
         11    1    4    4    0    0 -0.78503269739E-01  0.56685314585E-02 -0.44277789638E-01  0.90308800151E-01  0.51100000000E-03 0. -1.
</event>
<event>
 8    1  0.1112958E+005  0.1043930E+01  0.7957747E-01            NaN
         13   -1    0    0    0    0  0.00000000000E+00  0.00000000000E+00  0.74505805969E-08  0.10566000000E+00  0.10566000000E+00 0.  1.
     999900   -1    0    0    0    0 -0.00000000000E+00 -0.00000000000E+00 -0.74505805969E-08  0.93827000000E+00  0.93827000000E+00 0.  1.
     999902    2    1    2    0    0 -0.57628844302E-02  0.18668981511E-01  0.13332191935E-01  0.10202764791E+01  0.10200022573E+01 0.  0.
     999903    2    3    3    0    0 -0.20411665686E-01 -0.50641129520E-01 -0.11431403852E+00  0.12824955217E+00  0.19977190314E-01 0.  0.
         14    1    1    2    0    0  0.57628844302E-02 -0.18668981511E-01 -0.13332191935E-01  0.23653520867E-01  0.00000000000E+00 0. -1.
     999901    1    3    3    0    0  0.14648781255E-01  0.69310111030E-01  0.12764623046E+00  0.89202692697E+00  0.88000000000E+00 0. -1.
        -11    1    4    4    0    0 -0.41377007522E-02 -0.35969886327E-01 -0.72487557472E-01  0.81028762790E-01  0.51100000000E-03 0.  1.
         11    1    4    4    0    0 -0.16273964933E-01 -0.14671243192E-01 -0.41826481049E-01  0.47220789377E-01  0.51100000000E-03 0. -1.
</event>
<event>
 8    1  0.1112958E+005  0.1043930E+01  0.7957747E-01            NaN
         13   -1    0    0    0    0  0.00000000000E+00  0.00000000000E+00  0.74505805969E-08  0.10566000000E+00  0.10566000000E+00 0.  1.
     999900   -1    0    0    0    0 -0.00000000000E+00 -0.00000000000E+00 -0.74505805969E-08  0.93827000000E+00  0.93827000000E+00 0.  1.
     999902    2    1    2    0    0 -0.24020477030E-01  0.17373358491E-03  0.88469076793E-03  0.10198926088E+01  0.10196093062E+01 0.  0.
     999903    2    3    3    0    0  0.13613058317E-01 -0.12317887171E+00 -0.33931676436E-01  0.12981152950E+00  0.18474975910E-01 0.  0.
         14    1    1    2    0    0  0.24020477030E-01 -0.17373358491E-03 -0.88469076793E-03  0.24037391244E-01  0.00000000000E+00 0. -1.
     999901    1    3    3    0    0 -0.37633535347E-01  0.12335260529E+00  0.34816367204E-01  0.89008107925E+00  0.88000000000E+00 0. -1.
        -11    1    4    4    0    0  0.16369485655E-01 -0.90633374014E-01 -0.19723926179E-01  0.94189505417E-01  0.51100000000E-03 0.  1.
         11    1    4    4    0    0 -0.27564273379E-02 -0.32545497692E-01 -0.14207750257E-01  0.35622024087E-01  0.51100000000E-03 0. -1.
</event>
<event>
 8    1  0.1112958E+005  0.1043930E+01  0.7957747E-01            NaN
         13   -1    0    0    0    0  0.00000000000E+00  0.00000000000E+00  0.74505805969E-08  0.10566000000E+00  0.10566000000E+00 0. -1.
     999900   -1    0    0    0    0 -0.00000000000E+00 -0.00000000000E+00 -0.74505805969E-08  0.93827000000E+00  0.93827000000E+00 0. -1.
     999902    2    1    2    0    0  0.15240393179E-01  0.58912882391E-02  0.18352707892E-01  0.10193576833E+01  0.10190614740E+01 0.  0.
     999903    2    3    3    0    0  0.41692685913E-01  0.12186379300E+00  0.16716533316E-01  0.13135316601E+00  0.19625178487E-01 0.  0.
         14    1    1    2    0    0 -0.15240393179E-01 -0.58912882391E-02 -0.18352707892E-01  0.24572316707E-01  0.00000000000E+00 0.  1.
     999901    1    3    3    0    0 -0.26452292734E-01 -0.11597250476E+00  0.16361745769E-02  0.88800451729E+00  0.88000000000E+00 0. -1.
        -11    1    4    4    0    0  0.24386400022E-01  0.70055319812E-01  0.19357755551E-01  0.76664386523E-01  0.51100000000E-03 0.  1.
         11    1    4    4    0    0  0.17306285891E-01  0.51808473190E-01 -0.26412222350E-02  0.54688779485E-01  0.51100000000E-03 0. -1.
</event>
<event>
 8    1  0.1112958E+005  0.1043930E+01  0.7957747E-01            NaN
         13   -1    0    0    0    0  0.00000000000E+00  0.00000000000E+00  0.74505805969E-08  0.10566000000E+00  0.10566000000E+00 0. -1.
     999900   -1    0    0    0    0 -0.00000000000E+00 -0.00000000000E+00 -0.74505805969E-08  0.93827000000E+00  0.93827000000E+00 0. -1.
     999902    2    1    2    0    0  0.13247301925E-02 -0.23003033313E-01 -0.38350233038E-02  0.10205718782E+01  0.10203045411E+01 0.  0.
     999903    2    3    3    0    0 -0.49663238804E-01  0.39963667833E-01  0.11080473508E+00  0.12944514609E+00  0.20367240718E-01 0.  0.
         14    1    1    2    0    0 -0.13247301925E-02  0.23003033313E-01  0.38350233038E-02  0.23358121830E-01  0.00000000000E+00 0. -1.
     999901    1    3    3    0    0  0.50987968996E-01 -0.62966701146E-01 -0.11463975838E+00  0.89112673209E+00  0.88000000000E+00 0. -1.
        -11    1    4    4    0    0 -0.14292088863E-01  0.23855851290E-01  0.51647882095E-01  0.58661148052E-01  0.51100000000E-03 0.  1.
         11    1    4    4    0    0 -0.35371149940E-01  0.16107816542E-01  0.59156852982E-01  0.70783998033E-01  0.51100000000E-03 0. -1.
</event>
<event>
 8    1  0.1112958E+005  0.1043930E+01  0.7957747E-01            NaN
         13   -1    0    0    0    0  0.00000000000E+00  0.00000000000E+00  0.74505805969E-08  0.10566000000E+00  0.10566000000E+00 0.  1.
     999900   -1    0    0    0    0 -0.00000000000E+00 -0.00000000000E+00 -0.74505805969E-08  0.93827000000E+00  0.93827000000E+00 0.  1.
     999902    2    1    2    0    0  0.23008692751E-01 -0.14395037011E-02 -0.72556407013E-02  0.10197614991E+01  0.10194750603E+01 0.  0.
     999903    2    3    3    0    0  0.11046663599E+00 -0.22251683353E-01 -0.68074231613E-01  0.13309304944E+00  0.19535703711E-01 0.  0.
         14    1    1    2    0    0 -0.23008692751E-01  0.14395037011E-02  0.72556407013E-02  0.24168500884E-01  0.00000000000E+00 0. -1.
     999901    1    3    3    0    0 -0.87457943239E-01  0.20812179652E-01  0.60818590912E-01  0.88666844968E+00  0.88000000000E+00 0. -1.
        -11    1    4    4    0    0  0.81977600373E-01 -0.15423978695E-01 -0.39992983956E-01  0.92509058845E-01  0.51100000000E-03 0.  1.
         11    1    4    4    0    0  0.28489035616E-01 -0.68277046574E-02 -0.28081247658E-01  0.40583990590E-01  0.51100000000E-03 0. -1.
</event>
<event>
 8    1  0.1112958E+005  0.1043930E+01  0.7957747E-01            NaN
         13   -1    0    0    0    0  0.00000000000E+00  0.00000000000E+00  0.74505805969E-08  0.10566000000E+00  0.10566000000E+00 0.  1.
     999900   -1    0    0    0    0 -0.00000000000E+00 -0.00000000000E+00 -0.74505805969E-08  0.93827000000E+00  0.93827000000E+00 0. -1.
     999902    2    1    2    0    0  0.17239059757E-01 -0.15567006050E-01  0.30102415939E-03  0.10207005473E+01  0.10204361811E+01 0.  0.
     999903    2    3    3    0    0 -0.93147688383E-02 -0.57996281146E-01  0.11703750091E+00  0.13158145839E+00  0.12867401749E-01 0.  0.
         14    1    1    2    0    0 -0.17239059757E-01  0.15567006050E-01 -0.30102415939E-03  0.23229452732E-01  0.00000000000E+00 0.  1.
     999901    1    3    3    0    0  0.26553828595E-01  0.42429275096E-01 -0.11673647675E+00  0.88911908888E+00  0.88000000000E+00 0. -1.
        -11    1    4    4    0    0  0.24493258008E-02 -0.32081124209E-02  0.70153754445E-02  0.81097346326E-02  0.51100000000E-03 0. -1.
         11    1    4    4    0    0 -0.11764094639E-01 -0.54788168725E-01  0.11002212547E+00  0.12347172376E+00  0.51100000000E-03 0.  1.
</event>
<event>
 8    1  0.1112958E+005  0.1043930E+01  0.7957747E-01            NaN
         13   -1    0    0    0    0  0.00000000000E+00  0.00000000000E+00  0.74505805969E-08  0.10566000000E+00  0.10566000000E+00 0. -1.
     999900   -1    0    0    0    0 -0.00000000000E+00 -0.00000000000E+00 -0.74505805969E-08  0.93827000000E+00  0.93827000000E+00 0. -1.
     999902    2    1    2    0    0  0.19815394897E-01 -0.62160149659E-02  0.11543724471E-01  0.10201698171E+01  0.10198930873E+01 0.  0.
     999903    2    3    3    0    0 -0.94533134707E-01  0.23410892638E-01 -0.79873991452E-01  0.12758338506E+00  0.20324423244E-01 0.  0.
         14    1    1    2    0    0 -0.19815394897E-01  0.62160149659E-02 -0.11543724471E-01  0.23760182904E-01  0.00000000000E+00 0. -1.
     999901    1    3    3    0    0  0.11434852960E+00 -0.29626907604E-01  0.91417715924E-01  0.89258643204E+00  0.88000000000E+00 0.  1.
        -11    1    4    4    0    0  0.65766998140E-03 -0.18071824058E-03 -0.25692104564E-02  0.27068713039E-02  0.51100000000E-03 0. -1.
         11    1    4    4    0    0 -0.95190804688E-01  0.23591610879E-01 -0.77304780996E-01  0.12487651375E+00  0.51100000000E-03 0.  1.
</event>
<event>
 8    1  0.1112958E+005  0.1043930E+01  0.7957747E-01            NaN
         13   -1    0    0    0    0  0.00000000000E+00  0.00000000000E+00  0.74505805969E-08  0.10566000000E+00  0.10566000000E+00 0. -1.
     999900   -1    0    0    0    0 -0.00000000000E+00 -0.00000000000E+00 -0.74505805969E-08  0.93827000000E+00  0.93827000000E+00 0. -1.
     999902    2    1    2    0    0 -0.12183335758E-01 -0.52470981066E-03 -0.19095320767E-01  0.10212729864E+01  0.10210216317E+01 0.  0.
     999903    2    3    3    0    0  0.19654191279E-01 -0.53515612488E-01  0.11407388549E+00  0.12910949162E+00  0.20154440252E-01 0.  0.
         14    1    1    2    0    0  0.12183335758E-01  0.52470981066E-03  0.19095320767E-01  0.22657013611E-01  0.00000000000E+00 0.  1.
     999901    1    3    3    0    0 -0.31837527037E-01  0.52990902677E-01 -0.13316920626E+00  0.89216349476E+00  0.88000000000E+00 0. -1.
        -11    1    4    4    0    0  0.19625361612E-01 -0.29746341525E-01  0.79794941175E-01  0.87392753765E-01  0.51100000000E-03 0.  1.
         11    1    4    4    0    0  0.28829667302E-04 -0.23769270963E-01  0.34278944315E-01  0.41716737860E-01  0.51100000000E-03 0. -1.
</event>
<event>
 8    1  0.1112958E+005  0.1043930E+01  0.7957747E-01            NaN
         13   -1    0    0    0    0  0.00000000000E+00  0.00000000000E+00  0.74505805969E-08  0.10566000000E+00  0.10566000000E+00 0.  1.
     999900   -1    0    0    0    0 -0.00000000000E+00 -0.00000000000E+00 -0.74505805969E-08  0.93827000000E+00  0.93827000000E+00 0.  1.
     999902    2    1    2    0    0  0.16331498147E-01  0.17268719397E-01  0.34585132706E-02  0.10199115110E+01  0.10196286591E+01 0.  0.
     999903    2    3    3    0    0  0.80791134095E-01 -0.99687445206E-01  0.90020985010E-02  0.12981908855E+00  0.17526091835E-01 0.  0.
         14    1    1    2    0    0 -0.16331498147E-01 -0.17268719397E-01 -0.34585132706E-02  0.24018489032E-01  0.00000000000E+00 0.  1.
     999901    1    3    3    0    0 -0.64459635948E-01  0.11695616460E+00 -0.55435852304E-02  0.89009242242E+00  0.88000000000E+00 0. -1.
        -11    1    4    4    0    0  0.35783285882E-01 -0.34530898492E-01 -0.25174320046E-02  0.49793825763E-01  0.51100000000E-03 0. -1.
         11    1    4    4    0    0  0.45007848213E-01 -0.65156546714E-01  0.11519530506E-01  0.80025262789E-01  0.51100000000E-03 0.  1.
</event>
<event>
 8    1  0.1112958E+005  0.1043930E+01  0.7957747E-01            NaN
         13   -1    0    0    0    0  0.00000000000E+00  0.00000000000E+00  0.74505805969E-08  0.10566000000E+00  0.10566000000E+00 0. -1.
     999900   -1    0    0    0    0 -0.00000000000E+00 -0.00000000000E+00 -0.74505805969E-08  0.93827000000E+00  0.93827000000E+00 0. -1.
     999902    2    1    2    0    0 -0.18744837268E-01  0.13042910654E-01  0.36007151972E-02  0.10208117909E+01  0.10205499796E+01 0.  0.
     999903    2    3    3    0    0  0.86932001281E-01 -0.10482421925E-01 -0.92504301747E-01  0.12898377509E+00  0.20315372985E-01 0.  0.
         14    1    1    2    0    0  0.18744837268E-01 -0.13042910654E-01 -0.36007151972E-02  0.23118209110E-01  0.00000000000E+00 0. -1.
     999901    1    3    3    0    0 -0.10567683855E+00  0.23525332579E-01  0.96105016944E-01  0.89182801580E+00  0.88000000000E+00 0.  1.
        -11    1    4    4    0    0  0.27138718224E-01  0.35114808991E-02 -0.38288952349E-01  0.47065332443E-01  0.51100000000E-03 0. -1.
         11    1    4    4    0    0  0.59793283057E-01 -0.13993902824E-01 -0.54215349398E-01  0.81918442650E-01  0.51100000000E-03 0.  1.
</event>
<event>
 8    1  0.1112958E+005  0.1043930E+01  0.7957747E-01            NaN
         13   -1    0    0    0    0  0.00000000000E+00  0.00000000000E+00  0.74505805969E-08  0.10566000000E+00  0.10566000000E+00 0.  1.
     999900   -1    0    0    0    0 -0.00000000000E+00 -0.00000000000E+00 -0.74505805969E-08  0.93827000000E+00  0.93827000000E+00 0. -1.
     999902    2    1    2    0    0 -0.17309058673E-01 -0.18611466880E-01 -0.54265912633E-02  0.10179408079E+01  0.10176089870E+01 0.  0.
     999903    2    3    3    0    0 -0.54169627362E-01 -0.35789461500E-01  0.11012982724E+00  0.12945497750E+00  0.20366105889E-01 0.  0.
         14    1    1    2    0    0  0.17309058673E-01  0.18611466880E-01  0.54265912633E-02  0.25989192067E-01  0.00000000000E+00 0. -1.
     999901    1    3    3    0    0  0.36860568689E-01  0.17177994621E-01 -0.11555641850E+00  0.88848583043E+00  0.88000000000E+00 0. -1.
        -11    1    4    4    0    0 -0.87460581718E-02 -0.14792222998E-01  0.20086452571E-01  0.26439177231E-01  0.51100000000E-03 0. -1.
         11    1    4    4    0    0 -0.45423569190E-01 -0.20997238503E-01  0.90043374666E-01  0.10301580027E+00  0.51100000000E-03 0.  1.
</event>
<event>
 8    1  0.1112958E+005  0.1043930E+01  0.7957747E-01            NaN
         13   -1    0    0    0    0  0.00000000000E+00  0.00000000000E+00  0.74505805969E-08  0.10566000000E+00  0.10566000000E+00 0.  1.
     999900   -1    0    0    0    0 -0.00000000000E+00 -0.00000000000E+00 -0.74505805969E-08  0.93827000000E+00  0.93827000000E+00 0.  1.
     999902    2    1    2    0    0  0.31573336197E-03 -0.21382982995E-01  0.66987589697E-02  0.10215200687E+01  0.10212742265E+01 0.  0.
     999903    2    3    3    0    0  0.68532869089E-01  0.82488921033E-01  0.71114451044E-01  0.13045759533E+00  0.21464920068E-01 0.  0.
         14    1    1    2    0    0 -0.31573336197E-03  0.21382982995E-01 -0.66987589697E-02  0.22409931304E-01  0.00000000000E+00 0. -1.
     999901    1    3    3    0    0 -0.68217135727E-01 -0.10387190403E+00 -0.64415692074E-01  0.89106247336E+00  0.88000000000E+00 0. -1.
        -11    1    4    4    0    0  0.55985763267E-01  0.77303189796E-01  0.58702850973E-01  0.11205567667E+00  0.51100000000E-03 0.  1.
         11    1    4    4    0    0  0.12547105823E-01  0.51857312365E-02  0.12411600072E-01  0.18401918659E-01  0.51100000000E-03 0. -1.
</event>
<event>
 8    1  0.1112958E+005  0.1043930E+01  0.7957747E-01            NaN
         13   -1    0    0    0    0  0.00000000000E+00  0.00000000000E+00  0.74505805969E-08  0.10566000000E+00  0.10566000000E+00 0.  1.
     999900   -1    0    0    0    0 -0.00000000000E+00 -0.00000000000E+00 -0.74505805969E-08  0.93827000000E+00  0.93827000000E+00 0.  1.
     999902    2    1    2    0    0 -0.34703902488E-02  0.22393344698E-01  0.63144161569E-02  0.10204060261E+01  0.10201348346E+01 0.  0.
     999903    2    3    3    0    0 -0.12635716406E+00 -0.20824374217E-01 -0.16325031223E-01  0.13052880146E+00  0.19273658050E-01 0.  0.
         14    1    1    2    0    0  0.34703902488E-02 -0.22393344698E-01 -0.63144161569E-02  0.23523973870E-01  0.00000000000E+00 0. -1.
     999901    1    3    3    0    0  0.12288677381E+00  0.43217718916E-01  0.22639447380E-01  0.88987722467E+00  0.88000000000E+00 0.  1.
        -11    1    4    4    0    0 -0.24676640968E-01 -0.65088623733E-02 -0.10737880397E-01  0.27692329178E-01  0.51100000000E-03 0.  1.
         11    1    4    4    0    0 -0.10168052310E+00 -0.14315511844E-01 -0.55871508269E-02  0.10283647228E+00  0.51100000000E-03 0. -1.
</event>
<event>
 8    1  0.1112958E+005  0.1043930E+01  0.7957747E-01            NaN
         13   -1    0    0    0    0  0.00000000000E+00  0.00000000000E+00  0.74505805969E-08  0.10566000000E+00  0.10566000000E+00 0.  1.
     999900   -1    0    0    0    0 -0.00000000000E+00 -0.00000000000E+00 -0.74505805969E-08  0.93827000000E+00  0.93827000000E+00 0.  1.
     999902    2    1    2    0    0  0.31825515131E-02  0.50068910482E-02  0.22317166982E-01  0.10208377170E+01  0.10205764993E+01 0.  0.
     999903    2    3    3    0    0 -0.11979968586E+00 -0.45942933325E-01 -0.93721406268E-02  0.13026221345E+00  0.20437450383E-01 0.  0.
         14    1    1    2    0    0 -0.31825515131E-02 -0.50068910482E-02 -0.22317166982E-01  0.23092283001E-01  0.00000000000E+00 0. -1.
     999901    1    3    3    0    0  0.12298223737E+00  0.50949824373E-01  0.31689307609E-01  0.89057550355E+00  0.88000000000E+00 0. -1.
        -11    1    4    4    0    0 -0.43702038739E-01 -0.26114841158E-01  0.11208943309E-02  0.50925147459E-01  0.51100000000E-03 0. -1.
         11    1    4    4    0    0 -0.76097647117E-01 -0.19828092167E-01 -0.10493034958E-01  0.79337065986E-01  0.51100000000E-03 0.  1.
</event>
<event>
 8    1  0.1112958E+005  0.1043930E+01  0.7957747E-01            NaN
         13   -1    0    0    0    0  0.00000000000E+00  0.00000000000E+00  0.74505805969E-08  0.10566000000E+00  0.10566000000E+00 0.  1.
     999900   -1    0    0    0    0 -0.00000000000E+00 -0.00000000000E+00 -0.74505805969E-08  0.93827000000E+00  0.93827000000E+00 0. -1.
     999902    2    1    2    0    0  0.13376125095E-01 -0.14611473715E-01  0.80251764393E-03  0.10241042611E+01  0.10239123389E+01 0.  0.
     999903    2    3    3    0    0 -0.98584978167E-03 -0.81073945936E-01 -0.10525178186E+00  0.13513236002E+00  0.24675099401E-01 0.  0.
         14    1    1    2    0    0 -0.13376125095E-01  0.14611473715E-01 -0.80251764393E-03  0.19825738858E-01  0.00000000000E+00 0.  1.
     999901    1    3    3    0    0  0.14361974877E-01  0.66462472221E-01  0.10605429951E+00  0.88897190112E+00  0.88000000000E+00 0.  1.
        -11    1    4    4    0    0  0.56866591279E-02 -0.32514678340E-02 -0.97276314069E-02  0.11738742220E-01  0.51100000000E-03 0. -1.
         11    1    4    4    0    0 -0.66725089095E-02 -0.77822478102E-01 -0.95524150456E-01  0.12339361780E+00  0.51100000000E-03 0.  1.
</event>
<event>
 8    1  0.1112958E+005  0.1043930E+01  0.7957747E-01            NaN
         13   -1    0    0    0    0  0.00000000000E+00  0.00000000000E+00  0.74505805969E-08  0.10566000000E+00  0.10566000000E+00 0.  1.
     999900   -1    0    0    0    0 -0.00000000000E+00 -0.00000000000E+00 -0.74505805969E-08  0.93827000000E+00  0.93827000000E+00 0.  1.
     999902    2    1    2    0    0 -0.12516263157E-01  0.19751115708E-01  0.60528126631E-02  0.10197763262E+01  0.10194902430E+01 0.  0.
     999903    2    3    3    0    0 -0.39736493446E-01 -0.89259111111E-01 -0.80835978528E-01  0.12838761612E+00  0.20068550539E-01 0.  0.
         14    1    1    2    0    0  0.12516263157E-01 -0.19751115708E-01 -0.60528126631E-02  0.24153673763E-01  0.00000000000E+00 0.  1.
     999901    1    3    3    0    0  0.27220230289E-01  0.10901022682E+00  0.86888791191E-01  0.89138871012E+00  0.88000000000E+00 0. -1.
        -11    1    4    4    0    0 -0.80380816865E-03 -0.12484320179E-01 -0.17485762143E-01  0.21506216697E-01  0.51100000000E-03 0.  1.
         11    1    4    4    0    0 -0.38932685278E-01 -0.76774790933E-01 -0.63350216384E-01  0.10688139942E+00  0.51100000000E-03 0. -1.
</event>
<event>
 8    1  0.1112958E+005  0.1043930E+01  0.7957747E-01            NaN
         13   -1    0    0    0    0  0.00000000000E+00  0.00000000000E+00  0.74505805969E-08  0.10566000000E+00  0.10566000000E+00 0.  1.
     999900   -1    0    0    0    0 -0.00000000000E+00 -0.00000000000E+00 -0.74505805969E-08  0.93827000000E+00  0.93827000000E+00 0.  1.
     999902    2    1    2    0    0  0.91141462868E-03 -0.11934052228E-01  0.20255989884E-01  0.10204021993E+01  0.10201309185E+01 0.  0.
     999903    2    3    3    0    0 -0.49776485919E-01 -0.63325379810E-01 -0.99254530348E-01  0.12939541131E+00  0.20097472354E-01 0.  0.
         14    1    1    2    0    0 -0.91141462868E-03  0.11934052228E-01 -0.20255989884E-01  0.23527800691E-01  0.00000000000E+00 0. -1.
     999901    1    3    3    0    0  0.50687900548E-01  0.51391327582E-01  0.11951052023E+00  0.89100678800E+00  0.88000000000E+00 0. -1.
        -11    1    4    4    0    0 -0.36429441250E-01 -0.45617620210E-01 -0.56573499771E-01  0.81295101087E-01  0.51100000000E-03 0.  1.
         11    1    4    4    0    0 -0.13347044669E-01 -0.17707759600E-01 -0.42681030578E-01  0.48100310224E-01  0.51100000000E-03 0. -1.
</event>
<event>
 8    1  0.1112958E+005  0.1043930E+01  0.7957747E-01            NaN
         13   -1    0    0    0    0  0.00000000000E+00  0.00000000000E+00  0.74505805969E-08  0.10566000000E+00  0.10566000000E+00 0. -1.
     999900   -1    0    0    0    0 -0.00000000000E+00 -0.00000000000E+00 -0.74505805969E-08  0.93827000000E+00  0.93827000000E+00 0. -1.
     999902    2    1    2    0    0 -0.80713355983E-03  0.18821547174E-01  0.14602269756E-01  0.10200945561E+01  0.10198160496E+01 0.  0.
     999903    2    3    3    0    0  0.12837995157E+00 -0.75790011955E-02 -0.56503909637E-02  0.13004036554E+00  0.18431400556E-01 0.  0.
         14    1    1    2    0    0  0.80713355983E-03 -0.18821547174E-01 -0.14602269756E-01  0.23835443874E-01  0.00000000000E+00 0.  1.
     999901    1    3    3    0    0 -0.12918708513E+00  0.26400548370E-01  0.20252660720E-01  0.89005419059E+00  0.88000000000E+00 0. -1.
        -11    1    4    4    0    0  0.81683955606E-01  0.23247073488E-02  0.17234757056E-02  0.81736799284E-01  0.51100000000E-03 0.  1.
         11    1    4    4    0    0  0.46695995965E-01 -0.99037085443E-02 -0.73738666692E-02  0.48303566253E-01  0.51100000000E-03 0. -1.
</event>
<event>
 8    1  0.1112958E+005  0.1043930E+01  0.7957747E-01            NaN
         13   -1    0    0    0    0  0.00000000000E+00  0.00000000000E+00  0.74505805969E-08  0.10566000000E+00  0.10566000000E+00 0. -1.
     999900   -1    0    0    0    0 -0.00000000000E+00 -0.00000000000E+00 -0.74505805969E-08  0.93827000000E+00  0.93827000000E+00 0. -1.
     999902    2    1    2    0    0  0.13690021069E-01  0.17934939766E-01 -0.11369258921E-01  0.10186646326E+01  0.10183512630E+01 0.  0.
     999903    2    3    3    0    0  0.87576014051E-01 -0.76256612536E-01 -0.53810531900E-01  0.12954571472E+00  0.20047185995E-01 0.  0.
         14    1    1    2    0    0 -0.13690021069E-01 -0.17934939766E-01  0.11369258921E-01  0.25265367398E-01  0.00000000000E+00 0. -1.
     999901    1    3    3    0    0 -0.73885992982E-01  0.94191552303E-01  0.42441272979E-01  0.88911891788E+00  0.88000000000E+00 0. -1.
        -11    1    4    4    0    0  0.35331502906E-01 -0.32993294810E-01 -0.11823762875E-01  0.49768816437E-01  0.51100000000E-03 0. -1.
         11    1    4    4    0    0  0.52244511146E-01 -0.43263317726E-01 -0.41986769025E-01  0.79776898283E-01  0.51100000000E-03 0.  1.
</event>
<event>
 8    1  0.1112958E+005  0.1043930E+01  0.7957747E-01            NaN
         13   -1    0    0    0    0  0.00000000000E+00  0.00000000000E+00  0.74505805969E-08  0.10566000000E+00  0.10566000000E+00 0.  1.
     999900   -1    0    0    0    0 -0.00000000000E+00 -0.00000000000E+00 -0.74505805969E-08  0.93827000000E+00  0.93827000000E+00 0.  1.
     999902    2    1    2    0    0  0.22645919107E-01 -0.12627193732E-02  0.19099031725E-02  0.10211686327E+01  0.10209149311E+01 0.  0.
     999903    2    3    3    0    0  0.11341593350E+00  0.65612484111E-01 -0.18399732226E-01  0.13374315995E+00  0.19506682032E-01 0.  0.
         14    1    1    2    0    0 -0.22645919107E-01  0.12627193732E-02 -0.19099031725E-02  0.22761367326E-01  0.00000000000E+00 0. -1.
     999901    1    3    3    0    0 -0.90770014392E-01 -0.66875203484E-01  0.20309635399E-01  0.88742547273E+00  0.88000000000E+00 0. -1.
        -11    1    4    4    0    0  0.10237564133E-01  0.12580671853E-01  0.32653107639E-03  0.16231104929E-01  0.51100000000E-03 0. -1.
         11    1    4    4    0    0  0.10317836937E+00  0.53031812258E-01 -0.18726263303E-01  0.11751205502E+00  0.51100000000E-03 0.  1.
</event>
<event>
 8    1  0.1112958E+005  0.1043930E+01  0.7957747E-01            NaN
         13   -1    0    0    0    0  0.00000000000E+00  0.00000000000E+00  0.74505805969E-08  0.10566000000E+00  0.10566000000E+00 0.  1.
     999900   -1    0    0    0    0 -0.00000000000E+00 -0.00000000000E+00 -0.74505805969E-08  0.93827000000E+00  0.93827000000E+00 0.  1.
     999902    2    1    2    0    0  0.18721362244E-01  0.14002891949E-01  0.29840811336E-02  0.10203614802E+01  0.10200892486E+01 0.  0.
     999903    2    3    3    0    0 -0.20247528269E-03  0.82059935914E-01 -0.10068756647E+00  0.13146458885E+00  0.20275058617E-01 0.  0.
         14    1    1    2    0    0 -0.18721362244E-01 -0.14002891949E-01 -0.29840811336E-02  0.23568519840E-01  0.00000000000E+00 0. -1.
     999901    1    3    3    0    0  0.18923837527E-01 -0.68057043965E-01  0.10367164760E+00  0.88889689131E+00  0.88000000000E+00 0. -1.
        -11    1    4    4    0    0  0.53642021684E-02  0.23111137077E-01 -0.18112730884E-01  0.29853500012E-01  0.51100000000E-03 0. -1.
         11    1    4    4    0    0 -0.55666774511E-02  0.58948798837E-01 -0.82574835587E-01  0.10161108884E+00  0.51100000000E-03 0.  1.
</event>
<event>
 8    1  0.1112958E+005  0.1043930E+01  0.7957747E-01            NaN
         13   -1    0    0    0    0  0.00000000000E+00  0.00000000000E+00  0.74505805969E-08  0.10566000000E+00  0.10566000000E+00 0. -1.
     999900   -1    0    0    0    0 -0.00000000000E+00 -0.00000000000E+00 -0.74505805969E-08  0.93827000000E+00  0.93827000000E+00 0. -1.
     999902    2    1    2    0    0 -0.39692810505E-02  0.22952945586E-01  0.99423788875E-03  0.10206151676E+01  0.10203488319E+01 0.  0.
     999903    2    3    3    0    0  0.12518809995E+00  0.86598942791E-02 -0.29170382285E-01  0.13056133508E+00  0.21173022422E-01 0.  0.
         14    1    1    2    0    0  0.39692810505E-02 -0.22952945586E-01 -0.99423788875E-03  0.23314832449E-01  0.00000000000E+00 0.  1.
     999901    1    3    3    0    0 -0.12915738100E+00  0.14293051307E-01  0.30164620174E-01  0.89005383247E+00  0.88000000000E+00 0.  1.
        -11    1    4    4    0    0  0.74799147219E-01  0.15043939567E-01 -0.20788727377E-01  0.79080116650E-01  0.51100000000E-03 0. -1.
         11    1    4    4    0    0  0.50388952729E-01 -0.63840452880E-02 -0.83816549078E-02  0.51481218433E-01  0.51100000000E-03 0.  1.
</event>
<event>
 8    1  0.1112958E+005  0.1043930E+01  0.7957747E-01            NaN
         13   -1    0    0    0    0  0.00000000000E+00  0.00000000000E+00  0.74505805969E-08  0.10566000000E+00  0.10566000000E+00 0.  1.
     999900   -1    0    0    0    0 -0.00000000000E+00 -0.00000000000E+00 -0.74505805969E-08  0.93827000000E+00  0.93827000000E+00 0. -1.
     999902    2    1    2    0    0  0.21165648236E-01  0.74206635345E-02 -0.12979963550E-01  0.10180160970E+01  0.10176862205E+01 0.  0.
     999903    2    3    3    0    0 -0.55110061684E-01 -0.10537560553E+00 -0.39927544285E-01  0.12713610830E+00  0.20694059572E-01 0.  0.
         14    1    1    2    0    0 -0.21165648236E-01 -0.74206635345E-02  0.12979963550E-01  0.25913902954E-01  0.00000000000E+00 0.  1.
     999901    1    3    3    0    0  0.76275709920E-01  0.11279626907E+00  0.26947580735E-01  0.89087998875E+00  0.88000000000E+00 0. -1.
        -11    1    4    4    0    0 -0.25064729030E-01 -0.33018397210E-01 -0.21274323143E-01  0.46597351232E-01  0.51100000000E-03 0. -1.
         11    1    4    4    0    0 -0.30045332655E-01 -0.72357208321E-01 -0.18653221142E-01  0.80538757070E-01  0.51100000000E-03 0.  1.
</event>
<event>
 8    1  0.1112958E+005  0.1043930E+01  0.7957747E-01            NaN
         13   -1    0    0    0    0  0.00000000000E+00  0.00000000000E+00  0.74505805969E-08  0.10566000000E+00  0.10566000000E+00 0.  1.
     999900   -1    0    0    0    0 -0.00000000000E+00 -0.00000000000E+00 -0.74505805969E-08  0.93827000000E+00  0.93827000000E+00 0. -1.
     999902    2    1    2    0    0 -0.94067550782E-02 -0.18251355587E-01 -0.12147793959E-01  0.10200727596E+01  0.10197937374E+01 0.  0.
     999903    2    3    3    0    0 -0.19383337132E-01 -0.63660861482E-01  0.11034244107E+00  0.13037314000E+00  0.19831346133E-01 0.  0.
         14    1    1    2    0    0  0.94067550782E-02  0.18251355587E-01  0.12147793959E-01  0.23857240409E-01  0.00000000000E+00 0.  1.
     999901    1    3    3    0    0  0.99765820541E-02  0.45409505895E-01 -0.12249023503E+00  0.88969961959E+00  0.88000000000E+00 0. -1.
        -11    1    4    4    0    0 -0.56118317570E-02 -0.10384907389E-01  0.83031185766E-02  0.14440978369E-01  0.51100000000E-03 0. -1.
         11    1    4    4    0    0 -0.13771505375E-01 -0.53275954093E-01  0.10203932250E+00  0.11593216163E+00  0.51100000000E-03 0.  1.
</event>
<event>
 8    1  0.1112958E+005  0.1043930E+01  0.7957747E-01            NaN
         13   -1    0    0    0    0  0.00000000000E+00  0.00000000000E+00  0.74505805969E-08  0.10566000000E+00  0.10566000000E+00 0. -1.
     999900   -1    0    0    0    0 -0.00000000000E+00 -0.00000000000E+00 -0.74505805969E-08  0.93827000000E+00  0.93827000000E+00 0. -1.
     999902    2    1    2    0    0 -0.86585944828E-02 -0.14656753076E-01  0.16047292343E-01  0.10205354010E+01  0.10202672187E+01 0.  0.
     999903    2    3    3    0    0  0.23373625428E-01  0.12123102640E-01  0.12835228522E+00  0.13241624506E+00  0.19143062787E-01 0.  0.
         14    1    1    2    0    0  0.86585944828E-02  0.14656753076E-01 -0.16047292343E-01  0.23394598964E-01  0.00000000000E+00 0. -1.
     999901    1    3    3    0    0 -0.32032219911E-01 -0.26779855716E-01 -0.11230499287E+00  0.88811915597E+00  0.88000000000E+00 0. -1.
        -11    1    4    4    0    0  0.11433362901E-01 -0.42136683782E-02  0.53793391029E-01  0.55158560785E-01  0.51100000000E-03 0.  1.
         11    1    4    4    0    0  0.11940262527E-01  0.16336771018E-01  0.74558894186E-01  0.77257684277E-01  0.51100000000E-03 0. -1.
</event>
<event>
 8    1  0.1112958E+005  0.1043930E+01  0.7957747E-01            NaN
         13   -1    0    0    0    0  0.00000000000E+00  0.00000000000E+00  0.74505805969E-08  0.10566000000E+00  0.10566000000E+00 0. -1.
     999900   -1    0    0    0    0 -0.00000000000E+00 -0.00000000000E+00 -0.74505805969E-08  0.93827000000E+00  0.93827000000E+00 0. -1.
     999902    2    1    2    0    0  0.43678423645E-02 -0.23655125333E-01  0.14154254527E-03  0.10198745841E+01  0.10195908514E+01 0.  0.
     999903    2    3    3    0    0 -0.66520949254E-01 -0.42253279338E-01 -0.10302182311E+00  0.13082239655E+00  0.17047788674E-01 0.  0.
         14    1    1    2    0    0 -0.43678423645E-02  0.23655125333E-01 -0.14154254527E-03  0.24055415934E-01  0.00000000000E+00 0.  1.
     999901    1    3    3    0    0  0.70888791619E-01  0.18598154004E-01  0.10316336565E+00  0.88905218751E+00  0.88000000000E+00 0.  1.
        -11    1    4    4    0    0 -0.27983184319E-01 -0.98847937214E-02 -0.46223708250E-01  0.54933232901E-01  0.51100000000E-03 0.  1.
         11    1    4    4    0    0 -0.38537764935E-01 -0.32368485616E-01 -0.56798114859E-01  0.75889163652E-01  0.51100000000E-03 0. -1.
</event>
<event>
 8    1  0.1112958E+005  0.1043930E+01  0.7957747E-01            NaN
         13   -1    0    0    0    0  0.00000000000E+00  0.00000000000E+00  0.74505805969E-08  0.10566000000E+00  0.10566000000E+00 0. -1.
     999900   -1    0    0    0    0 -0.00000000000E+00 -0.00000000000E+00 -0.74505805969E-08  0.93827000000E+00  0.93827000000E+00 0.  1.
     999902    2    1    2    0    0  0.84588808167E-02 -0.21577593297E-01  0.35785653543E-02  0.10204789589E+01  0.10202094659E+01 0.  0.
     999903    2    3    3    0    0  0.77886896350E-01 -0.10448182181E+00 -0.23518283134E-01  0.13344592705E+00  0.16488968880E-01 0.  0.
         14    1    1    2    0    0 -0.84588808167E-02  0.21577593297E-01 -0.35785653543E-02  0.23451041068E-01  0.00000000000E+00 0. -1.
     999901    1    3    3    0    0 -0.69428015534E-01  0.82904228508E-01  0.27096848488E-01  0.88703303188E+00  0.88000000000E+00 0. -1.
        -11    1    4    4    0    0  0.54268598581E-01 -0.78593263562E-01 -0.10613107874E-01  0.96098288481E-01  0.51100000000E-03 0. -1.
         11    1    4    4    0    0  0.23618297769E-01 -0.25888558244E-01 -0.12905175260E-01  0.37347638572E-01  0.51100000000E-03 0.  1.
</event>
<event>
 8    1  0.1112958E+005  0.1043930E+01  0.7957747E-01            NaN
         13   -1    0    0    0    0  0.00000000000E+00  0.00000000000E+00  0.74505805969E-08  0.10566000000E+00  0.10566000000E+00 0. -1.
     999900   -1    0    0    0    0 -0.00000000000E+00 -0.00000000000E+00 -0.74505805969E-08  0.93827000000E+00  0.93827000000E+00 0. -1.
     999902    2    1    2    0    0 -0.94329201605E-02 -0.11703872809E-01 -0.17882343636E-01  0.10205689462E+01  0.10203015413E+01 0.  0.
     999903    2    3    3    0    0  0.11852845540E+00 -0.32165461949E-01  0.35851756155E-01  0.12945720025E+00  0.19753647640E-01 0.  0.
         14    1    1    2    0    0  0.94329201605E-02  0.11703872809E-01  0.17882343636E-01  0.23361053816E-01  0.00000000000E+00 0. -1.
     999901    1    3    3    0    0 -0.12796137556E+00  0.20461589140E-01 -0.53734099790E-01  0.89111174594E+00  0.88000000000E+00 0.  1.
        -11    1    4    4    0    0  0.91033966266E-01 -0.15899959018E-01  0.25379206318E-01  0.95835050713E-01  0.51100000000E-03 0.  1.
         11    1    4    4    0    0  0.27494489133E-01 -0.16265502930E-01  0.10472549837E-01  0.33622149535E-01  0.51100000000E-03 0. -1.
</event>
<event>
 8    1  0.1112958E+005  0.1043930E+01  0.7957747E-01            NaN
         13   -1    0    0    0    0  0.00000000000E+00  0.00000000000E+00  0.74505805969E-08  0.10566000000E+00  0.10566000000E+00 0. -1.
     999900   -1    0    0    0    0 -0.00000000000E+00 -0.00000000000E+00 -0.74505805969E-08  0.93827000000E+00  0.93827000000E+00 0. -1.
     999902    2    1    2    0    0  0.10624934916E-01 -0.19024807789E-02  0.20186469544E-01  0.10210389051E+01  0.10207822703E+01 0.  0.
     999903    2    3    3    0    0  0.11384407685E+00 -0.42379641037E-01 -0.46395366286E-01  0.13158641469E+00  0.20148119216E-01 0.  0.
         14    1    1    2    0    0 -0.10624934916E-01  0.19024807789E-02 -0.20186469544E-01  0.22891094944E-01  0.00000000000E+00 0.  1.
     999901    1    3    3    0    0 -0.10321914194E+00  0.40477160258E-01  0.66581835830E-01  0.88945249037E+00  0.88000000000E+00 0.  1.
        -11    1    4    4    0    0  0.65417725186E-01 -0.13657757724E-01 -0.25081097576E-01  0.71381620121E-01  0.51100000000E-03 0.  1.
         11    1    4    4    0    0  0.48426351667E-01 -0.28721883312E-01 -0.21314268711E-01  0.60204794564E-01  0.51100000000E-03 0. -1.
</event>
<event>
 8    1  0.1112958E+005  0.1043930E+01  0.7957747E-01            NaN
         13   -1    0    0    0    0  0.00000000000E+00  0.00000000000E+00  0.74505805969E-08  0.10566000000E+00  0.10566000000E+00 0.  1.
     999900   -1    0    0    0    0 -0.00000000000E+00 -0.00000000000E+00 -0.74505805969E-08  0.93827000000E+00  0.93827000000E+00 0.  1.
     999902    2    1    2    0    0 -0.12137788816E-01 -0.21996483464E-02 -0.20315403994E-01  0.10201627955E+01  0.10198859001E+01 0.  0.
     999903    2    3    3    0    0 -0.10495023114E+00 -0.60580576559E-01 -0.48557069062E-01  0.13290856256E+00  0.24946738729E-01 0.  0.
         14    1    1    2    0    0  0.12137788816E-01  0.21996483464E-02  0.20315403994E-01  0.23767204498E-01  0.00000000000E+00 0.  1.
     999901    1    3    3    0    0  0.92812442323E-01  0.58380928213E-01  0.28241665068E-01  0.88725423294E+00  0.88000000000E+00 0.  1.
        -11    1    4    4    0    0 -0.22168841695E-01 -0.14028451326E-01  0.37136813122E-05  0.26239590765E-01  0.51100000000E-03 0. -1.
         11    1    4    4    0    0 -0.82781389445E-01 -0.46552125233E-01 -0.48560782743E-01  0.10666897179E+00  0.51100000000E-03 0.  1.
</event>
<event>
 8    1  0.1112958E+005  0.1043930E+01  0.7957747E-01            NaN
         13   -1    0    0    0    0  0.00000000000E+00  0.00000000000E+00  0.74505805969E-08  0.10566000000E+00  0.10566000000E+00 0. -1.
     999900   -1    0    0    0    0 -0.00000000000E+00 -0.00000000000E+00 -0.74505805969E-08  0.93827000000E+00  0.93827000000E+00 0.  1.
     999902    2    1    2    0    0 -0.33788820597E-01  0.10445341334E-01  0.42641223574E-02  0.10083073626E+01  0.10076779075E+01 0.  0.
     999903    2    3    3    0    0 -0.16216730931E-01  0.11757810258E+00  0.16607841709E-01  0.12155002589E+00  0.20273031855E-01 0.  0.
         14    1    1    2    0    0  0.33788820597E-01 -0.10445341334E-01 -0.42641223574E-02  0.35622637359E-01  0.00000000000E+00 0. -1.
     999901    1    3    3    0    0 -0.17572089665E-01 -0.10713276124E+00 -0.12343719351E-01  0.88675733675E+00  0.88000000000E+00 0. -1.
        -11    1    4    4    0    0 -0.20463926363E-01  0.10327454198E+00  0.12229064637E-01  0.10599157724E+00  0.51100000000E-03 0. -1.
         11    1    4    4    0    0  0.42471954311E-02  0.14303560601E-01  0.43787770714E-02  0.15558448655E-01  0.51100000000E-03 0.  1.
</event>
<event>
 8    1  0.1112958E+005  0.1043930E+01  0.7957747E-01            NaN
         13   -1    0    0    0    0  0.00000000000E+00  0.00000000000E+00  0.74505805969E-08  0.10566000000E+00  0.10566000000E+00 0. -1.
     999900   -1    0    0    0    0 -0.00000000000E+00 -0.00000000000E+00 -0.74505805969E-08  0.93827000000E+00  0.93827000000E+00 0.  1.
     999902    2    1    2    0    0 -0.18050180734E-01 -0.10158981572E-01 -0.10450283771E-01  0.10207303801E+01  0.10204667004E+01 0.  0.
     999903    2    3    3    0    0  0.62797720186E-02 -0.72392853155E-01  0.10662322486E+00  0.13046569601E+00  0.19303497879E-01 0.  0.
         14    1    1    2    0    0  0.18050180734E-01  0.10158981572E-01  0.10450283771E-01  0.23199619867E-01  0.00000000000E+00 0. -1.
     999901    1    3    3    0    0 -0.24329952752E-01  0.62233871584E-01 -0.11707350863E+00  0.89026468412E+00  0.88000000000E+00 0.  1.
        -11    1    4    4    0    0  0.34444322620E-02 -0.10805714906E-01  0.70931590846E-02  0.13386620747E-01  0.51100000000E-03 0. -1.
         11    1    4    4    0    0  0.28353397565E-02 -0.61587138250E-01  0.99530065779E-01  0.11707907526E+00  0.51100000000E-03 0.  1.
</event>
<event>
 8    1  0.1112958E+005  0.1043930E+01  0.7957747E-01            NaN
         13   -1    0    0    0    0  0.00000000000E+00  0.00000000000E+00  0.74505805969E-08  0.10566000000E+00  0.10566000000E+00 0. -1.
     999900   -1    0    0    0    0 -0.00000000000E+00 -0.00000000000E+00 -0.74505805969E-08  0.93827000000E+00  0.93827000000E+00 0.  1.
     999902    2    1    2    0    0  0.28970892662E-01  0.22031907735E-02 -0.13244257281E-01  0.10119991838E+01  0.10114953144E+01 0.  0.
     999903    2    3    3    0    0  0.88570836704E-01 -0.78705064945E-02 -0.88091777421E-01  0.12675583649E+00  0.20003570910E-01 0.  0.
         14    1    1    2    0    0 -0.28970892662E-01 -0.22031907735E-02  0.13244257281E-01  0.31930816184E-01  0.00000000000E+00 0.  1.
     999901    1    3    3    0    0 -0.59599944042E-01  0.10073697268E-01  0.74847520140E-01  0.88524334732E+00  0.88000000000E+00 0. -1.
        -11    1    4    4    0    0  0.87170256747E-01 -0.66518947722E-02 -0.80221722891E-01  0.11865364432E+00  0.51100000000E-03 0. -1.
         11    1    4    4    0    0  0.14005799570E-02 -0.12186117223E-02 -0.78700545302E-02  0.81021921758E-02  0.51100000000E-03 0.  1.
</event>
<event>
 8    1  0.1112958E+005  0.1043930E+01  0.7957747E-01            NaN
         13   -1    0    0    0    0  0.00000000000E+00  0.00000000000E+00  0.74505805969E-08  0.10566000000E+00  0.10566000000E+00 0. -1.
     999900   -1    0    0    0    0 -0.00000000000E+00 -0.00000000000E+00 -0.74505805969E-08  0.93827000000E+00  0.93827000000E+00 0. -1.
     999902    2    1    2    0    0 -0.19672067129E-01  0.11817523453E-01  0.55615514134E-02  0.10203169752E+01  0.10200437025E+01 0.  0.
     999903    2    3    3    0    0  0.12336275429E-01  0.10788022028E+00 -0.71113486825E-01  0.13119851448E+00  0.19120579876E-01 0.  0.
         14    1    1    2    0    0  0.19672067129E-01 -0.11817523453E-01 -0.55615514134E-02  0.23613024792E-01  0.00000000000E+00 0. -1.
     999901    1    3    3    0    0 -0.32008342557E-01 -0.96062696827E-01  0.76675038239E-01  0.88911846073E+00  0.88000000000E+00 0.  1.
        -11    1    4    4    0    0  0.23513566254E-02  0.76260952359E-02 -0.11892904660E-01  0.14331381956E-01  0.51100000000E-03 0. -1.
         11    1    4    4    0    0  0.99849188033E-02  0.10025412504E+00 -0.59220582166E-01  0.11686713253E+00  0.51100000000E-03 0.  1.
</event>
<event>
 8    1  0.1112958E+005  0.1043930E+01  0.7957747E-01            NaN
         13   -1    0    0    0    0  0.00000000000E+00  0.00000000000E+00  0.74505805969E-08  0.10566000000E+00  0.10566000000E+00 0. -1.
     999900   -1    0    0    0    0 -0.00000000000E+00 -0.00000000000E+00 -0.74505805969E-08  0.93827000000E+00  0.93827000000E+00 0. -1.
     999902    2    1    2    0    0 -0.11142705037E-02 -0.90794221825E-02  0.23080650443E-01  0.10191027180E+01  0.10188002532E+01 0.  0.
     999903    2    3    3    0    0  0.28820276965E-01 -0.10604064064E+00 -0.64357164153E-01  0.12896625295E+00  0.20377045700E-01 0.  0.
         14    1    1    2    0    0  0.11142705037E-02  0.90794221825E-02 -0.23080650443E-01  0.24827281985E-01  0.00000000000E+00 0.  1.
     999901    1    3    3    0    0 -0.29934547468E-01  0.96961218453E-01  0.87437814595E-01  0.89013646506E+00  0.88000000000E+00 0.  1.
        -11    1    4    4    0    0  0.22290209849E-01 -0.58180632240E-01 -0.45314426292E-01  0.77042181785E-01  0.51100000000E-03 0.  1.
         11    1    4    4    0    0  0.65300671160E-02 -0.47860008396E-01 -0.19042737860E-01  0.51924071165E-01  0.51100000000E-03 0. -1.
</event>
<event>
 8    1  0.1112958E+005  0.1043930E+01  0.7957747E-01            NaN
         13   -1    0    0    0    0  0.00000000000E+00  0.00000000000E+00  0.74505805969E-08  0.10566000000E+00  0.10566000000E+00 0.  1.
     999900   -1    0    0    0    0 -0.00000000000E+00 -0.00000000000E+00 -0.74505805969E-08  0.93827000000E+00  0.93827000000E+00 0.  1.
     999902    2    1    2    0    0  0.10288617746E-01 -0.18684495470E-01  0.11494491819E-01  0.10197000729E+01  0.10194121587E+01 0.  0.
     999903    2    3    3    0    0 -0.36172546392E-01 -0.10228376456E+00  0.73292900215E-01  0.13236331559E+00  0.19436473092E-01 0.  0.
         14    1    1    2    0    0 -0.10288617746E-01  0.18684495470E-01 -0.11494491819E-01  0.24229927121E-01  0.00000000000E+00 0.  1.
     999901    1    3    3    0    0  0.46461164138E-01  0.83599269088E-01 -0.61798408395E-01  0.88733675729E+00  0.88000000000E+00 0. -1.
        -11    1    4    4    0    0 -0.24760497707E-02 -0.21054950325E-01  0.21995914115E-01  0.30553610497E-01  0.51100000000E-03 0. -1.
         11    1    4    4    0    0 -0.33696496622E-01 -0.81228814233E-01  0.51296986100E-01  0.10180970509E+00  0.51100000000E-03 0.  1.
</event>
<event>
 8    1  0.1112958E+005  0.1043930E+01  0.7957747E-01            NaN
         13   -1    0    0    0    0  0.00000000000E+00  0.00000000000E+00  0.74505805969E-08  0.10566000000E+00  0.10566000000E+00 0.  1.
     999900   -1    0    0    0    0 -0.00000000000E+00 -0.00000000000E+00 -0.74505805969E-08  0.93827000000E+00  0.93827000000E+00 0.  1.
     999902    2    1    2    0    0 -0.50947148963E-03  0.60898111332E-03  0.24361748870E-01  0.10195553159E+01  0.10192639093E+01 0.  0.
     999903    2    3    3    0    0 -0.10347438337E+00  0.86730540977E-02  0.77442987729E-01  0.13192677853E+00  0.25001773202E-01 0.  0.
         14    1    1    2    0    0  0.50947148963E-03 -0.60898111332E-03 -0.24361748870E-01  0.24374684145E-01  0.00000000000E+00 0. -1.
     999901    1    3    3    0    0  0.10296491188E+00 -0.80640729844E-02 -0.53081238859E-01  0.88762853732E+00  0.88000000000E+00 0.  1.
        -11    1    4    4    0    0 -0.75364043695E-01  0.61955014316E-02  0.41606157649E-01  0.86310235751E-01  0.51100000000E-03 0. -1.
         11    1    4    4    0    0 -0.28110339679E-01  0.24775526660E-02  0.35836830079E-01  0.45616542780E-01  0.51100000000E-03 0.  1.
</event>
<event>
 8    1  0.1112958E+005  0.1043930E+01  0.7957747E-01            NaN
         13   -1    0    0    0    0  0.00000000000E+00  0.00000000000E+00  0.74505805969E-08  0.10566000000E+00  0.10566000000E+00 0.  1.
     999900   -1    0    0    0    0 -0.00000000000E+00 -0.00000000000E+00 -0.74505805969E-08  0.93827000000E+00  0.93827000000E+00 0. -1.
     999902    2    1    2    0    0  0.24557949663E-02  0.22153226074E-01 -0.72268287710E-02  0.10204987515E+01  0.10202297184E+01 0.  0.
     999903    2    3    3    0    0 -0.10311667396E+00  0.16535033282E-01 -0.77132118647E-01  0.13141840647E+00  0.20371010203E-01 0.  0.
         14    1    1    2    0    0 -0.24557949663E-02 -0.22153226074E-01  0.72268287710E-02  0.23431248547E-01  0.00000000000E+00 0. -1.
     999901    1    3    3    0    0  0.10557246893E+00  0.56181927920E-02  0.69905289876E-01  0.88908034499E+00  0.88000000000E+00 0.  1.
        -11    1    4    4    0    0 -0.10763449893E-01  0.84141764085E-02 -0.10769254229E-01  0.17403682825E-01  0.51100000000E-03 0.  1.
         11    1    4    4    0    0 -0.92353224071E-01  0.81208568731E-02 -0.66362864418E-01  0.11401472364E+00  0.51100000000E-03 0. -1.
</event>
<event>
 8    1  0.1112958E+005  0.1043930E+01  0.7957747E-01            NaN
         13   -1    0    0    0    0  0.00000000000E+00  0.00000000000E+00  0.74505805969E-08  0.10566000000E+00  0.10566000000E+00 0.  1.
     999900   -1    0    0    0    0 -0.00000000000E+00 -0.00000000000E+00 -0.74505805969E-08  0.93827000000E+00  0.93827000000E+00 0. -1.
     999902    2    1    2    0    0 -0.27926670978E-02  0.46671491900E-02  0.22217473678E-01  0.10210564911E+01  0.10208002550E+01 0.  0.
     999903    2    3    3    0    0 -0.45198760883E-01  0.60511331192E-01  0.10897890407E+00  0.13401399201E+00  0.19462767907E-01 0.  0.
         14    1    1    2    0    0  0.27926670978E-02 -0.46671491900E-02 -0.22217473678E-01  0.22873508863E-01  0.00000000000E+00 0.  1.
     999901    1    3    3    0    0  0.42406093785E-01 -0.55844182002E-01 -0.86761430390E-01  0.88704249913E+00  0.88000000000E+00 0. -1.
        -11    1    4    4    0    0 -0.22282591224E-01  0.44795980251E-01  0.74226570792E-01  0.89515577699E-01  0.51100000000E-03 0. -1.
         11    1    4    4    0    0 -0.22916169659E-01  0.15715350941E-01  0.34752333276E-01  0.44498414311E-01  0.51100000000E-03 0.  1.
</event>
<event>
 8    1  0.1112958E+005  0.1043930E+01  0.7957747E-01            NaN
         13   -1    0    0    0    0  0.00000000000E+00  0.00000000000E+00  0.74505805969E-08  0.10566000000E+00  0.10566000000E+00 0.  1.
     999900   -1    0    0    0    0 -0.00000000000E+00 -0.00000000000E+00 -0.74505805969E-08  0.93827000000E+00  0.93827000000E+00 0.  1.
     999902    2    1    2    0    0  0.11683651909E-01 -0.23797174361E-01  0.13026458464E-01  0.10143918577E+01  0.10139617050E+01 0.  0.
     999903    2    3    3    0    0 -0.61431167522E-01  0.97321254450E-01 -0.35024148908E-01  0.12179771059E+00  0.19046689657E-01 0.  0.
         14    1    1    2    0    0 -0.11683651909E-01  0.23797174361E-01 -0.13026458464E-01  0.29538142285E-01  0.00000000000E+00 0. -1.
     999901    1    3    3    0    0  0.73114819431E-01 -0.12111842881E+00  0.48050607372E-01  0.89259414713E+00  0.88000000000E+00 0.  1.
        -11    1    4    4    0    0 -0.38928385427E-01  0.47808245301E-01 -0.24801919280E-01  0.66456330260E-01  0.51100000000E-03 0. -1.
         11    1    4    4    0    0 -0.22502782095E-01  0.49513009148E-01 -0.10222229628E-01  0.55341380327E-01  0.51100000000E-03 0.  1.
</event>
<event>
 8    1  0.1112958E+005  0.1043930E+01  0.7957747E-01            NaN
         13   -1    0    0    0    0  0.00000000000E+00  0.00000000000E+00  0.74505805969E-08  0.10566000000E+00  0.10566000000E+00 0. -1.
     999900   -1    0    0    0    0 -0.00000000000E+00 -0.00000000000E+00 -0.74505805969E-08  0.93827000000E+00  0.93827000000E+00 0. -1.
     999902    2    1    2    0    0 -0.13889619444E-01 -0.19216691313E-01  0.42008565029E-02  0.10198499263E+01  0.10195656047E+01 0.  0.
     999903    2    3    3    0    0  0.72971707894E-01  0.80958819085E-01 -0.62382455512E-01  0.12742998004E+00  0.21624720033E-01 0.  0.
         14    1    1    2    0    0  0.13889619444E-01  0.19216691313E-01 -0.42008565029E-02  0.24080073685E-01  0.00000000000E+00 0.  1.
     999901    1    3    3    0    0 -0.86861327339E-01 -0.10017551040E+00  0.66583312015E-01  0.89241994628E+00  0.88000000000E+00 0. -1.
        -11    1    4    4    0    0  0.25206006952E-01  0.42166928397E-01 -0.33426058842E-01  0.59421840830E-01  0.51100000000E-03 0.  1.
         11    1    4    4    0    0  0.47765700942E-01  0.38791890688E-01 -0.28956396670E-01  0.68008139210E-01  0.51100000000E-03 0. -1.
</event>
<event>
 8    1  0.1112958E+005  0.1043930E+01  0.7957747E-01            NaN
         13   -1    0    0    0    0  0.00000000000E+00  0.00000000000E+00  0.74505805969E-08  0.10566000000E+00  0.10566000000E+00 0. -1.
     999900   -1    0    0    0    0 -0.00000000000E+00 -0.00000000000E+00 -0.74505805969E-08  0.93827000000E+00  0.93827000000E+00 0. -1.
     999902    2    1    2    0    0 -0.48593364774E-02 -0.20754529690E-01 -0.11040573063E-01  0.10199246275E+01  0.10196420882E+01 0.  0.
     999903    2    3    3    0    0  0.30131363190E-02 -0.22403643799E-01 -0.12840884884E+00  0.13209581095E+00  0.21200673649E-01 0.  0.
         14    1    1    2    0    0  0.48593364774E-02  0.20754529690E-01  0.11040573063E-01  0.24005372465E-01  0.00000000000E+00 0. -1.
     999901    1    3    3    0    0 -0.78724727965E-02  0.16491141090E-02  0.11736827578E+00  0.88782881659E+00  0.88000000000E+00 0.  1.
        -11    1    4    4    0    0  0.27080927866E-02 -0.18855007566E-01 -0.48545280981E-01  0.52151227247E-01  0.51100000000E-03 0. -1.
         11    1    4    4    0    0  0.30504353243E-03 -0.35486362330E-02 -0.79863567860E-01  0.79944583700E-01  0.51100000000E-03 0.  1.
</event>
<event>
 8    1  0.1112958E+005  0.1043930E+01  0.7957747E-01            NaN
         13   -1    0    0    0    0  0.00000000000E+00  0.00000000000E+00  0.74505805969E-08  0.10566000000E+00  0.10566000000E+00 0.  1.
     999900   -1    0    0    0    0 -0.00000000000E+00 -0.00000000000E+00 -0.74505805969E-08  0.93827000000E+00  0.93827000000E+00 0. -1.
     999902    2    1    2    0    0 -0.42251898251E-02  0.14979279990E-01 -0.16790462267E-01  0.10210356627E+01  0.10207789544E+01 0.  0.
     999903    2    3    3    0    0 -0.88816723435E-02  0.57627708548E-01 -0.11919331215E+00  0.13405938625E+00  0.19105928025E-01 0.  0.
         14    1    1    2    0    0  0.42251898251E-02 -0.14979279990E-01  0.16790462267E-01  0.22894337318E-01  0.00000000000E+00 0.  1.
     999901    1    3    3    0    0  0.46564825184E-02 -0.42648428558E-01  0.10240284988E+00  0.88697627643E+00  0.88000000000E+00 0.  1.
        -11    1    4    4    0    0 -0.12147769930E-01  0.23350348193E-01 -0.61033728265E-01  0.66469422909E-01  0.51100000000E-03 0.  1.
         11    1    4    4    0    0  0.32660975865E-02  0.34277360355E-01 -0.58159583881E-01  0.67589963342E-01  0.51100000000E-03 0. -1.
</event>
<event>
 8    1  0.1112958E+005  0.1043930E+01  0.7957747E-01            NaN
         13   -1    0    0    0    0  0.00000000000E+00  0.00000000000E+00  0.74505805969E-08  0.10566000000E+00  0.10566000000E+00 0. -1.
     999900   -1    0    0    0    0 -0.00000000000E+00 -0.00000000000E+00 -0.74505805969E-08  0.93827000000E+00  0.93827000000E+00 0. -1.
     999902    2    1    2    0    0  0.79521121408E-02  0.18286608093E-01  0.11834991797E-01  0.10207415728E+01  0.10204781504E+01 0.  0.
     999903    2    3    3    0    0  0.10310859975E+00  0.78120870028E-01 -0.23025385763E-01  0.13290704887E+00  0.19996539077E-01 0.  0.
         14    1    1    2    0    0 -0.79521121408E-02 -0.18286608093E-01 -0.11834991797E-01  0.23188427154E-01  0.00000000000E+00 0.  1.
     999901    1    3    3    0    0 -0.95156487606E-01 -0.59834261935E-01  0.34860377559E-01  0.88783452397E+00  0.88000000000E+00 0.  1.
        -11    1    4    4    0    0  0.49659497560E-01  0.49101245777E-01 -0.83009565339E-02  0.70328977208E-01  0.51100000000E-03 0.  1.
         11    1    4    4    0    0  0.53449102186E-01  0.29019624251E-01 -0.14724429229E-01  0.62578071665E-01  0.51100000000E-03 0. -1.
</event>
<event>
 8    1  0.1112958E+005  0.1043930E+01  0.7957747E-01            NaN
         13   -1    0    0    0    0  0.00000000000E+00  0.00000000000E+00  0.74505805969E-08  0.10566000000E+00  0.10566000000E+00 0.  1.
     999900   -1    0    0    0    0 -0.00000000000E+00 -0.00000000000E+00 -0.74505805969E-08  0.93827000000E+00  0.93827000000E+00 0. -1.
     999902    2    1    2    0    0  0.13428850489E-01  0.19524922148E-01 -0.45986916416E-02  0.10197907255E+01  0.10195049873E+01 0.  0.
     999903    2    3    3    0    0  0.39703134735E-01 -0.91613701189E-01  0.77930626309E-01  0.12858187231E+00  0.22151889709E-01 0.  0.
         14    1    1    2    0    0 -0.13428850489E-01 -0.19524922148E-01  0.45986916416E-02  0.24139274537E-01  0.00000000000E+00 0. -1.
     999901    1    3    3    0    0 -0.26274284247E-01  0.11113862334E+00 -0.82529317950E-01  0.89120885315E+00  0.88000000000E+00 0. -1.
        -11    1    4    4    0    0  0.17216110042E-01 -0.22155959580E-01  0.13212914560E-01  0.31018111194E-01  0.51100000000E-03 0.  1.
         11    1    4    4    0    0  0.22487024694E-01 -0.69457741609E-01  0.64717711748E-01  0.97563761120E-01  0.51100000000E-03 0. -1.
</event>
<event>
 8    1  0.1112958E+005  0.1043930E+01  0.7957747E-01            NaN
         13   -1    0    0    0    0  0.00000000000E+00  0.00000000000E+00  0.74505805969E-08  0.10566000000E+00  0.10566000000E+00 0. -1.
     999900   -1    0    0    0    0 -0.00000000000E+00 -0.00000000000E+00 -0.74505805969E-08  0.93827000000E+00  0.93827000000E+00 0. -1.
     999902    2    1    2    0    0 -0.55291118268E-02 -0.22902007050E-01 -0.25247011978E-02  0.10202351246E+01  0.10199599317E+01 0.  0.
     999903    2    3    3    0    0  0.14401092196E-01 -0.10971785153E+00 -0.71214771476E-01  0.13307531394E+00  0.19801441915E-01 0.  0.
         14    1    1    2    0    0  0.55291118268E-02  0.22902007050E-01  0.25247011978E-02  0.23694875409E-01  0.00000000000E+00 0.  1.
     999901    1    3    3    0    0 -0.19930204023E-01  0.86815844480E-01  0.68690070278E-01  0.88715981065E+00  0.88000000000E+00 0. -1.
        -11    1    4    4    0    0 -0.27362415062E-02 -0.54151254240E-01 -0.32537807996E-01  0.63236187611E-01  0.51100000000E-03 0.  1.
         11    1    4    4    0    0  0.17137333702E-01 -0.55566597291E-01 -0.38676963480E-01  0.69839126326E-01  0.51100000000E-03 0. -1.
</event>
<event>
 8    1  0.1112958E+005  0.1043930E+01  0.7957747E-01            NaN
         13   -1    0    0    0    0  0.00000000000E+00  0.00000000000E+00  0.74505805969E-08  0.10566000000E+00  0.10566000000E+00 0.  1.
     999900   -1    0    0    0    0 -0.00000000000E+00 -0.00000000000E+00 -0.74505805969E-08  0.93827000000E+00  0.93827000000E+00 0. -1.
     999902    2    1    2    0    0 -0.13097250402E-01  0.98436840113E-02 -0.18348477316E-01  0.10193311646E+01  0.10190343078E+01 0.  0.
     999903    2    3    3    0    0  0.50850809053E-01 -0.11430861696E+00 -0.20208621821E-01  0.12831679419E+00  0.20113343391E-01 0.  0.
         14    1    1    2    0    0  0.13097250402E-01 -0.98436840113E-02  0.18348477316E-01  0.24598835396E-01  0.00000000000E+00 0.  1.
     999901    1    3    3    0    0 -0.63948059456E-01  0.12415230097E+00  0.18601445050E-02  0.89101437041E+00  0.88000000000E+00 0. -1.
        -11    1    4    4    0    0  0.44561427982E-01 -0.83096396296E-01 -0.97271809359E-02  0.94792463367E-01  0.51100000000E-03 0.  1.
         11    1    4    4    0    0  0.62893810708E-02 -0.31212220667E-01 -0.10481440885E-01  0.33524330824E-01  0.51100000000E-03 0. -1.
</event>
<event>
 8    1  0.1112958E+005  0.1043930E+01  0.7957747E-01            NaN
         13   -1    0    0    0    0  0.00000000000E+00  0.00000000000E+00  0.74505805969E-08  0.10566000000E+00  0.10566000000E+00 0. -1.
     999900   -1    0    0    0    0 -0.00000000000E+00 -0.00000000000E+00 -0.74505805969E-08  0.93827000000E+00  0.93827000000E+00 0.  1.
     999902    2    1    2    0    0 -0.18743988033E-01 -0.88652655932E-02 -0.61631562734E-02  0.10222986682E+01  0.10220697884E+01 0.  0.
     999903    2    3    3    0    0  0.54563783672E-01  0.11442621537E+00  0.22254064877E-01  0.13023232696E+00  0.19865808013E-01 0.  0.
         14    1    1    2    0    0  0.18743988033E-01  0.88652655932E-02  0.61631562734E-02  0.21631331828E-01  0.00000000000E+00 0. -1.
     999901    1    3    3    0    0 -0.73307771704E-01 -0.12329148097E+00 -0.28417221150E-01  0.89206634122E+00  0.88000000000E+00 0. -1.
        -11    1    4    4    0    0  0.28630280617E-01  0.66001349221E-01  0.22218497212E-01  0.75298033219E-01  0.51100000000E-03 0.  1.
         11    1    4    4    0    0  0.25933503055E-01  0.48424866151E-01  0.35567664773E-04  0.54934293738E-01  0.51100000000E-03 0. -1.
</event>
<event>
 8    1  0.1112958E+005  0.1043930E+01  0.7957747E-01            NaN
         13   -1    0    0    0    0  0.00000000000E+00  0.00000000000E+00  0.74505805969E-08  0.10566000000E+00  0.10566000000E+00 0.  1.
     999900   -1    0    0    0    0 -0.00000000000E+00 -0.00000000000E+00 -0.74505805969E-08  0.93827000000E+00  0.93827000000E+00 0. -1.
     999902    2    1    2    0    0  0.21237913624E-01  0.11333806689E-01 -0.62029602509E-02  0.10190707791E+01  0.10187675259E+01 0.  0.
     999903    2    3    3    0    0  0.25460441007E-01 -0.46052172780E-01 -0.11754757539E+00  0.13019024509E+00  0.19053366188E-01 0.  0.
         14    1    1    2    0    0 -0.21237913624E-01 -0.11333806689E-01  0.62029602509E-02  0.24859220926E-01  0.00000000000E+00 0.  1.
     999901    1    3    3    0    0 -0.42225273829E-02  0.57385979470E-01  0.11134461514E+00  0.88888053398E+00  0.88000000000E+00 0.  1.
        -11    1    4    4    0    0  0.75792201187E-02 -0.31868637755E-01 -0.61739235346E-01  0.69893125213E-01  0.51100000000E-03 0.  1.
         11    1    4    4    0    0  0.17881220888E-01 -0.14183535025E-01 -0.55808340041E-01  0.60297119876E-01  0.51100000000E-03 0. -1.
</event>
<event>
 8    1  0.1112958E+005  0.1043930E+01  0.7957747E-01            NaN
         13   -1    0    0    0    0  0.00000000000E+00  0.00000000000E+00  0.74505805969E-08  0.10566000000E+00  0.10566000000E+00 0.  1.
     999900   -1    0    0    0    0 -0.00000000000E+00 -0.00000000000E+00 -0.74505805969E-08  0.93827000000E+00  0.93827000000E+00 0. -1.
     999902    2    1    2    0    0  0.34461067649E-02  0.11646070477E-01  0.16752461811E-01  0.10232381759E+01  0.10230289404E+01 0.  0.
     999903    2    3    3    0    0  0.89466119257E-01  0.25790171856E-01  0.96181801680E-01  0.13537077688E+00  0.20124333484E-01 0.  0.
         14    1    1    2    0    0 -0.34461067649E-02 -0.11646070477E-01 -0.16752461811E-01  0.20691824137E-01  0.00000000000E+00 0. -1.
     999901    1    3    3    0    0 -0.86020012492E-01 -0.14144101379E-01 -0.79429339868E-01  0.88786739899E+00  0.88000000000E+00 0. -1.
        -11    1    4    4    0    0  0.66753098307E-01  0.25948398912E-01  0.80589017104E-01  0.10781533443E+00  0.51100000000E-03 0. -1.
         11    1    4    4    0    0  0.22713020950E-01 -0.15822705630E-03  0.15592784576E-01  0.27555442445E-01  0.51100000000E-03 0.  1.
</event>
<event>
 8    1  0.1112958E+005  0.1043930E+01  0.7957747E-01            NaN
         13   -1    0    0    0    0  0.00000000000E+00  0.00000000000E+00  0.74505805969E-08  0.10566000000E+00  0.10566000000E+00 0.  1.
     999900   -1    0    0    0    0 -0.00000000000E+00 -0.00000000000E+00 -0.74505805969E-08  0.93827000000E+00  0.93827000000E+00 0.  1.
     999902    2    1    2    0    0 -0.93460838542E-02 -0.15783413719E-01 -0.15459679121E-01  0.10199411044E+01  0.10196589574E+01 0.  0.
     999903    2    3    3    0    0 -0.75089975618E-01  0.25596494369E-01 -0.10351287580E+00  0.13214162170E+00  0.21279280232E-01 0.  0.
         14    1    1    2    0    0  0.93460838542E-02  0.15783413719E-01  0.15459679121E-01  0.23988895568E-01  0.00000000000E+00 0.  1.
     999901    1    3    3    0    0  0.65743891763E-01 -0.41379908088E-01  0.88053196675E-01  0.88779948273E+00  0.88000000000E+00 0. -1.
        -11    1    4    4    0    0 -0.39702118683E-01  0.23185098423E-02 -0.50720426422E-01  0.64455073448E-01  0.51100000000E-03 0.  1.
         11    1    4    4    0    0 -0.35387856935E-01  0.23277984527E-01 -0.52792449374E-01  0.67686548250E-01  0.51100000000E-03 0. -1.
</event>
<event>
 8    1  0.1112958E+005  0.1043930E+01  0.7957747E-01            NaN
         13   -1    0    0    0    0  0.00000000000E+00  0.00000000000E+00  0.74505805969E-08  0.10566000000E+00  0.10566000000E+00 0.  1.
     999900   -1    0    0    0    0 -0.00000000000E+00 -0.00000000000E+00 -0.74505805969E-08  0.93827000000E+00  0.93827000000E+00 0.  1.
     999902    2    1    2    0    0  0.22529034626E-01 -0.30358992739E-02  0.72733578697E-02  0.10200621174E+01  0.10197828433E+01 0.  0.
     999903    2    3    3    0    0  0.70957506017E-01  0.99167320490E-01 -0.44554377535E-01  0.13131191113E+00  0.19712948374E-01 0.  0.
         14    1    1    2    0    0 -0.22529034626E-01  0.30358992739E-02 -0.72733578697E-02  0.23867882610E-01  0.00000000000E+00 0.  1.
     999901    1    3    3    0    0 -0.48428471391E-01 -0.10220321976E+00  0.51827735404E-01  0.88875020626E+00  0.88000000000E+00 0. -1.
        -11    1    4    4    0    0  0.37178636087E-01  0.37232439504E-01 -0.23965905886E-01  0.57819817525E-01  0.51100000000E-03 0. -1.
         11    1    4    4    0    0  0.33778869930E-01  0.61934880986E-01 -0.20588471649E-01  0.73492093604E-01  0.51100000000E-03 0.  1.
</event>
<event>
 8    1  0.1112958E+005  0.1043930E+01  0.7957747E-01            NaN
         13   -1    0    0    0    0  0.00000000000E+00  0.00000000000E+00  0.74505805969E-08  0.10566000000E+00  0.10566000000E+00 0. -1.
     999900   -1    0    0    0    0 -0.00000000000E+00 -0.00000000000E+00 -0.74505805969E-08  0.93827000000E+00  0.93827000000E+00 0.  1.
     999902    2    1    2    0    0 -0.66677460175E-02  0.21730554999E-01  0.11503600495E-02  0.10211704045E+01  0.10209167429E+01 0.  0.
     999903    2    3    3    0    0  0.11166715317E+00  0.65695176014E-01 -0.15628635132E-01  0.13200361987E+00  0.19881956004E-01 0.  0.
         14    1    1    2    0    0  0.66677460175E-02 -0.21730554999E-01 -0.11503600495E-02  0.22759595466E-01  0.00000000000E+00 0. -1.
     999901    1    3    3    0    0 -0.11833489919E+00 -0.43964621015E-01  0.16778995182E-01  0.88916678466E+00  0.88000000000E+00 0.  1.
        -11    1    4    4    0    0  0.47296513299E-01  0.21860939224E-01  0.20317779727E-02  0.52146429185E-01  0.51100000000E-03 0. -1.
         11    1    4    4    0    0  0.64370639871E-01  0.43834236790E-01 -0.17660413105E-01  0.79857190687E-01  0.51100000000E-03 0.  1.
</event>
<event>
 8    1  0.1112958E+005  0.1043930E+01  0.7957747E-01            NaN
         13   -1    0    0    0    0  0.00000000000E+00  0.00000000000E+00  0.74505805969E-08  0.10566000000E+00  0.10566000000E+00 0.  1.
     999900   -1    0    0    0    0 -0.00000000000E+00 -0.00000000000E+00 -0.74505805969E-08  0.93827000000E+00  0.93827000000E+00 0.  1.
     999902    2    1    2    0    0 -0.20679984117E-01  0.98499983361E-02 -0.58115721654E-02  0.10202982717E+01  0.10200245608E+01 0.  0.
     999903    2    3    3    0    0  0.74414228117E-01 -0.25136767087E-01 -0.10086046584E+00  0.12939913313E+00  0.20049131627E-01 0.  0.
         14    1    1    2    0    0  0.20679984117E-01 -0.98499983361E-02  0.58115721654E-02  0.23631728276E-01  0.00000000000E+00 0.  1.
     999901    1    3    3    0    0 -0.95094212233E-01  0.34986765423E-01  0.95048893679E-01  0.89089913859E+00  0.88000000000E+00 0. -1.
        -11    1    4    4    0    0  0.28054871552E-01 -0.11404922105E-01 -0.54829880185E-01  0.62639643582E-01  0.51100000000E-03 0.  1.
         11    1    4    4    0    0  0.46359356565E-01 -0.13731844982E-01 -0.46030585660E-01  0.66759489550E-01  0.51100000000E-03 0. -1.
</event>
<event>
 8    1  0.1112958E+005  0.1043930E+01  0.7957747E-01            NaN
         13   -1    0    0    0    0  0.00000000000E+00  0.00000000000E+00  0.74505805969E-08  0.10566000000E+00  0.10566000000E+00 0.  1.
     999900   -1    0    0    0    0 -0.00000000000E+00 -0.00000000000E+00 -0.74505805969E-08  0.93827000000E+00  0.93827000000E+00 0.  1.
     999902    2    1    2    0    0 -0.69251421545E-02  0.13808671991E-01  0.19549203433E-01  0.10190139736E+01  0.10187093158E+01 0.  0.
     999903    2    3    3    0    0  0.90084999993E-01  0.83539382855E-01  0.39854458247E-01  0.13070904675E+00  0.20058448309E-01 0.  0.
         14    1    1    2    0    0  0.69251421545E-02 -0.13808671991E-01 -0.19549203433E-01  0.24916026386E-01  0.00000000000E+00 0. -1.
     999901    1    3    3    0    0 -0.97010142148E-01 -0.69730710864E-01 -0.20305254814E-01  0.88830492686E+00  0.88000000000E+00 0.  1.
        -11    1    4    4    0    0  0.22027742018E-01  0.33068950019E-01  0.13729509249E-01  0.42042091040E-01  0.51100000000E-03 0. -1.
         11    1    4    4    0    0  0.68057257976E-01  0.50470432836E-01  0.26124948998E-01  0.88666955710E-01  0.51100000000E-03 0.  1.
</event>
<event>
 8    1  0.1112958E+005  0.1043930E+01  0.7957747E-01            NaN
         13   -1    0    0    0    0  0.00000000000E+00  0.00000000000E+00  0.74505805969E-08  0.10566000000E+00  0.10566000000E+00 0.  1.
     999900   -1    0    0    0    0 -0.00000000000E+00 -0.00000000000E+00 -0.74505805969E-08  0.93827000000E+00  0.93827000000E+00 0.  1.
     999902    2    1    2    0    0  0.37139353293E-02 -0.20389782143E-01  0.27962753479E-01  0.10091240793E+01  0.10085236514E+01 0.  0.
     999903    2    3    3    0    0 -0.44831652417E-01 -0.34426207763E-01  0.10848734635E+00  0.12400380197E+00  0.20307578551E-01 0.  0.
         14    1    1    2    0    0 -0.37139353293E-02  0.20389782143E-01 -0.27962753479E-01  0.34805920668E-01  0.00000000000E+00 0. -1.
     999901    1    3    3    0    0  0.48545587746E-01  0.14036425620E-01 -0.80524592870E-01  0.88512027736E+00  0.88000000000E+00 0.  1.
        -11    1    4    4    0    0 -0.11635933820E-01  0.42135208254E-03  0.26173351266E-01  0.28650967365E-01  0.51100000000E-03 0.  1.
         11    1    4    4    0    0 -0.33195718597E-01 -0.34847559846E-01  0.82313995083E-01  0.95352834608E-01  0.51100000000E-03 0. -1.
</event>
<event>
 8    1  0.1112958E+005  0.1043930E+01  0.7957747E-01            NaN
         13   -1    0    0    0    0  0.00000000000E+00  0.00000000000E+00  0.74505805969E-08  0.10566000000E+00  0.10566000000E+00 0. -1.
     999900   -1    0    0    0    0 -0.00000000000E+00 -0.00000000000E+00 -0.74505805969E-08  0.93827000000E+00  0.93827000000E+00 0. -1.
     999902    2    1    2    0    0  0.18238219133E-01 -0.39271283783E-02  0.14347664463E-01  0.10203946978E+01  0.10201232420E+01 0.  0.
     999903    2    3    3    0    0 -0.10268896978E+00 -0.66105573657E-01  0.37665235518E-01  0.12964599406E+00  0.21781699375E-01 0.  0.
         14    1    1    2    0    0 -0.18238219133E-01  0.39271283783E-02 -0.14347664463E-01  0.23535302208E-01  0.00000000000E+00 0.  1.
     999901    1    3    3    0    0  0.12092718891E+00  0.62178445279E-01 -0.23317571055E-01  0.89074870373E+00  0.88000000000E+00 0.  1.
        -11    1    4    4    0    0 -0.69812630929E-01 -0.32750566034E-01  0.25984112379E-01  0.81374678063E-01  0.51100000000E-03 0. -1.
         11    1    4    4    0    0 -0.32876338847E-01 -0.33355007623E-01  0.11681123139E-01  0.48271316000E-01  0.51100000000E-03 0.  1.
</event>
<event>
 8    1  0.1209091E+005  0.1043930E+01  0.7957747E-01            NaN
         13   -1    0    0    0    0  0.00000000000E+00  0.00000000000E+00  0.74505805969E-08  0.10566000000E+00  0.10566000000E+00 0. -1.
     999900   -1    0    0    0    0 -0.00000000000E+00 -0.00000000000E+00 -0.74505805969E-08  0.93827000000E+00  0.93827000000E+00 0. -1.
     999902    2    1    2    0    0  0.54523250188E-02  0.21151268762E-01 -0.91997079475E-02  0.10202289738E+01  0.10199536363E+01 0.  0.
     999903    2    3    3    0    0 -0.82910768646E-01  0.28545732458E-01 -0.95642645161E-01  0.13155856478E+00  0.21704515507E-01 0.  0.
         14    1    1    2    0    0 -0.54523250188E-02 -0.21151268762E-01  0.91997079475E-02  0.23701026237E-01  0.00000000000E+00 0. -1.
     999901    1    3    3    0    0  0.88363093665E-01 -0.73944636957E-02  0.86442937213E-01  0.88867040899E+00  0.88000000000E+00 0.  1.
        -11    1    4    4    0    0 -0.47298078545E-01  0.49920686336E-02 -0.52976362108E-01  0.71195400458E-01  0.51100000000E-03 0. -1.
         11    1    4    4    0    0 -0.35612690101E-01  0.23553663825E-01 -0.42666283053E-01  0.60363164317E-01  0.51100000000E-03 0.  1.
</event>
<event>
 8    1  0.1112958E+005  0.1043930E+01  0.7957747E-01            NaN
         13   -1    0    0    0    0  0.00000000000E+00  0.00000000000E+00  0.74505805969E-08  0.10566000000E+00  0.10566000000E+00 0.  1.
     999900   -1    0    0    0    0 -0.00000000000E+00 -0.00000000000E+00 -0.74505805969E-08  0.93827000000E+00  0.93827000000E+00 0.  1.
     999902    2    1    2    0    0 -0.22074106829E-01  0.37024395466E-02  0.68797309441E-02  0.10205140877E+01  0.10202454108E+01 0.  0.
     999903    2    3    3    0    0 -0.46063696794E-01  0.70280645549E-01  0.10072881446E+00  0.13269889949E+00  0.20036730343E-01 0.  0.
         14    1    1    2    0    0  0.22074106829E-01 -0.37024395466E-02 -0.68797309441E-02  0.23415912298E-01  0.00000000000E+00 0. -1.
     999901    1    3    3    0    0  0.23989589965E-01 -0.66578206002E-01 -0.93849083515E-01  0.88781518821E+00  0.88000000000E+00 0.  1.
        -11    1    4    4    0    0 -0.21311104852E-01  0.43957520126E-01  0.45906117713E-01  0.67037747054E-01  0.51100000000E-03 0.  1.
         11    1    4    4    0    0 -0.24752591942E-01  0.26323125423E-01  0.54822696746E-01  0.65661152437E-01  0.51100000000E-03 0. -1.
</event>
<event>
 8    1  0.1112958E+005  0.1043930E+01  0.7957747E-01            NaN
         13   -1    0    0    0    0  0.00000000000E+00  0.00000000000E+00  0.74505805969E-08  0.10566000000E+00  0.10566000000E+00 0. -1.
     999900   -1    0    0    0    0 -0.00000000000E+00 -0.00000000000E+00 -0.74505805969E-08  0.93827000000E+00  0.93827000000E+00 0. -1.
     999902    2    1    2    0    0 -0.22531745085E-01 -0.56942065721E-02 -0.65793224065E-02  0.10197765115E+01  0.10194904327E+01 0.  0.
     999903    2    3    3    0    0 -0.96901005929E-01  0.72488277038E-01 -0.49369028066E-01  0.13215370497E+00  0.19568994527E-01 0.  0.
         14    1    1    2    0    0  0.22531745085E-01  0.56942065721E-02  0.65793224065E-02  0.24153488535E-01  0.00000000000E+00 0. -1.
     999901    1    3    3    0    0  0.74369260844E-01 -0.78182483610E-01  0.42789705659E-01  0.88762280650E+00  0.88000000000E+00 0.  1.
        -11    1    4    4    0    0 -0.11437936635E-01  0.90791946689E-02 -0.13384747719E-01  0.19815921951E-01  0.51100000000E-03 0.  1.
         11    1    4    4    0    0 -0.85463069295E-01  0.63409082369E-01 -0.35984280347E-01  0.11233778302E+00  0.51100000000E-03 0. -1.
</event>
<event>
 8    1  0.1112958E+005  0.1043930E+01  0.7957747E-01            NaN
         13   -1    0    0    0    0  0.00000000000E+00  0.00000000000E+00  0.74505805969E-08  0.10566000000E+00  0.10566000000E+00 0.  1.
     999900   -1    0    0    0    0 -0.00000000000E+00 -0.00000000000E+00 -0.74505805969E-08  0.93827000000E+00  0.93827000000E+00 0.  1.
     999902    2    1    2    0    0  0.21317878154E-01 -0.96163102662E-02  0.27188549173E-02  0.10203860512E+01  0.10201143936E+01 0.  0.
     999903    2    3    3    0    0  0.51318037242E-01  0.11548584231E+00 -0.26635967002E-01  0.13054771551E+00  0.19044961728E-01 0.  0.
         14    1    1    2    0    0 -0.21317878154E-01  0.96163102662E-02 -0.27188549173E-02  0.23543948780E-01  0.00000000000E+00 0. -1.
     999901    1    3    3    0    0 -0.30000159089E-01 -0.12510215258E+00  0.29354821919E-01  0.88983833571E+00  0.88000000000E+00 0.  1.
        -11    1    4    4    0    0  0.37655748543E-01  0.62412432687E-01 -0.17776190113E-01  0.75030135334E-01  0.51100000000E-03 0.  1.
         11    1    4    4    0    0  0.13662288699E-01  0.53073409622E-01 -0.88597768889E-02  0.55517580179E-01  0.51100000000E-03 0. -1.
</event>
<event>
 8    1  0.1112958E+005  0.1043930E+01  0.7957747E-01            NaN
         13   -1    0    0    0    0  0.00000000000E+00  0.00000000000E+00  0.74505805969E-08  0.10566000000E+00  0.10566000000E+00 0.  1.
     999900   -1    0    0    0    0 -0.00000000000E+00 -0.00000000000E+00 -0.74505805969E-08  0.93827000000E+00  0.93827000000E+00 0. -1.
     999902    2    1    2    0    0 -0.10557869362E-01  0.87218955218E-02 -0.19462000956E-01  0.10201327407E+01  0.10198551364E+01 0.  0.
     999903    2    3    3    0    0 -0.17749160725E-01  0.36677985525E-01 -0.12531029704E+00  0.13331984084E+00  0.20278118485E-01 0.  0.
         14    1    1    2    0    0  0.10557869362E-01 -0.87218955218E-02  0.19462000956E-01  0.23797259258E-01  0.00000000000E+00 0.  1.
     999901    1    3    3    0    0  0.71912913631E-02 -0.27956090003E-01  0.10584829609E+00  0.88681289990E+00  0.88000000000E+00 0.  1.
        -11    1    4    4    0    0 -0.43393870703E-02  0.29231297633E-01 -0.71614442391E-01  0.77473792482E-01  0.51100000000E-03 0. -1.
         11    1    4    4    0    0 -0.13409773655E-01  0.74466878921E-02 -0.53695854651E-01  0.55846048363E-01  0.51100000000E-03 0.  1.
</event>
<event>
 8    1  0.1112958E+005  0.1043930E+01  0.7957747E-01            NaN
         13   -1    0    0    0    0  0.00000000000E+00  0.00000000000E+00  0.74505805969E-08  0.10566000000E+00  0.10566000000E+00 0.  1.
     999900   -1    0    0    0    0 -0.00000000000E+00 -0.00000000000E+00 -0.74505805969E-08  0.93827000000E+00  0.93827000000E+00 0.  1.
     999902    2    1    2    0    0 -0.19159121846E-01  0.29498730426E-02  0.13693488435E-01  0.10201963672E+01  0.10199202627E+01 0.  0.
     999903    2    3    3    0    0 -0.76775984201E-02  0.19514082464E-01  0.12778396656E+00  0.13260252110E+00  0.28547181296E-01 0.  0.
         14    1    1    2    0    0  0.19159121846E-01 -0.29498730426E-02 -0.13693488435E-01  0.23733632811E-01  0.00000000000E+00 0. -1.
     999901    1    3    3    0    0 -0.11481523426E-01 -0.16564209421E-01 -0.11409047813E+00  0.88759384609E+00  0.88000000000E+00 0.  1.
        -11    1    4    4    0    0  0.53162678259E-02  0.20190402688E-01  0.96174558349E-01  0.98416065045E-01  0.51100000000E-03 0.  1.
         11    1    4    4    0    0 -0.12993866246E-01 -0.67632022394E-03  0.31609408214E-01  0.34186456056E-01  0.51100000000E-03 0. -1.
</event>
<event>
 8    1  0.1112958E+005  0.1043930E+01  0.7957747E-01            NaN
         13   -1    0    0    0    0  0.00000000000E+00  0.00000000000E+00  0.74505805969E-08  0.10566000000E+00  0.10566000000E+00 0. -1.
     999900   -1    0    0    0    0 -0.00000000000E+00 -0.00000000000E+00 -0.74505805969E-08  0.93827000000E+00  0.93827000000E+00 0. -1.
     999902    2    1    2    0    0  0.12909707634E-01 -0.92320059809E-02 -0.17615198993E-01  0.10202195441E+01  0.10199439849E+01 0.  0.
     999903    2    3    3    0    0  0.48091993390E-01  0.11749838189E+00  0.16480677446E-01  0.12979216732E+00  0.21346765426E-01 0.  0.
         14    1    1    2    0    0 -0.12909707634E-01  0.92320059809E-02  0.17615198993E-01  0.23710455946E-01  0.00000000000E+00 0. -1.
     999901    1    3    3    0    0 -0.35182285756E-01 -0.12673038787E+00 -0.34095876438E-01  0.89042737673E+00  0.88000000000E+00 0. -1.
        -11    1    4    4    0    0  0.14116308236E-01  0.29992573297E-01 -0.49104703190E-02  0.33514152994E-01  0.51100000000E-03 0.  1.
         11    1    4    4    0    0  0.33975685154E-01  0.87505808594E-01  0.21391147765E-01  0.96278014329E-01  0.51100000000E-03 0. -1.
</event>
<event>
 8    1  0.1112958E+005  0.1043930E+01  0.7957747E-01            NaN
         13   -1    0    0    0    0  0.00000000000E+00  0.00000000000E+00  0.74505805969E-08  0.10566000000E+00  0.10566000000E+00 0.  1.
     999900   -1    0    0    0    0 -0.00000000000E+00 -0.00000000000E+00 -0.74505805969E-08  0.93827000000E+00  0.93827000000E+00 0. -1.
     999902    2    1    2    0    0 -0.15047035506E-01  0.49688777979E-02  0.17737149437E-01  0.10201453517E+01  0.10198680450E+01 0.  0.
     999903    2    3    3    0    0 -0.93487543383E-01 -0.27991885493E-01 -0.85160200380E-01  0.13007389964E+00  0.11978865444E-01 0.  0.
         14    1    1    2    0    0  0.15047035506E-01 -0.49688777979E-02 -0.17737149437E-01  0.23784648290E-01  0.00000000000E+00 0. -1.
     999901    1    3    3    0    0  0.78440507876E-01  0.32960763291E-01  0.10289734982E+00  0.89007145207E+00  0.88000000000E+00 0.  1.
        -11    1    4    4    0    0 -0.54088873964E-01 -0.10107538978E-01 -0.46294819089E-01  0.71911334478E-01  0.51100000000E-03 0.  1.
         11    1    4    4    0    0 -0.39398669419E-01 -0.17884346515E-01 -0.38865381291E-01  0.58162565162E-01  0.51100000000E-03 0. -1.
</event>
<event>
 8    1  0.1112958E+005  0.1043930E+01  0.7957747E-01            NaN
         13   -1    0    0    0    0  0.00000000000E+00  0.00000000000E+00  0.74505805969E-08  0.10566000000E+00  0.10566000000E+00 0.  1.
     999900   -1    0    0    0    0 -0.00000000000E+00 -0.00000000000E+00 -0.74505805969E-08  0.93827000000E+00  0.93827000000E+00 0. -1.
     999902    2    1    2    0    0  0.16216820343E-01 -0.13789735079E-01 -0.11804268840E-01  0.10195890300E+01  0.10192984388E+01 0.  0.
     999903    2    3    3    0    0  0.15208959690E-01 -0.16714992308E-01 -0.12842940828E+00  0.13188919560E+00  0.19746989212E-01 0.  0.
         14    1    1    2    0    0 -0.16216820343E-01  0.13789735079E-01  0.11804268840E-01  0.24340969957E-01  0.00000000000E+00 0. -1.
     999901    1    3    3    0    0  0.10078606528E-02  0.29252572283E-02  0.11662513944E+00  0.88769983444E+00  0.88000000000E+00 0.  1.
        -11    1    4    4    0    0  0.10063057397E-01  0.22738819165E-02 -0.44705881978E-01  0.45883686291E-01  0.51100000000E-03 0.  1.
         11    1    4    4    0    0  0.51459022934E-02 -0.18988874224E-01 -0.83723526303E-01  0.86005509314E-01  0.51100000000E-03 0. -1.
</event>
<event>
 8    1  0.1112958E+005  0.1043930E+01  0.7957747E-01            NaN
         13   -1    0    0    0    0  0.00000000000E+00  0.00000000000E+00  0.74505805969E-08  0.10566000000E+00  0.10566000000E+00 0. -1.
     999900   -1    0    0    0    0 -0.00000000000E+00 -0.00000000000E+00 -0.74505805969E-08  0.93827000000E+00  0.93827000000E+00 0. -1.
     999902    2    1    2    0    0 -0.13625713361E-01 -0.13380284200E-01  0.14237998134E-01  0.10201095747E+01  0.10198314232E+01 0.  0.
     999903    2    3    3    0    0 -0.10375300947E+00  0.99539934978E-02 -0.75933190233E-01  0.13061631379E+00  0.20760613869E-01 0.  0.
         14    1    1    2    0    0  0.13625713361E-01  0.13380284200E-01 -0.14237998134E-01  0.23820425284E-01  0.00000000000E+00 0. -1.
     999901    1    3    3    0    0  0.90127296110E-01 -0.23334277697E-01  0.90171188367E-01  0.88949326093E+00  0.88000000000E+00 0.  1.
        -11    1    4    4    0    0 -0.34000996815E-01  0.95147136249E-02 -0.35100959524E-01  0.49788914833E-01  0.51100000000E-03 0.  1.
         11    1    4    4    0    0 -0.69752012657E-01  0.43927987286E-03 -0.40832230709E-01  0.80827398957E-01  0.51100000000E-03 0. -1.
</event>
<event>
 8    1  0.1112958E+005  0.1043930E+01  0.7957747E-01            NaN
         13   -1    0    0    0    0  0.00000000000E+00  0.00000000000E+00  0.74505805969E-08  0.10566000000E+00  0.10566000000E+00 0. -1.
     999900   -1    0    0    0    0 -0.00000000000E+00 -0.00000000000E+00 -0.74505805969E-08  0.93827000000E+00  0.93827000000E+00 0.  1.
     999902    2    1    2    0    0 -0.17763233198E-01  0.86775585844E-02 -0.13206914802E-01  0.10201549064E+01  0.10198778250E+01 0.  0.
     999903    2    3    3    0    0 -0.46058892524E-01  0.65053014079E-02 -0.12276751995E+00  0.13290697644E+00  0.20704103538E-01 0.  0.
         14    1    1    2    0    0  0.17763233198E-01 -0.86775585844E-02  0.13206914802E-01  0.23775093590E-01  0.00000000000E+00 0. -1.
     999901    1    3    3    0    0  0.28295659327E-01  0.21722571765E-02  0.10956060515E+00  0.88724792997E+00  0.88000000000E+00 0. -1.
        -11    1    4    4    0    0 -0.33864095562E-01 -0.20102392406E-02 -0.65855080735E-01  0.74080839693E-01  0.51100000000E-03 0. -1.
         11    1    4    4    0    0 -0.12194796963E-01  0.85155406485E-02 -0.56912439219E-01  0.58826136745E-01  0.51100000000E-03 0.  1.
</event>
<event>
 8    1  0.1112958E+005  0.1043930E+01  0.7957747E-01            NaN
         13   -1    0    0    0    0  0.00000000000E+00  0.00000000000E+00  0.74505805969E-08  0.10566000000E+00  0.10566000000E+00 0.  1.
     999900   -1    0    0    0    0 -0.00000000000E+00 -0.00000000000E+00 -0.74505805969E-08  0.93827000000E+00  0.93827000000E+00 0. -1.
     999902    2    1    2    0    0  0.23914616107E-02 -0.24336811513E-01 -0.92495174158E-03  0.10194584856E+01  0.10191647309E+01 0.  0.
     999903    2    3    3    0    0 -0.35333549903E-01  0.12005900868E+00  0.39556773045E-02  0.12687955352E+00  0.20497521938E-01 0.  0.
         14    1    1    2    0    0 -0.23914616107E-02  0.24336811513E-01  0.92495174158E-03  0.24471514440E-01  0.00000000000E+00 0.  1.
     999901    1    3    3    0    0  0.37725011514E-01 -0.14439582019E+00 -0.48806290461E-02  0.89257893204E+00  0.88000000000E+00 0.  1.
        -11    1    4    4    0    0 -0.30138300898E-02  0.38591447085E-01  0.61964274004E-02  0.39205099075E-01  0.51100000000E-03 0.  1.
         11    1    4    4    0    0 -0.32319719813E-01  0.81467561591E-01 -0.22407500959E-02  0.87674454446E-01  0.51100000000E-03 0. -1.
</event>
<event>
 8    1  0.1112958E+005  0.1043930E+01  0.7957747E-01            NaN
         13   -1    0    0    0    0  0.00000000000E+00  0.00000000000E+00  0.74505805969E-08  0.10566000000E+00  0.10566000000E+00 0.  1.
     999900   -1    0    0    0    0 -0.00000000000E+00 -0.00000000000E+00 -0.74505805969E-08  0.93827000000E+00  0.93827000000E+00 0.  1.
     999902    2    1    2    0    0  0.29983170838E-02 -0.19167660535E-01  0.18009522768E-01  0.10174586565E+01  0.10171142442E+01 0.  0.
     999903    2    3    3    0    0  0.57057420545E-01  0.95288187616E-01 -0.54653167150E-01  0.12543713528E+00  0.20300696743E-01 0.  0.
         14    1    1    2    0    0 -0.29983170838E-02  0.19167660535E-01 -0.18009522768E-01  0.26471343488E-01  0.00000000000E+00 0.  1.
     999901    1    3    3    0    0 -0.54059103461E-01 -0.11445584815E+00  0.72662689918E-01  0.89202152124E+00  0.88000000000E+00 0. -1.
        -11    1    4    4    0    0  0.20365511762E-01  0.53294972859E-01 -0.30024354249E-01  0.64473491998E-01  0.51100000000E-03 0.  1.
         11    1    4    4    0    0  0.36691908783E-01  0.41993214757E-01 -0.24628812902E-01  0.60963643278E-01  0.51100000000E-03 0. -1.
</event>
<event>
 8    1  0.1112958E+005  0.1043930E+01  0.7957747E-01            NaN
         13   -1    0    0    0    0  0.00000000000E+00  0.00000000000E+00  0.74505805969E-08  0.10566000000E+00  0.10566000000E+00 0. -1.
     999900   -1    0    0    0    0 -0.00000000000E+00 -0.00000000000E+00 -0.74505805969E-08  0.93827000000E+00  0.93827000000E+00 0. -1.
     999902    2    1    2    0    0 -0.80121205544E-02 -0.11961347759E-01 -0.18775720483E-01  0.10202700001E+01  0.10199956262E+01 0.  0.
     999903    2    3    3    0    0  0.79673020370E-01  0.92855556305E-01  0.32360628607E-01  0.12825531775E+00  0.20791145610E-01 0.  0.
         14    1    1    2    0    0  0.80121205544E-02  0.11961347759E-01  0.18775720483E-01  0.23659999908E-01  0.00000000000E+00 0. -1.
     999901    1    3    3    0    0 -0.87685140924E-01 -0.10481690406E+00 -0.51136349090E-01  0.89201468234E+00  0.88000000000E+00 0. -1.
        -11    1    4    4    0    0  0.14889742946E-01  0.10916305794E-01  0.11435982287E-01  0.21723558389E-01  0.51100000000E-03 0. -1.
         11    1    4    4    0    0  0.64783277423E-01  0.81939250511E-01  0.20924646320E-01  0.10653175936E+00  0.51100000000E-03 0.  1.
</event>
<event>
 8    1  0.1112958E+005  0.1043930E+01  0.7957747E-01            NaN
         13   -1    0    0    0    0  0.00000000000E+00  0.00000000000E+00  0.74505805969E-08  0.10566000000E+00  0.10566000000E+00 0.  1.
     999900   -1    0    0    0    0 -0.00000000000E+00 -0.00000000000E+00 -0.74505805969E-08  0.93827000000E+00  0.93827000000E+00 0.  1.
     999902    2    1    2    0    0  0.20742556934E-01  0.67923647297E-02  0.13475788514E-02  0.10220620816E+01  0.10218281131E+01 0.  0.
     999903    2    3    3    0    0  0.77573601228E-01 -0.10037412476E+00 -0.34887975332E-01  0.13300221890E+00  0.19488224133E-01 0.  0.
         14    1    1    2    0    0 -0.20742556934E-01 -0.67923647297E-02 -0.13475788514E-02  0.21867918409E-01  0.00000000000E+00 0.  1.
     999901    1    3    3    0    0 -0.56831044294E-01  0.10716648949E+00  0.36235554184E-01  0.88905986269E+00  0.88000000000E+00 0. -1.
        -11    1    4    4    0    0  0.12604470178E-01 -0.99474457269E-02  0.77323052392E-03  0.16083636137E-01  0.51100000000E-03 0.  1.
         11    1    4    4    0    0  0.64969131051E-01 -0.90426679034E-01 -0.35661205856E-01  0.11691858276E+00  0.51100000000E-03 0. -1.
</event>
<event>
 8    1  0.1112958E+005  0.1043930E+01  0.7957747E-01            NaN
         13   -1    0    0    0    0  0.00000000000E+00  0.00000000000E+00  0.74505805969E-08  0.10566000000E+00  0.10566000000E+00 0. -1.
     999900   -1    0    0    0    0 -0.00000000000E+00 -0.00000000000E+00 -0.74505805969E-08  0.93827000000E+00  0.93827000000E+00 0. -1.
     999902    2    1    2    0    0 -0.15319559820E-01  0.16373974265E-01 -0.51965886415E-02  0.10209126048E+01  0.10206530979E+01 0.  0.
     999903    2    3    3    0    0 -0.95177891674E-01  0.90524012213E-01 -0.18215939553E-01  0.13409521395E+00  0.19906735025E-01 0.  0.
         14    1    1    2    0    0  0.15319559820E-01 -0.16373974265E-01  0.51965886415E-02  0.23017395157E-01  0.00000000000E+00 0. -1.
     999901    1    3    3    0    0  0.79858331854E-01 -0.74150037948E-01  0.13019350912E-01  0.88681739089E+00  0.88000000000E+00 0.  1.
        -11    1    4    4    0    0 -0.57958692546E-01  0.57046938971E-01 -0.15789568992E-02  0.81340749404E-01  0.51100000000E-03 0.  1.
         11    1    4    4    0    0 -0.37219199128E-01  0.33477073242E-01 -0.16636982654E-01  0.52754464545E-01  0.51100000000E-03 0. -1.
</event>
<event>
 8    1  0.1112958E+005  0.1043930E+01  0.7957747E-01            NaN
         13   -1    0    0    0    0  0.00000000000E+00  0.00000000000E+00  0.74505805969E-08  0.10566000000E+00  0.10566000000E+00 0.  1.
     999900   -1    0    0    0    0 -0.00000000000E+00 -0.00000000000E+00 -0.74505805969E-08  0.93827000000E+00  0.93827000000E+00 0. -1.
     999902    2    1    2    0    0 -0.77817449219E-02 -0.15041414437E-01  0.17759626368E-01  0.10193901542E+01  0.10190947368E+01 0.  0.
     999903    2    3    3    0    0 -0.17776364823E-01  0.58867633999E-01 -0.11021698113E+00  0.12701105768E+00  0.14234759018E-01 0.  0.
         14    1    1    2    0    0  0.77817449219E-02  0.15041414437E-01 -0.17759626368E-01  0.24539845783E-01  0.00000000000E+00 0. -1.
     999901    1    3    3    0    0  0.99946199014E-02 -0.73909048436E-01  0.12797660750E+00  0.89237909654E+00  0.88000000000E+00 0.  1.
        -11    1    4    4    0    0  0.13731890263E-02  0.14994090444E-01 -0.22448315622E-01  0.27035095554E-01  0.51100000000E-03 0. -1.
         11    1    4    4    0    0 -0.19149553850E-01  0.43873543554E-01 -0.87768665511E-01  0.99975962127E-01  0.51100000000E-03 0.  1.
</event>
<event>
 8    1  0.1112958E+005  0.1043930E+01  0.7957747E-01            NaN
         13   -1    0    0    0    0  0.00000000000E+00  0.00000000000E+00  0.74505805969E-08  0.10566000000E+00  0.10566000000E+00 0.  1.
     999900   -1    0    0    0    0 -0.00000000000E+00 -0.00000000000E+00 -0.74505805969E-08  0.93827000000E+00  0.93827000000E+00 0.  1.
     999902    2    1    2    0    0  0.31636821754E-02  0.41584025589E-02  0.22385971265E-01  0.10209423314E+01  0.10206835020E+01 0.  0.
     999903    2    3    3    0    0 -0.10947980890E+00 -0.26281488840E-01 -0.60509778967E-01  0.12937806091E+00  0.20017594292E-01 0.  0.
         14    1    1    2    0    0 -0.31636821754E-02 -0.41584025589E-02 -0.22385971265E-01  0.22987668568E-01  0.00000000000E+00 0. -1.
     999901    1    3    3    0    0  0.11264349107E+00  0.30439891399E-01  0.82895750232E-01  0.89156427052E+00  0.88000000000E+00 0.  1.
        -11    1    4    4    0    0 -0.38912880346E-01 -0.15247093622E-01 -0.31266942048E-01  0.52197403256E-01  0.51100000000E-03 0.  1.
         11    1    4    4    0    0 -0.70566928553E-01 -0.11034395218E-01 -0.29242836919E-01  0.77180657650E-01  0.51100000000E-03 0. -1.
</event>
<event>
 8    1  0.1112958E+005  0.1043930E+01  0.7957747E-01            NaN
         13   -1    0    0    0    0  0.00000000000E+00  0.00000000000E+00  0.74505805969E-08  0.10566000000E+00  0.10566000000E+00 0. -1.
     999900   -1    0    0    0    0 -0.00000000000E+00 -0.00000000000E+00 -0.74505805969E-08  0.93827000000E+00  0.93827000000E+00 0.  1.
     999902    2    1    2    0    0  0.12117775058E-01 -0.18995384782E-01  0.62504224992E-02  0.10205476798E+01  0.10202797822E+01 0.  0.
     999903    2    3    3    0    0 -0.65047753208E-01  0.14488100641E-01  0.11027153071E+00  0.13043754422E+00  0.20323070637E-01 0.  0.
         14    1    1    2    0    0 -0.12117775058E-01  0.18995384782E-01 -0.62504224992E-02  0.23382320175E-01  0.00000000000E+00 0. -1.
     999901    1    3    3    0    0  0.77165528265E-01 -0.33483485423E-01 -0.10402110821E+00  0.89011013560E+00  0.88000000000E+00 0.  1.
        -11    1    4    4    0    0 -0.19514233803E-01 -0.64418996102E-03  0.48008037905E-01  0.51829076069E-01  0.51100000000E-03 0. -1.
         11    1    4    4    0    0 -0.45533519404E-01  0.15132290602E-01  0.62263492804E-01  0.78608468153E-01  0.51100000000E-03 0.  1.
</event>
<event>
 8    1  0.1112958E+005  0.1043930E+01  0.7957747E-01            NaN
         13   -1    0    0    0    0  0.00000000000E+00  0.00000000000E+00  0.74505805969E-08  0.10566000000E+00  0.10566000000E+00 0.  1.
     999900   -1    0    0    0    0 -0.00000000000E+00 -0.00000000000E+00 -0.74505805969E-08  0.93827000000E+00  0.93827000000E+00 0. -1.
     999902    2    1    2    0    0 -0.22863336014E-01  0.31320004423E-02 -0.53006268996E-02  0.10202522001E+01  0.10199774084E+01 0.  0.
     999903    2    3    3    0    0  0.10790293893E+00  0.57369323631E-01  0.26061144949E-01  0.12838614147E+00  0.29487870748E-01 0.  0.
         14    1    1    2    0    0  0.22863336014E-01 -0.31320004423E-02  0.53006268996E-02  0.23677799856E-01  0.00000000000E+00 0.  1.
     999901    1    3    3    0    0 -0.13076627494E+00 -0.54237323189E-01 -0.31361771849E-01  0.89186605868E+00  0.88000000000E+00 0.  1.
        -11    1    4    4    0    0  0.74006828439E-01  0.31819951621E-01  0.29515875693E-01  0.85796083918E-01  0.51100000000E-03 0.  1.
         11    1    4    4    0    0  0.33896110489E-01  0.25549372011E-01 -0.34547307442E-02  0.42590057548E-01  0.51100000000E-03 0. -1.
</event>
<event>
 8    1  0.1112958E+005  0.1043930E+01  0.7957747E-01            NaN
         13   -1    0    0    0    0  0.00000000000E+00  0.00000000000E+00  0.74505805969E-08  0.10566000000E+00  0.10566000000E+00 0. -1.
     999900   -1    0    0    0    0 -0.00000000000E+00 -0.00000000000E+00 -0.74505805969E-08  0.93827000000E+00  0.93827000000E+00 0. -1.
     999902    2    1    2    0    0 -0.15375862574E-01 -0.16885728327E-01  0.54976396966E-02  0.10204402360E+01  0.10201698418E+01 0.  0.
     999903    2    3    3    0    0  0.94471068828E-01  0.81684766532E-01  0.19729215378E-01  0.12803616353E+00  0.20170109159E-01 0.  0.
         14    1    1    2    0    0  0.15375862574E-01  0.16885728327E-01 -0.54976396966E-02  0.23489764010E-01  0.00000000000E+00 0.  1.
     999901    1    3    3    0    0 -0.10984693140E+00 -0.98570494859E-01 -0.14231575681E-01  0.89240407246E+00  0.88000000000E+00 0. -1.
        -11    1    4    4    0    0  0.41005484948E-01  0.22914274792E-01  0.94995273658E-02  0.47927194016E-01  0.51100000000E-03 0.  1.
         11    1    4    4    0    0  0.53465583880E-01  0.58770491740E-01  0.10229688012E-01  0.80108969515E-01  0.51100000000E-03 0. -1.
</event>
<event>
 8    1  0.1112958E+005  0.1043930E+01  0.7957747E-01            NaN
         13   -1    0    0    0    0  0.00000000000E+00  0.00000000000E+00  0.74505805969E-08  0.10566000000E+00  0.10566000000E+00 0. -1.
     999900   -1    0    0    0    0 -0.00000000000E+00 -0.00000000000E+00 -0.74505805969E-08  0.93827000000E+00  0.93827000000E+00 0.  1.
     999902    2    1    2    0    0  0.10687062807E-02  0.65966668641E-02 -0.23062604636E-01  0.10199187135E+01  0.10196360332E+01 0.  0.
     999903    2    3    3    0    0 -0.10740374049E+00  0.25972172428E-01 -0.69077309421E-01  0.13185394391E+00  0.20091556336E-01 0.  0.
         14    1    1    2    0    0 -0.10687062807E-02 -0.65966668641E-02  0.23062604636E-01  0.24011286501E-01  0.00000000000E+00 0. -1.
     999901    1    3    3    0    0  0.10847244677E+00 -0.19375505564E-01  0.46014704785E-01  0.88806476959E+00  0.88000000000E+00 0.  1.
        -11    1    4    4    0    0 -0.41673784749E-01  0.14649195613E-01 -0.37990624381E-01  0.58265357883E-01  0.51100000000E-03 0.  1.
         11    1    4    4    0    0 -0.65729955743E-01  0.11322976816E-01 -0.31086685040E-01  0.73588586029E-01  0.51100000000E-03 0. -1.
</event>
<event>
 8    1  0.1112958E+005  0.1043930E+01  0.7957747E-01            NaN
         13   -1    0    0    0    0  0.00000000000E+00  0.00000000000E+00  0.74505805969E-08  0.10566000000E+00  0.10566000000E+00 0. -1.
     999900   -1    0    0    0    0 -0.00000000000E+00 -0.00000000000E+00 -0.74505805969E-08  0.93827000000E+00  0.93827000000E+00 0. -1.
     999902    2    1    2    0    0 -0.19677121616E-01  0.41807599008E-02 -0.26108530487E-01  0.10109705820E+01  0.10104331717E+01 0.  0.
     999903    2    3    3    0    0 -0.78103588370E-01 -0.39826625015E-01 -0.87935459433E-01  0.12577406651E+00  0.20003504833E-01 0.  0.
         14    1    1    2    0    0  0.19677121616E-01 -0.41807599008E-02  0.26108530487E-01  0.32959417966E-01  0.00000000000E+00 0. -1.
     999901    1    3    3    0    0  0.58426466754E-01  0.44007384916E-01  0.61826928946E-01  0.88519651552E+00  0.88000000000E+00 0.  1.
        -11    1    4    4    0    0 -0.25726681378E-01 -0.31039988650E-02 -0.26995299945E-01  0.37423312037E-01  0.51100000000E-03 0. -1.
         11    1    4    4    0    0 -0.52376906992E-01 -0.36722626150E-01 -0.60940159488E-01  0.88350754478E-01  0.51100000000E-03 0.  1.
</event>
<event>
 8    1  0.1112958E+005  0.1043930E+01  0.7957747E-01            NaN
         13   -1    0    0    0    0  0.00000000000E+00  0.00000000000E+00  0.74505805969E-08  0.10566000000E+00  0.10566000000E+00 0.  1.
     999900   -1    0    0    0    0 -0.00000000000E+00 -0.00000000000E+00 -0.74505805969E-08  0.93827000000E+00  0.93827000000E+00 0.  1.
     999902    2    1    2    0    0 -0.12928595277E-01  0.15585046456E-01 -0.12449997150E-01  0.10201593316E+01  0.10198823545E+01 0.  0.
     999903    2    3    3    0    0  0.45850356811E-01  0.53930035936E-01  0.10632735330E+00  0.12941056653E+00  0.20757761810E-01 0.  0.
         14    1    1    2    0    0  0.12928595277E-01 -0.15585046456E-01  0.12449997150E-01  0.23770668437E-01  0.00000000000E+00 0.  1.
     999901    1    3    3    0    0 -0.58778952088E-01 -0.38344989479E-01 -0.11877735045E+00  0.89074876503E+00  0.88000000000E+00 0.  1.
        -11    1    4    4    0    0  0.40694511779E-01  0.52537369731E-01  0.87756912112E-01  0.11008067610E+00  0.51100000000E-03 0.  1.
         11    1    4    4    0    0  0.51558450313E-02  0.13926662046E-02  0.18570441184E-01  0.19329890427E-01  0.51100000000E-03 0. -1.
</event>
<event>
 8    1  0.1112958E+005  0.1043930E+01  0.7957747E-01            NaN
         13   -1    0    0    0    0  0.00000000000E+00  0.00000000000E+00  0.74505805969E-08  0.10566000000E+00  0.10566000000E+00 0. -1.
     999900   -1    0    0    0    0 -0.00000000000E+00 -0.00000000000E+00 -0.74505805969E-08  0.93827000000E+00  0.93827000000E+00 0. -1.
     999902    2    1    2    0    0 -0.20091372181E-01  0.13195702800E-01  0.17395613436E-02  0.10198298780E+01  0.10195450770E+01 0.  0.
     999903    2    3    3    0    0 -0.11634120188E+00  0.37822651221E-01 -0.45501113628E-01  0.13298028661E+00  0.25447535959E-01 0.  0.
         14    1    1    2    0    0  0.20091372181E-01 -0.13195702800E-01 -0.17395613436E-02  0.24100122036E-01  0.00000000000E+00 0. -1.
     999901    1    3    3    0    0  0.96249829698E-01 -0.24626948421E-01  0.47240674971E-01  0.88684959135E+00  0.88000000000E+00 0.  1.
        -11    1    4    4    0    0 -0.32462704395E-01 -0.80261810958E-03 -0.91896128761E-02  0.33751762595E-01  0.51100000000E-03 0.  1.
         11    1    4    4    0    0 -0.83878497485E-01  0.38625269330E-01 -0.36311500751E-01  0.99228524019E-01  0.51100000000E-03 0. -1.
</event>
<event>
 8    1  0.1112958E+005  0.1043930E+01  0.7957747E-01            NaN
         13   -1    0    0    0    0  0.00000000000E+00  0.00000000000E+00  0.74505805969E-08  0.10566000000E+00  0.10566000000E+00 0.  1.
     999900   -1    0    0    0    0 -0.00000000000E+00 -0.00000000000E+00 -0.74505805969E-08  0.93827000000E+00  0.93827000000E+00 0.  1.
     999902    2    1    2    0    0 -0.54328576585E-05 -0.74899744734E-02  0.22946007999E-01  0.10197924974E+01  0.10195068017E+01 0.  0.
     999903    2    3    3    0    0 -0.11019490422E+00  0.38097923950E-01  0.56439605382E-01  0.13111831802E+00  0.20303091876E-01 0.  0.
         14    1    1    2    0    0  0.54328576585E-05  0.74899744734E-02 -0.22946007999E-01  0.24137502568E-01  0.00000000000E+00 0. -1.
     999901    1    3    3    0    0  0.11018947136E+00 -0.45587898424E-01 -0.33493597383E-01  0.88867417941E+00  0.88000000000E+00 0.  1.
        -11    1    4    4    0    0 -0.56978779374E-01  0.30365136576E-01  0.31397324805E-01  0.71796071927E-01  0.51100000000E-03 0. -1.
         11    1    4    4    0    0 -0.53216124849E-01  0.77327873747E-02  0.25042280577E-01  0.59322246097E-01  0.51100000000E-03 0.  1.
</event>
<event>
 8    1  0.1112958E+005  0.1043930E+01  0.7957747E-01            NaN
         13   -1    0    0    0    0  0.00000000000E+00  0.00000000000E+00  0.74505805969E-08  0.10566000000E+00  0.10566000000E+00 0. -1.
     999900   -1    0    0    0    0 -0.00000000000E+00 -0.00000000000E+00 -0.74505805969E-08  0.93827000000E+00  0.93827000000E+00 0. -1.
     999902    2    1    2    0    0  0.19532119787E-01  0.56865415455E-02 -0.13531990076E-01  0.10194973331E+01  0.10192045216E+01 0.  0.
     999903    2    3    3    0    0  0.10709248755E+00  0.43090766511E-01  0.59594841895E-01  0.13134564129E+00  0.19352448358E-01 0.  0.
         14    1    1    2    0    0 -0.19532119787E-01 -0.56865415455E-02  0.13531990076E-01  0.24432666935E-01  0.00000000000E+00 0. -1.
     999901    1    3    3    0    0 -0.87560367763E-01 -0.37404224965E-01 -0.73126831971E-01  0.88815169177E+00  0.88000000000E+00 0. -1.
        -11    1    4    4    0    0  0.41118292652E-01  0.65894367958E-02  0.21489762278E-01  0.46863692467E-01  0.51100000000E-03 0.  1.
         11    1    4    4    0    0  0.65974194898E-01  0.36501329715E-01  0.38105079617E-01  0.84481948824E-01  0.51100000000E-03 0. -1.
</event>
<event>
 8    1  0.1112958E+005  0.1043930E+01  0.7957747E-01            NaN
         13   -1    0    0    0    0  0.00000000000E+00  0.00000000000E+00  0.74505805969E-08  0.10566000000E+00  0.10566000000E+00 0.  1.
     999900   -1    0    0    0    0 -0.00000000000E+00 -0.00000000000E+00 -0.74505805969E-08  0.93827000000E+00  0.93827000000E+00 0.  1.
     999902    2    1    2    0    0 -0.48767581858E-02  0.16893933652E-01 -0.18033323845E-01  0.10187429292E+01  0.10184315231E+01 0.  0.
     999903    2    3    3    0    0 -0.77862792934E-01 -0.93354611904E-01 -0.35013286673E-01  0.12870359179E+00  0.23685147437E-01 0.  0.
         14    1    1    2    0    0  0.48767581858E-02 -0.16893933652E-01  0.18033323845E-01  0.25187070762E-01  0.00000000000E+00 0. -1.
     999901    1    3    3    0    0  0.72986034748E-01  0.11024854556E+00  0.16979962828E-01  0.89003933745E+00  0.88000000000E+00 0. -1.
        -11    1    4    4    0    0 -0.83570356152E-02 -0.24981636925E-01 -0.71167463031E-02  0.27291599929E-01  0.51100000000E-03 0. -1.
         11    1    4    4    0    0 -0.69505757319E-01 -0.68372974979E-01 -0.27896540370E-01  0.10141199186E+00  0.51100000000E-03 0.  1.
</event>
<event>
 8    1  0.1112958E+005  0.1043930E+01  0.7957747E-01            NaN
         13   -1    0    0    0    0  0.00000000000E+00  0.00000000000E+00  0.74505805969E-08  0.10566000000E+00  0.10566000000E+00 0.  1.
     999900   -1    0    0    0    0 -0.00000000000E+00 -0.00000000000E+00 -0.74505805969E-08  0.93827000000E+00  0.93827000000E+00 0.  1.
     999902    2    1    2    0    0 -0.10938888654E-01 -0.22165518306E-01  0.92594699245E-02  0.10175347870E+01  0.10171923788E+01 0.  0.
     999903    2    3    3    0    0 -0.54554543349E-02  0.80117083316E-04 -0.12536999813E+00  0.12700122220E+00  0.19542405398E-01 0.  0.
         14    1    1    2    0    0  0.10938888654E-01  0.22165518306E-01 -0.92594699245E-02  0.26395213014E-01  0.00000000000E+00 0. -1.
     999901    1    3    3    0    0 -0.54834343196E-02 -0.22245635390E-01  0.13462946805E+00  0.89053356479E+00  0.88000000000E+00 0. -1.
        -11    1    4    4    0    0 -0.44515957495E-04  0.92307575031E-02 -0.70995403980E-01  0.71594813869E-01  0.51100000000E-03 0.  1.
         11    1    4    4    0    0 -0.54109383774E-02 -0.91506404198E-02 -0.54374594147E-01  0.55406408329E-01  0.51100000000E-03 0. -1.
</event>
<event>
 8    1  0.1112958E+005  0.1043930E+01  0.7957747E-01            NaN
         13   -1    0    0    0    0  0.00000000000E+00  0.00000000000E+00  0.74505805969E-08  0.10566000000E+00  0.10566000000E+00 0.  1.
     999900   -1    0    0    0    0 -0.00000000000E+00 -0.00000000000E+00 -0.74505805969E-08  0.93827000000E+00  0.93827000000E+00 0.  1.
     999902    2    1    2    0    0 -0.16950079974E-01 -0.85731890034E-02 -0.11472487178E-01  0.10217393997E+01  0.10214983985E+01 0.  0.
     999903    2    3    3    0    0  0.33945710969E-01 -0.97059266355E-01  0.78823078224E-01  0.13124882895E+00  0.20984874573E-01 0.  0.
         14    1    1    2    0    0  0.16950079974E-01  0.85731890034E-02  0.11472487178E-01  0.22190600326E-01  0.00000000000E+00 0.  1.
     999901    1    3    3    0    0 -0.50895790942E-01  0.88486077352E-01 -0.90295565402E-01  0.89049057073E+00  0.88000000000E+00 0.  1.
        -11    1    4    4    0    0  0.29048335256E-01 -0.54589452452E-01  0.51822851675E-01  0.80682607648E-01  0.51100000000E-03 0.  1.
         11    1    4    4    0    0  0.48973757131E-02 -0.42469813903E-01  0.27000226549E-01  0.50566221300E-01  0.51100000000E-03 0. -1.
</event>
<event>
 8    1  0.1112958E+005  0.1043930E+01  0.7957747E-01            NaN
         13   -1    0    0    0    0  0.00000000000E+00  0.00000000000E+00  0.74505805969E-08  0.10566000000E+00  0.10566000000E+00 0. -1.
     999900   -1    0    0    0    0 -0.00000000000E+00 -0.00000000000E+00 -0.74505805969E-08  0.93827000000E+00  0.93827000000E+00 0. -1.
     999902    2    1    2    0    0 -0.43601985622E-02 -0.11467747196E-01 -0.20438972575E-01  0.10200915404E+01  0.10198129626E+01 0.  0.
     999903    2    3    3    0    0 -0.55185912801E-01 -0.28736531242E-01 -0.11615247019E+00  0.13327558554E+00  0.19992802956E-01 0.  0.
         14    1    1    2    0    0  0.43601985622E-02  0.11467747196E-01  0.20438972575E-01  0.23838459623E-01  0.00000000000E+00 0. -1.
     999901    1    3    3    0    0  0.50825714239E-01  0.17268784046E-01  0.95713497614E-01  0.88681595484E+00  0.88000000000E+00 0.  1.
        -11    1    4    4    0    0 -0.46875236283E-01 -0.28009649197E-01 -0.85070392582E-01  0.10108937155E+00  0.51100000000E-03 0. -1.
         11    1    4    4    0    0 -0.83106765181E-02 -0.72688204445E-03 -0.31082077608E-01  0.32186213992E-01  0.51100000000E-03 0.  1.
</event>
<event>
 8    1  0.1112958E+005  0.1043930E+01  0.7957747E-01            NaN
         13   -1    0    0    0    0  0.00000000000E+00  0.00000000000E+00  0.74505805969E-08  0.10566000000E+00  0.10566000000E+00 0. -1.
     999900   -1    0    0    0    0 -0.00000000000E+00 -0.00000000000E+00 -0.74505805969E-08  0.93827000000E+00  0.93827000000E+00 0. -1.
     999902    2    1    2    0    0 -0.13839977746E-01 -0.11627855349E-01  0.14487631146E-01  0.10207644337E+01  0.10205015364E+01 0.  0.
     999903    2    3    3    0    0 -0.16680257720E-01  0.37617758520E-02  0.13021385269E+00  0.13304968998E+00  0.21311748277E-01 0.  0.
         14    1    1    2    0    0  0.13839977746E-01  0.11627855349E-01 -0.14487631146E-01  0.23165566262E-01  0.00000000000E+00 0.  1.
     999901    1    3    3    0    0  0.28402799741E-02 -0.15389631201E-01 -0.11572622155E+00  0.88771474376E+00  0.88000000000E+00 0. -1.
        -11    1    4    4    0    0 -0.31394430667E-02 -0.57530356185E-02  0.77929520162E-01  0.78206296136E-01  0.51100000000E-03 0.  1.
         11    1    4    4    0    0 -0.13540814653E-01  0.95148114705E-02  0.52284332530E-01  0.54843393840E-01  0.51100000000E-03 0. -1.
</event>
<event>
 8    1  0.1112958E+005  0.1043930E+01  0.7957747E-01            NaN
         13   -1    0    0    0    0  0.00000000000E+00  0.00000000000E+00  0.74505805969E-08  0.10566000000E+00  0.10566000000E+00 0.  1.
     999900   -1    0    0    0    0 -0.00000000000E+00 -0.00000000000E+00 -0.74505805969E-08  0.93827000000E+00  0.93827000000E+00 0. -1.
     999902    2    1    2    0    0 -0.63745803091E-02  0.21731427593E-01  0.59808840936E-02  0.10205064820E+01  0.10202376285E+01 0.  0.
     999903    2    3    3    0    0 -0.58588506982E-01  0.11634157324E+00 -0.21417392158E-01  0.13347320231E+00  0.19708278276E-01 0.  0.
         14    1    1    2    0    0  0.63745803091E-02 -0.21731427593E-01 -0.59808840936E-02  0.23423517965E-01  0.00000000000E+00 0. -1.
     999901    1    3    3    0    0  0.52213926673E-01 -0.94610145651E-01  0.27398276252E-01  0.88703327973E+00  0.88000000000E+00 0.  1.
        -11    1    4    4    0    0 -0.33752934201E-01  0.47981117102E-01 -0.47783578206E-02  0.58860360091E-01  0.51100000000E-03 0. -1.
         11    1    4    4    0    0 -0.24835572781E-01  0.68360456141E-01 -0.16639034338E-01  0.74612842218E-01  0.51100000000E-03 0.  1.
</event>
<event>
 8    1  0.1112958E+005  0.1043930E+01  0.7957747E-01            NaN
         13   -1    0    0    0    0  0.00000000000E+00  0.00000000000E+00  0.74505805969E-08  0.10566000000E+00  0.10566000000E+00 0.  1.
     999900   -1    0    0    0    0 -0.00000000000E+00 -0.00000000000E+00 -0.74505805969E-08  0.93827000000E+00  0.93827000000E+00 0. -1.
     999902    2    1    2    0    0  0.78337377467E-02 -0.21118578202E-01  0.58531726117E-02  0.10206572386E+01  0.10203918744E+01 0.  0.
     999903    2    3    3    0    0 -0.51367118802E-01 -0.83399150235E-01  0.87187501702E-01  0.13273895176E+00  0.20590524670E-01 0.  0.
         14    1    1    2    0    0 -0.78337377467E-02  0.21118578202E-01 -0.58531726117E-02  0.23272761374E-01  0.00000000000E+00 0. -1.
     999901    1    3    3    0    0  0.59200856549E-01  0.62280572034E-01 -0.81334329091E-01  0.88791828687E+00  0.88000000000E+00 0. -1.
        -11    1    4    4    0    0 -0.13585171518E-01 -0.25122008258E-01  0.13894642533E-01  0.31764672141E-01  0.51100000000E-03 0.  1.
         11    1    4    4    0    0 -0.37781947285E-01 -0.58277141977E-01  0.73292859169E-01  0.10097427962E+00  0.51100000000E-03 0. -1.
</event>
<event>
 8    1  0.1112958E+005  0.1043930E+01  0.7957747E-01            NaN
         13   -1    0    0    0    0  0.00000000000E+00  0.00000000000E+00  0.74505805969E-08  0.10566000000E+00  0.10566000000E+00 0.  1.
     999900   -1    0    0    0    0 -0.00000000000E+00 -0.00000000000E+00 -0.74505805969E-08  0.93827000000E+00  0.93827000000E+00 0. -1.
     999902    2    1    2    0    0  0.58954349570E-03 -0.77681858834E-02 -0.22577021657E-01  0.10200466547E+01  0.10197670144E+01 0.  0.
     999903    2    3    3    0    0 -0.16013322999E-01  0.11974634662E-01  0.12432740577E+00  0.12749618282E+00  0.19953807171E-01 0.  0.
         14    1    1    2    0    0 -0.58954349570E-03  0.77681858834E-02  0.22577021657E-01  0.23883345251E-01  0.00000000000E+00 0.  1.
     999901    1    3    3    0    0  0.16602866494E-01 -0.19742820545E-01 -0.14690442743E+00  0.89255047193E+00  0.88000000000E+00 0. -1.
        -11    1    4    4    0    0 -0.12356633319E-01  0.88269329684E-02  0.36517957937E-01  0.39552793903E-01  0.51100000000E-03 0. -1.
         11    1    4    4    0    0 -0.36566896795E-02  0.31477016934E-02  0.87809447831E-01  0.87943388920E-01  0.51100000000E-03 0.  1.
</event>
<event>
 8    1  0.1112958E+005  0.1043930E+01  0.7957747E-01            NaN
         13   -1    0    0    0    0  0.00000000000E+00  0.00000000000E+00  0.74505805969E-08  0.10566000000E+00  0.10566000000E+00 0. -1.
     999900   -1    0    0    0    0 -0.00000000000E+00 -0.00000000000E+00 -0.74505805969E-08  0.93827000000E+00  0.93827000000E+00 0.  1.
     999902    2    1    2    0    0  0.15198250961E-01  0.16099433364E-01  0.61437208059E-02  0.10209534056E+01  0.10206948283E+01 0.  0.
     999903    2    3    3    0    0 -0.26452533062E-01 -0.11548243449E+00 -0.45437374396E-01  0.12870389721E+00  0.21545509628E-01 0.  0.
         14    1    1    2    0    0 -0.15198250961E-01 -0.16099433364E-01 -0.61437208059E-02  0.22976594445E-01  0.00000000000E+00 0.  1.
     999901    1    3    3    0    0  0.41650784023E-01  0.13158186785E+00  0.51581095202E-01  0.89224950834E+00  0.88000000000E+00 0. -1.
        -11    1    4    4    0    0 -0.24586114134E-02 -0.54812632867E-01 -0.25306298182E-01  0.60424658382E-01  0.51100000000E-03 0. -1.
         11    1    4    4    0    0 -0.23993921648E-01 -0.60669801620E-01 -0.20131076214E-01  0.68279238830E-01  0.51100000000E-03 0.  1.
</event>
<event>
 8    1  0.1112958E+005  0.1043930E+01  0.7957747E-01            NaN
         13   -1    0    0    0    0  0.00000000000E+00  0.00000000000E+00  0.74505805969E-08  0.10566000000E+00  0.10566000000E+00 0. -1.
     999900   -1    0    0    0    0 -0.00000000000E+00 -0.00000000000E+00 -0.74505805969E-08  0.93827000000E+00  0.93827000000E+00 0. -1.
     999902    2    1    2    0    0  0.14346826958E-02  0.15590579741E-01 -0.17718852687E-01  0.10202850802E+01  0.10200110601E+01 0.  0.
     999903    2    3    3    0    0  0.15359035465E-01  0.10289997783E+00  0.76695382913E-01  0.13082970389E+00  0.20246586165E-01 0.  0.
         14    1    1    2    0    0 -0.14346826958E-02 -0.15590579741E-01  0.17718852687E-01  0.23644919785E-01  0.00000000000E+00 0. -1.
     999901    1    3    3    0    0 -0.13924352769E-01 -0.87309398089E-01 -0.94414235600E-01  0.88945537633E+00  0.88000000000E+00 0. -1.
        -11    1    4    4    0    0  0.13068421758E-01  0.58682151523E-01  0.32833027193E-01  0.68502900306E-01  0.51100000000E-03 0. -1.
         11    1    4    4    0    0  0.22906137072E-02  0.44217826306E-01  0.43862355720E-01  0.62326803581E-01  0.51100000000E-03 0.  1.
</event>
<event>
 8    1  0.1112958E+005  0.1043930E+01  0.7957747E-01            NaN
         13   -1    0    0    0    0  0.00000000000E+00  0.00000000000E+00  0.74505805969E-08  0.10566000000E+00  0.10566000000E+00 0. -1.
     999900   -1    0    0    0    0 -0.00000000000E+00 -0.00000000000E+00 -0.74505805969E-08  0.93827000000E+00  0.93827000000E+00 0. -1.
     999902    2    1    2    0    0 -0.15641632116E-01 -0.11518827461E-01 -0.12937964195E-01  0.10205904422E+01  0.10203235348E+01 0.  0.
     999903    2    3    3    0    0 -0.35295536001E-01  0.84129596636E-02 -0.12608407012E+00  0.13290491602E+00  0.21212524909E-01 0.  0.
         14    1    1    2    0    0  0.15641632116E-01  0.11518827461E-01  0.12937964195E-01  0.23339557811E-01  0.00000000000E+00 0. -1.
     999901    1    3    3    0    0  0.19653903885E-01 -0.19931787124E-01  0.11314610593E+00  0.88768552616E+00  0.88000000000E+00 0.  1.
        -11    1    4    4    0    0 -0.36104885828E-01  0.11935979867E-01 -0.10926305907E+00  0.11569229704E+00  0.51100000000E-03 0. -1.
         11    1    4    4    0    0  0.80934982736E-03 -0.35230202031E-02 -0.16821011048E-01  0.17212618981E-01  0.51100000000E-03 0.  1.
</event>
<event>
 8    1  0.1112958E+005  0.1043930E+01  0.7957747E-01            NaN
         13   -1    0    0    0    0  0.00000000000E+00  0.00000000000E+00  0.74505805969E-08  0.10566000000E+00  0.10566000000E+00 0.  1.
     999900   -1    0    0    0    0 -0.00000000000E+00 -0.00000000000E+00 -0.74505805969E-08  0.93827000000E+00  0.93827000000E+00 0. -1.
     999902    2    1    2    0    0 -0.38658398172E-02 -0.18389567342E-01  0.17006523484E-01  0.10185855184E+01  0.10182701585E+01 0.  0.
     999903    2    3    3    0    0  0.89469513057E-01 -0.61805112611E-01 -0.65436165572E-01  0.12875789769E+00  0.21726452587E-01 0.  0.
         14    1    1    2    0    0  0.38658398172E-02  0.18389567342E-01 -0.17006523484E-01  0.25344481559E-01  0.00000000000E+00 0. -1.
     999901    1    3    3    0    0 -0.93335352874E-01  0.43415545269E-01  0.82442689055E-01  0.88982762075E+00  0.88000000000E+00 0.  1.
        -11    1    4    4    0    0  0.56278412024E-01 -0.46298319424E-01 -0.52829979913E-01  0.90011454494E-01  0.51100000000E-03 0. -1.
         11    1    4    4    0    0  0.33191101033E-01 -0.15506793187E-01 -0.12606185658E-01  0.38746443199E-01  0.51100000000E-03 0.  1.
</event>
<event>
 8    1  0.1112958E+005  0.1043930E+01  0.7957747E-01            NaN
         13   -1    0    0    0    0  0.00000000000E+00  0.00000000000E+00  0.74505805969E-08  0.10566000000E+00  0.10566000000E+00 0. -1.
     999900   -1    0    0    0    0 -0.00000000000E+00 -0.00000000000E+00 -0.74505805969E-08  0.93827000000E+00  0.93827000000E+00 0. -1.
     999902    2    1    2    0    0  0.88190566172E-03  0.68282279057E-02  0.22671404173E-01  0.10202362240E+01  0.10199610570E+01 0.  0.
     999903    2    3    3    0    0 -0.71987231722E-01 -0.10111407560E+00  0.35241692375E-01  0.13056242748E+00  0.19958776807E-01 0.  0.
         14    1    1    2    0    0 -0.88190566172E-03 -0.68282279057E-02 -0.22671404173E-01  0.23693776000E-01  0.00000000000E+00 0.  1.
     999901    1    3    3    0    0  0.72869137384E-01  0.10794230351E+00 -0.12570288201E-01  0.88967379652E+00  0.88000000000E+00 0. -1.
        -11    1    4    4    0    0 -0.60507483885E-01 -0.94647064090E-01  0.29268745078E-01  0.11608679040E+00  0.51100000000E-03 0. -1.
         11    1    4    4    0    0 -0.11479747837E-01 -0.64670115144E-02  0.59729472969E-02  0.14475637075E-01  0.51100000000E-03 0.  1.
</event>
<event>
 8    1  0.1112958E+005  0.1043930E+01  0.7957747E-01            NaN
         13   -1    0    0    0    0  0.00000000000E+00  0.00000000000E+00  0.74505805969E-08  0.10566000000E+00  0.10566000000E+00 0. -1.
     999900   -1    0    0    0    0 -0.00000000000E+00 -0.00000000000E+00 -0.74505805969E-08  0.93827000000E+00  0.93827000000E+00 0.  1.
     999902    2    1    2    0    0 -0.13926664048E-01 -0.14093722888E-01  0.68228486580E-02  0.10229744217E+01  0.10227597622E+01 0.  0.
     999903    2    3    3    0    0 -0.73553015881E-01 -0.16428437554E-01  0.11022286203E+00  0.13491343538E+00  0.19303264700E-01 0.  0.
         14    1    1    2    0    0  0.13926664048E-01  0.14093722888E-01 -0.68228486580E-02  0.20955578259E-01  0.00000000000E+00 0.  1.
     999901    1    3    3    0    0  0.59626351833E-01  0.23347146661E-02 -0.10340001337E+00  0.88806098636E+00  0.88000000000E+00 0.  1.
        -11    1    4    4    0    0 -0.62050994883E-01 -0.85092030556E-02  0.79882011803E-01  0.10150925787E+00  0.51100000000E-03 0. -1.
         11    1    4    4    0    0 -0.11502020998E-01 -0.79192344987E-02  0.30340850224E-01  0.33404177514E-01  0.51100000000E-03 0.  1.
</event>
<event>
 8    1  0.1112958E+005  0.1043930E+01  0.7957747E-01            NaN
         13   -1    0    0    0    0  0.00000000000E+00  0.00000000000E+00  0.74505805969E-08  0.10566000000E+00  0.10566000000E+00 0. -1.
     999900   -1    0    0    0    0 -0.00000000000E+00 -0.00000000000E+00 -0.74505805969E-08  0.93827000000E+00  0.93827000000E+00 0. -1.
     999902    2    1    2    0    0  0.21119711592E-01 -0.10782429712E-01 -0.16921883133E-02  0.10201567691E+01  0.10198797316E+01 0.  0.
     999903    2    3    3    0    0 -0.23712320951E-01 -0.11760191963E-01  0.12533129174E+00  0.12990633707E+00  0.21613593937E-01 0.  0.
         14    1    1    2    0    0 -0.21119711592E-01  0.10782429712E-01  0.16921883133E-02  0.23773230943E-01  0.00000000000E+00 0. -1.
     999901    1    3    3    0    0  0.44832032543E-01  0.97776225121E-03 -0.12702348005E+00  0.89025043198E+00  0.88000000000E+00 0. -1.
        -11    1    4    4    0    0 -0.55093663107E-02 -0.79875208961E-02  0.84290727793E-01  0.84848933524E-01  0.51100000000E-03 0. -1.
         11    1    4    4    0    0 -0.18202954641E-01 -0.37726710666E-02  0.41040563946E-01  0.45057403550E-01  0.51100000000E-03 0.  1.
</event>
<event>
 8    1  0.1112958E+005  0.1043930E+01  0.7957747E-01            NaN
         13   -1    0    0    0    0  0.00000000000E+00  0.00000000000E+00  0.74505805969E-08  0.10566000000E+00  0.10566000000E+00 0. -1.
     999900   -1    0    0    0    0 -0.00000000000E+00 -0.00000000000E+00 -0.74505805969E-08  0.93827000000E+00  0.93827000000E+00 0.  1.
     999902    2    1    2    0    0 -0.14651900690E-01 -0.16918164581E-01 -0.73318061775E-02  0.10203788245E+01  0.10201069981E+01 0.  0.
     999903    2    3    3    0    0 -0.12071664884E-01 -0.49263114752E-01  0.11911951436E+00  0.13074812026E+00  0.18249183030E-01 0.  0.
         14    1    1    2    0    0  0.14651900690E-01  0.16918164581E-01  0.73318061775E-02  0.23551175521E-01  0.00000000000E+00 0. -1.
     999901    1    3    3    0    0 -0.25802358055E-02  0.32344950171E-01 -0.12645132054E+00  0.88963070422E+00  0.88000000000E+00 0.  1.
        -11    1    4    4    0    0 -0.55018368194E-02 -0.38481029863E-01  0.70444468275E-01  0.80459580532E-01  0.51100000000E-03 0.  1.
         11    1    4    4    0    0 -0.65698280649E-02 -0.10782084889E-01  0.48675046090E-01  0.50288539730E-01  0.51100000000E-03 0. -1.
</event>
<event>
 8    1  0.1112958E+005  0.1043930E+01  0.7957747E-01            NaN
         13   -1    0    0    0    0  0.00000000000E+00  0.00000000000E+00  0.74505805969E-08  0.10566000000E+00  0.10566000000E+00 0.  1.
     999900   -1    0    0    0    0 -0.00000000000E+00 -0.00000000000E+00 -0.74505805969E-08  0.93827000000E+00  0.93827000000E+00 0. -1.
     999902    2    1    2    0    0  0.21365012035E-01 -0.24891373189E-01 -0.18426012796E-01  0.10063060429E+01  0.10056024512E+01 0.  0.
     999903    2    3    3    0    0 -0.81473937942E-01  0.42325997004E-01 -0.68616291236E-01  0.11635487093E+00  0.20019190275E-01 0.  0.
         14    1    1    2    0    0 -0.21365012035E-01  0.24891373189E-01  0.18426012796E-01  0.37623957076E-01  0.00000000000E+00 0.  1.
     999901    1    3    3    0    0  0.10283894998E+00 -0.67217370193E-01  0.50190278440E-01  0.88995117200E+00  0.88000000000E+00 0.  1.
        -11    1    4    4    0    0 -0.79621300850E-01  0.38316357645E-01 -0.60465723746E-01  0.10707034922E+00  0.51100000000E-03 0.  1.
         11    1    4    4    0    0 -0.18526370924E-02  0.40096393588E-02 -0.81505674902E-02  0.92845217106E-02  0.51100000000E-03 0. -1.
</event>
<event>
 8    1  0.1112958E+005  0.1043930E+01  0.7957747E-01            NaN
         13   -1    0    0    0    0  0.00000000000E+00  0.00000000000E+00  0.74505805969E-08  0.10566000000E+00  0.10566000000E+00 0. -1.
     999900   -1    0    0    0    0 -0.00000000000E+00 -0.00000000000E+00 -0.74505805969E-08  0.93827000000E+00  0.93827000000E+00 0. -1.
     999902    2    1    2    0    0 -0.14248567251E-01 -0.11450739835E-01  0.12769933519E-01  0.10216317419E+01  0.10213883707E+01 0.  0.
     999903    2    3    3    0    0  0.47656468939E-01  0.89989346937E-01  0.80132513142E-01  0.13109255589E+00  0.19870001359E-01 0.  0.
         14    1    1    2    0    0  0.14248567251E-01  0.11450739835E-01 -0.12769933519E-01  0.22298258084E-01  0.00000000000E+00 0.  1.
     999901    1    3    3    0    0 -0.61905036190E-01 -0.10144008677E+00 -0.67362579623E-01  0.89053918602E+00  0.88000000000E+00 0. -1.
        -11    1    4    4    0    0  0.36000694967E-01  0.49229075591E-01  0.41835852913E-01  0.73959797401E-01  0.51100000000E-03 0.  1.
         11    1    4    4    0    0  0.11655773971E-01  0.40760271346E-01  0.38296660230E-01  0.57132758491E-01  0.51100000000E-03 0. -1.
</event>
<event>
 8    1  0.1112958E+005  0.1043930E+01  0.7957747E-01            NaN
         13   -1    0    0    0    0  0.00000000000E+00  0.00000000000E+00  0.74505805969E-08  0.10566000000E+00  0.10566000000E+00 0. -1.
     999900   -1    0    0    0    0 -0.00000000000E+00 -0.00000000000E+00 -0.74505805969E-08  0.93827000000E+00  0.93827000000E+00 0. -1.
     999902    2    1    2    0    0 -0.97669455667E-02 -0.10325396363E-01  0.12943886057E-01  0.10247062849E+01  0.10245259485E+01 0.  0.
     999903    2    3    3    0    0  0.21356050178E-01  0.81732462135E-01  0.10322033257E+00  0.13476632796E+00  0.19267844972E-01 0.  0.
         14    1    1    2    0    0  0.97669455667E-02  0.10325396363E-01 -0.12943886057E-01  0.19223715094E-01  0.00000000000E+00 0.  1.
     999901    1    3    3    0    0 -0.31122995745E-01 -0.92057858497E-01 -0.90276446513E-01  0.88993995695E+00  0.88000000000E+00 0. -1.
        -11    1    4    4    0    0  0.10809873299E-01  0.63324322235E-01  0.67256213583E-01  0.93007970270E-01  0.51100000000E-03 0.  1.
         11    1    4    4    0    0  0.10546176880E-01  0.18408139899E-01  0.35964118988E-01  0.41758357689E-01  0.51100000000E-03 0. -1.
</event>
<event>
 8    1  0.1112958E+005  0.1043930E+01  0.7957747E-01            NaN
         13   -1    0    0    0    0  0.00000000000E+00  0.00000000000E+00  0.74505805969E-08  0.10566000000E+00  0.10566000000E+00 0.  1.
     999900   -1    0    0    0    0 -0.00000000000E+00 -0.00000000000E+00 -0.74505805969E-08  0.93827000000E+00  0.93827000000E+00 0.  1.
     999902    2    1    2    0    0  0.20103554464E-01 -0.51743185907E-02  0.87820676625E-02  0.10213900092E+01  0.10211412731E+01 0.  0.
     999903    2    3    3    0    0  0.74657290451E-01  0.10642346313E+00  0.17157112413E-01  0.13262664561E+00  0.19894624840E-01 0.  0.
         14    1    1    2    0    0 -0.20103554464E-01  0.51743185907E-02 -0.87820676625E-02  0.22539990847E-01  0.00000000000E+00 0.  1.
     999901    1    3    3    0    0 -0.54553735987E-01 -0.11159778172E+00 -0.83750447507E-02  0.88876336354E+00  0.88000000000E+00 0. -1.
        -11    1    4    4    0    0  0.17794126516E-01  0.19967347691E-01  0.11119743360E-01  0.28969565507E-01  0.51100000000E-03 0.  1.
         11    1    4    4    0    0  0.56863163936E-01  0.86456115442E-01  0.60373690532E-02  0.10365708011E+00  0.51100000000E-03 0. -1.
</event>
<event>
 8    1  0.1112958E+005  0.1043930E+01  0.7957747E-01            NaN
         13   -1    0    0    0    0  0.00000000000E+00  0.00000000000E+00  0.74505805969E-08  0.10566000000E+00  0.10566000000E+00 0. -1.
     999900   -1    0    0    0    0 -0.00000000000E+00 -0.00000000000E+00 -0.74505805969E-08  0.93827000000E+00  0.93827000000E+00 0. -1.
     999902    2    1    2    0    0  0.21907672125E-01 -0.72908739205E-03  0.97339491131E-02  0.10199461006E+01  0.10196640724E+01 0.  0.
     999903    2    3    3    0    0  0.11437576058E+00  0.46690885108E-01  0.45603699885E-01  0.13310584427E+00  0.19380788843E-01 0.  0.
         14    1    1    2    0    0 -0.21907672125E-01  0.72908739205E-03 -0.97339491131E-02  0.23983899427E-01  0.00000000000E+00 0.  1.
     999901    1    3    3    0    0 -0.92468088454E-01 -0.47419972500E-01 -0.35869750772E-01  0.88684025630E+00  0.88000000000E+00 0.  1.
        -11    1    4    4    0    0  0.46898526016E-01  0.11958482543E-01  0.10696503933E-01  0.49569681909E-01  0.51100000000E-03 0.  1.
         11    1    4    4    0    0  0.67477234564E-01  0.34732402564E-01  0.34907195952E-01  0.83536162364E-01  0.51100000000E-03 0. -1.
</event>
<event>
 8    1  0.1112958E+005  0.1043930E+01  0.7957747E-01            NaN
         13   -1    0    0    0    0  0.00000000000E+00  0.00000000000E+00  0.74505805969E-08  0.10566000000E+00  0.10566000000E+00 0. -1.
     999900   -1    0    0    0    0 -0.00000000000E+00 -0.00000000000E+00 -0.74505805969E-08  0.93827000000E+00  0.93827000000E+00 0.  1.
     999902    2    1    2    0    0 -0.21953453994E-01 -0.93542089795E-02  0.34000693191E-03  0.10200643139E+01  0.10197850918E+01 0.  0.
     999903    2    3    3    0    0 -0.44442775139E-01  0.52009743589E-01 -0.10956451784E+00  0.13082289067E+00  0.20738164408E-01 0.  0.
         14    1    1    2    0    0  0.21953453994E-01  0.93542089795E-02 -0.34000693191E-03  0.23865686092E-01  0.00000000000E+00 0. -1.
     999901    1    3    3    0    0  0.22489321145E-01 -0.61363952569E-01  0.10990452477E+00  0.88924142324E+00  0.88000000000E+00 0. -1.
        -11    1    4    4    0    0 -0.38549416699E-01  0.52826431847E-01 -0.10231957987E+00  0.12143412608E+00  0.51100000000E-03 0.  1.
         11    1    4    4    0    0 -0.58933584404E-02 -0.81668825810E-03 -0.72449379674E-02  0.93887645923E-02  0.51100000000E-03 0. -1.
</event>
<event>
 8    1  0.1112958E+005  0.1043930E+01  0.7957747E-01            NaN
         13   -1    0    0    0    0  0.00000000000E+00  0.00000000000E+00  0.74505805969E-08  0.10566000000E+00  0.10566000000E+00 0. -1.
     999900   -1    0    0    0    0 -0.00000000000E+00 -0.00000000000E+00 -0.74505805969E-08  0.93827000000E+00  0.93827000000E+00 0.  1.
     999902    2    1    2    0    0  0.17272880238E-01  0.11835755962E-01  0.11672434679E-01  0.10199574481E+01  0.10196756900E+01 0.  0.
     999903    2    3    3    0    0  0.29243045061E-01  0.80875919191E-02  0.12722273015E+00  0.13231495009E+00  0.20026435605E-01 0.  0.
         14    1    1    2    0    0 -0.17272880238E-01 -0.11835755962E-01 -0.11672434679E-01  0.23972551851E-01  0.00000000000E+00 0.  1.
     999901    1    3    3    0    0 -0.11970164823E-01  0.37481640432E-02 -0.11555029547E+00  0.88764249806E+00  0.88000000000E+00 0.  1.
        -11    1    4    4    0    0  0.28259485482E-01  0.50455698933E-03  0.10752676444E+00  0.11118057065E+00  0.51100000000E-03 0.  1.
         11    1    4    4    0    0  0.98355957860E-03  0.75830349297E-02  0.19695965711E-01  0.21134379444E-01  0.51100000000E-03 0. -1.
</event>
<event>
 8    1  0.1112958E+005  0.1043930E+01  0.7957747E-01            NaN
         13   -1    0    0    0    0  0.00000000000E+00  0.00000000000E+00  0.74505805969E-08  0.10566000000E+00  0.10566000000E+00 0. -1.
     999900   -1    0    0    0    0 -0.00000000000E+00 -0.00000000000E+00 -0.74505805969E-08  0.93827000000E+00  0.93827000000E+00 0.  1.
     999902    2    1    2    0    0  0.97805949188E-02 -0.13841826014E-01 -0.13271751995E-01  0.10224033750E+01  0.10221767291E+01 0.  0.
     999903    2    3    3    0    0 -0.25103679345E-01 -0.10327719188E+00  0.76716264013E-01  0.13262056985E+00  0.20160786272E-01 0.  0.
         14    1    1    2    0    0 -0.97805949188E-02  0.13841826014E-01  0.13271751995E-01  0.21526625035E-01  0.00000000000E+00 0. -1.
     999901    1    3    3    0    0  0.34884274264E-01  0.89435365867E-01 -0.89988016007E-01  0.88978280512E+00  0.88000000000E+00 0.  1.
        -11    1    4    4    0    0 -0.57959424500E-02 -0.20889674718E-01  0.26422834713E-01  0.34181848604E-01  0.51100000000E-03 0. -1.
         11    1    4    4    0    0 -0.19307736895E-01 -0.82387517163E-01  0.50293429299E-01  0.98438721243E-01  0.51100000000E-03 0.  1.
</event>
<event>
 8    1  0.1112958E+005  0.1043930E+01  0.7957747E-01            NaN
         13   -1    0    0    0    0  0.00000000000E+00  0.00000000000E+00  0.74505805969E-08  0.10566000000E+00  0.10566000000E+00 0. -1.
     999900   -1    0    0    0    0 -0.00000000000E+00 -0.00000000000E+00 -0.74505805969E-08  0.93827000000E+00  0.93827000000E+00 0.  1.
     999902    2    1    2    0    0  0.18145090697E-01 -0.22274175990E-02  0.46459298232E-02  0.10250675938E+01  0.10248940342E+01 0.  0.
     999903    2    3    3    0    0  0.13403210029E+00 -0.12035769729E-01  0.17609368153E-01  0.13732097816E+00  0.20916441741E-01 0.  0.
         14    1    1    2    0    0 -0.18145090697E-01  0.22274175990E-02 -0.46459298232E-02  0.18862406248E-01  0.00000000000E+00 0.  1.
     999901    1    3    3    0    0 -0.11588700959E+00  0.98083521303E-02 -0.12963438330E-01  0.88774661559E+00  0.88000000000E+00 0.  1.
        -11    1    4    4    0    0  0.59134064009E-01  0.17975233064E-02  0.81319671896E-04  0.59163640440E-01  0.51100000000E-03 0. -1.
         11    1    4    4    0    0  0.74898036279E-01 -0.13833293036E-01  0.17528048482E-01  0.78157337718E-01  0.51100000000E-03 0.  1.
</event>
<event>
 8    1  0.1112958E+005  0.1043930E+01  0.7957747E-01            NaN
         13   -1    0    0    0    0  0.00000000000E+00  0.00000000000E+00  0.74505805969E-08  0.10566000000E+00  0.10566000000E+00 0.  1.
     999900   -1    0    0    0    0 -0.00000000000E+00 -0.00000000000E+00 -0.74505805969E-08  0.93827000000E+00  0.93827000000E+00 0.  1.
     999902    2    1    2    0    0 -0.14547624217E-01 -0.46264593833E-02 -0.21468046814E-01  0.10175877425E+01  0.10172467248E+01 0.  0.
     999903    2    3    3    0    0 -0.10133684302E+00 -0.42889815859E-01  0.62855996828E-01  0.12848313825E+00  0.21174239502E-01 0.  0.
         14    1    1    2    0    0  0.14547624217E-01  0.46264593833E-02  0.21468046814E-01  0.26342257511E-01  0.00000000000E+00 0.  1.
     999901    1    3    3    0    0  0.86789218805E-01  0.38263356476E-01 -0.84324043641E-01  0.88910460424E+00  0.88000000000E+00 0.  1.
        -11    1    4    4    0    0 -0.40769359847E-01 -0.89883973955E-02  0.31584347503E-01  0.52352307669E-01  0.51100000000E-03 0. -1.
         11    1    4    4    0    0 -0.60567483175E-01 -0.33901418463E-01  0.31271649325E-01  0.76130830578E-01  0.51100000000E-03 0.  1.
</event>
