<event>
 8    1  0.1101883E+005  0.1043930E+01  0.7957747E-01            NaN
         13   -1    0    0    0    0  0.00000000000E+00  0.00000000000E+00  0.74505805969E-08  0.10566000000E+00  0.10566000000E+00 0. -1.
     999900   -1    0    0    0    0 -0.00000000000E+00 -0.00000000000E+00 -0.74505805969E-08  0.93827000000E+00  0.93827000000E+00 0. -1.
     999902    2    1    2    0    0 -0.35115916782E-02 -0.68357418021E-02  0.20471373984E-01  0.10220636836E+01  0.10218297497E+01 0.  0.
     999903    2    3    3    0    0  0.79946180725E-01  0.97277520785E-01  0.33472881820E-01  0.13190987076E+00  0.20626980507E-01 0.  0.
         14    1    1    2    0    0  0.35115916782E-02  0.68357418021E-02 -0.20471373984E-01  0.21866316446E-01  0.00000000000E+00 0.  1.
     999901    1    3    3    0    0 -0.83457772403E-01 -0.10411326259E+00 -0.13001507835E-01  0.89015381279E+00  0.88000000000E+00 0.  1.
        -11    1    4    4    0    0  0.26739477240E-01  0.18997761409E-01  0.11290261425E-01  0.34693597474E-01  0.51100000000E-03 0. -1.
         11    1    4    4    0    0  0.53206703484E-01  0.78279759376E-01  0.22182620395E-01  0.97216273289E-01  0.51100000000E-03 0.  1.
</event>
<event>
 8    1  0.1101883E+005  0.1043930E+01  0.7957747E-01            NaN
         13   -1    0    0    0    0  0.00000000000E+00  0.00000000000E+00  0.74505805969E-08  0.10566000000E+00  0.10566000000E+00 0.  1.
     999900   -1    0    0    0    0 -0.00000000000E+00 -0.00000000000E+00 -0.74505805969E-08  0.93827000000E+00  0.93827000000E+00 0. -1.
     999902    2    1    2    0    0 -0.15314460635E-01  0.17752704379E-01 -0.26279528158E-02  0.10203376844E+01  0.10200648964E+01 0.  0.
     999903    2    3    3    0    0  0.92140770376E-01 -0.81895403333E-01  0.26973909971E-01  0.12772766751E+00  0.19748077807E-01 0.  0.
         14    1    1    2    0    0  0.15314460635E-01 -0.17752704379E-01  0.26279528158E-02  0.23592315556E-01  0.00000000000E+00 0. -1.
     999901    1    3    3    0    0 -0.10745523101E+00  0.99648107711E-01 -0.29601862787E-01  0.89261001693E+00  0.88000000000E+00 0.  1.
        -11    1    4    4    0    0  0.34441784819E-01 -0.35294538142E-01  0.20045440705E-01  0.53235531163E-01  0.51100000000E-03 0. -1.
         11    1    4    4    0    0  0.57698985557E-01 -0.46600865191E-01  0.69284692664E-02  0.74492136351E-01  0.51100000000E-03 0.  1.
</event>
<event>
 8    1  0.1101883E+005  0.1043930E+01  0.7957747E-01            NaN
         13   -1    0    0    0    0  0.00000000000E+00  0.00000000000E+00  0.74505805969E-08  0.10566000000E+00  0.10566000000E+00 0.  1.
     999900   -1    0    0    0    0 -0.00000000000E+00 -0.00000000000E+00 -0.74505805969E-08  0.93827000000E+00  0.93827000000E+00 0. -1.
     999902    2    1    2    0    0  0.11182767643E-01 -0.11171189887E-01  0.17589352890E-01  0.10202818476E+01  0.10200077517E+01 0.  0.
     999903    2    3    3    0    0  0.12450367840E-01  0.12520502192E+00  0.25788800966E-01  0.12973858146E+00  0.18322884388E-01 0.  0.
         14    1    1    2    0    0 -0.11182767643E-01  0.11171189887E-01 -0.17589352890E-01  0.23648152375E-01  0.00000000000E+00 0. -1.
     999901    1    3    3    0    0 -0.12676001962E-02 -0.13637621180E+00 -0.81994480759E-02  0.89054326616E+00  0.88000000000E+00 0. -1.
        -11    1    4    4    0    0  0.14281366383E-01  0.82049174599E-01  0.23238461454E-01  0.86465667695E-01  0.51100000000E-03 0.  1.
         11    1    4    4    0    0 -0.18309985437E-02  0.43155847318E-01  0.25503395120E-02  0.43272913769E-01  0.51100000000E-03 0. -1.
</event>
<event>
 8    1  0.1101883E+005  0.1043930E+01  0.7957747E-01            NaN
         13   -1    0    0    0    0  0.00000000000E+00  0.00000000000E+00  0.74505805969E-08  0.10566000000E+00  0.10566000000E+00 0.  1.
     999900   -1    0    0    0    0 -0.00000000000E+00 -0.00000000000E+00 -0.74505805969E-08  0.93827000000E+00  0.93827000000E+00 0. -1.
     999902    2    1    2    0    0 -0.91757392932E-02  0.12274874871E-01  0.10697175656E-02  0.10285673492E+01  0.10284526147E+01 0.  0.
     999903    2    3    3    0    0 -0.63921393208E-01 -0.10691963026E+00  0.54415311669E-01  0.13724800736E+00  0.18927164001E-01 0.  0.
         14    1    1    2    0    0  0.91757392932E-02 -0.12274874871E-01 -0.10697175656E-02  0.15362650824E-01  0.00000000000E+00 0.  1.
     999901    1    3    3    0    0  0.54745653915E-01  0.11919450513E+00 -0.53345594104E-01  0.89131934181E+00  0.88000000000E+00 0. -1.
        -11    1    4    4    0    0 -0.50215807041E-01 -0.94475428640E-01  0.50533209886E-01  0.11832624525E+00  0.51100000000E-03 0. -1.
         11    1    4    4    0    0 -0.13705586167E-01 -0.12444201619E-01  0.38821017832E-02  0.18921762111E-01  0.51100000000E-03 0.  1.
</event>
<event>
 8    1  0.1101883E+005  0.1043930E+01  0.7957747E-01            NaN
         13   -1    0    0    0    0  0.00000000000E+00  0.00000000000E+00  0.74505805969E-08  0.10566000000E+00  0.10566000000E+00 0.  1.
     999900   -1    0    0    0    0 -0.00000000000E+00 -0.00000000000E+00 -0.74505805969E-08  0.93827000000E+00  0.93827000000E+00 0.  1.
     999902    2    1    2    0    0 -0.70816928057E-02  0.20637191473E-02  0.22076905757E-01  0.10206534221E+01  0.10203879699E+01 0.  0.
     999903    2    3    3    0    0  0.80237665784E-01  0.18908510215E-01 -0.96366174616E-01  0.12827615849E+00  0.19305917673E-01 0.  0.
         14    1    1    2    0    0  0.70816928057E-02 -0.20637191473E-02 -0.22076905757E-01  0.23276577874E-01  0.00000000000E+00 0. -1.
     999901    1    3    3    0    0 -0.87319358590E-01 -0.16844791068E-01  0.11844308037E+00  0.89237726364E+00  0.88000000000E+00 0. -1.
        -11    1    4    4    0    0  0.75899382490E-01  0.12553214455E-01 -0.88408619283E-01  0.11719489980E+00  0.51100000000E-03 0. -1.
         11    1    4    4    0    0  0.43382832944E-02  0.63552957605E-02 -0.79575553330E-02  0.11081258684E-01  0.51100000000E-03 0.  1.
</event>
<event>
 8    1  0.1101883E+005  0.1043930E+01  0.7957747E-01            NaN
         13   -1    0    0    0    0  0.00000000000E+00  0.00000000000E+00  0.74505805969E-08  0.10566000000E+00  0.10566000000E+00 0. -1.
     999900   -1    0    0    0    0 -0.00000000000E+00 -0.00000000000E+00 -0.74505805969E-08  0.93827000000E+00  0.93827000000E+00 0.  1.
     999902    2    1    2    0    0 -0.60719212129E-02 -0.58729664624E-02  0.24074349593E-01  0.10184165865E+01  0.10180969548E+01 0.  0.
     999903    2    3    3    0    0  0.87374827303E-01 -0.66940280250E-01  0.66998090660E-01  0.13032652393E+00  0.19516585776E-01 0.  0.
         14    1    1    2    0    0  0.60719212129E-02  0.58729664624E-02 -0.24074349593E-01  0.25513413542E-01  0.00000000000E+00 0.  1.
     999901    1    3    3    0    0 -0.93446748515E-01  0.61067313787E-01 -0.42923741067E-01  0.88809006253E+00  0.88000000000E+00 0.  1.
        -11    1    4    4    0    0  0.50050895221E-01 -0.48422328821E-01  0.36031421420E-01  0.78411341599E-01  0.51100000000E-03 0.  1.
         11    1    4    4    0    0  0.37323932082E-01 -0.18517951429E-01  0.30966669239E-01  0.51915182326E-01  0.51100000000E-03 0. -1.
</event>
<event>
 8    1  0.1101883E+005  0.1043930E+01  0.7957747E-01            NaN
         13   -1    0    0    0    0  0.00000000000E+00  0.00000000000E+00  0.74505805969E-08  0.10566000000E+00  0.10566000000E+00 0.  1.
     999900   -1    0    0    0    0 -0.00000000000E+00 -0.00000000000E+00 -0.74505805969E-08  0.93827000000E+00  0.93827000000E+00 0.  1.
     999902    2    1    2    0    0 -0.64908427542E-02 -0.12585771600E-01  0.17333599482E-01  0.10215472755E+01  0.10213020365E+01 0.  0.
     999903    2    3    3    0    0  0.50744117326E-01 -0.10797975243E+00 -0.52294946763E-01  0.13181473887E+00  0.20143771911E-01 0.  0.
         14    1    1    2    0    0  0.64908427542E-02  0.12585771600E-01 -0.17333599482E-01  0.22382724531E-01  0.00000000000E+00 0. -1.
     999901    1    3    3    0    0 -0.57234960081E-01  0.95393980834E-01  0.69628546245E-01  0.88973253660E+00  0.88000000000E+00 0.  1.
        -11    1    4    4    0    0  0.84266333036E-02 -0.31895379208E-01 -0.72140587561E-02  0.33773171725E-01  0.51100000000E-03 0.  1.
         11    1    4    4    0    0  0.42317484023E-01 -0.76084373227E-01 -0.45080888006E-01  0.98041567142E-01  0.51100000000E-03 0. -1.
</event>
<event>
 8    1  0.1101883E+005  0.1043930E+01  0.7957747E-01            NaN
         13   -1    0    0    0    0  0.00000000000E+00  0.00000000000E+00  0.74505805969E-08  0.10566000000E+00  0.10566000000E+00 0.  1.
     999900   -1    0    0    0    0 -0.00000000000E+00 -0.00000000000E+00 -0.74505805969E-08  0.93827000000E+00  0.93827000000E+00 0. -1.
     999902    2    1    2    0    0 -0.47424821528E-02 -0.18613055025E-01  0.13999419243E-01  0.10201619396E+01  0.10198850241E+01 0.  0.
     999903    2    3    3    0    0  0.66065468027E-02 -0.12361274492E+00 -0.42739672731E-01  0.13203297384E+00  0.16800874608E-01 0.  0.
         14    1    1    2    0    0  0.47424821528E-02  0.18613055025E-01 -0.13999419243E-01  0.23768060364E-01  0.00000000000E+00 0. -1.
     999901    1    3    3    0    0 -0.11349028955E-01  0.10499968989E+00  0.56739091974E-01  0.88812896580E+00  0.88000000000E+00 0.  1.
        -11    1    4    4    0    0  0.68033602403E-02 -0.89962708443E-01 -0.38575313672E-01  0.98121814939E-01  0.51100000000E-03 0. -1.
         11    1    4    4    0    0 -0.19681343765E-03 -0.33650036475E-01 -0.41643590597E-02  0.33911158896E-01  0.51100000000E-03 0.  1.
</event>
<event>
 8    1  0.1101883E+005  0.1043930E+01  0.7957747E-01            NaN
         13   -1    0    0    0    0  0.00000000000E+00  0.00000000000E+00  0.74505805969E-08  0.10566000000E+00  0.10566000000E+00 0.  1.
     999900   -1    0    0    0    0 -0.00000000000E+00 -0.00000000000E+00 -0.74505805969E-08  0.93827000000E+00  0.93827000000E+00 0.  1.
     999902    2    1    2    0    0  0.88731879856E-02 -0.17326169492E-01 -0.13103873268E-01  0.10204642567E+01  0.10201944217E+01 0.  0.
     999903    2    3    3    0    0 -0.26466468118E-01  0.74335807509E-01  0.98777525306E-01  0.12795753029E+00  0.19744463543E-01 0.  0.
         14    1    1    2    0    0 -0.88731879856E-02  0.17326169492E-01  0.13103873268E-01  0.23465743306E-01  0.00000000000E+00 0.  1.
     999901    1    3    3    0    0  0.35339656104E-01 -0.91661977001E-01 -0.11188139857E+00  0.89250672640E+00  0.88000000000E+00 0.  1.
        -11    1    4    4    0    0 -0.27477502846E-01  0.63212127927E-01  0.91729437378E-01  0.11474030278E+00  0.51100000000E-03 0.  1.
         11    1    4    4    0    0  0.10110347279E-02  0.11123679583E-01  0.70480879282E-02  0.13217227513E-01  0.51100000000E-03 0. -1.
</event>
<event>
 8    1  0.1101883E+005  0.1043930E+01  0.7957747E-01            NaN
         13   -1    0    0    0    0  0.00000000000E+00  0.00000000000E+00  0.74505805969E-08  0.10566000000E+00  0.10566000000E+00 0.  1.
     999900   -1    0    0    0    0 -0.00000000000E+00 -0.00000000000E+00 -0.74505805969E-08  0.93827000000E+00  0.93827000000E+00 0.  1.
     999902    2    1    2    0    0  0.15338865615E-01  0.33313293045E-02 -0.16868108832E-01  0.10208884799E+01  0.10206284225E+01 0.  0.
     999903    2    3    3    0    0 -0.16835533456E-01  0.47042961089E-01 -0.12159333072E+00  0.13301840448E+00  0.20309664726E-01 0.  0.
         14    1    1    2    0    0 -0.15338865615E-01 -0.33313293045E-02  0.16868108832E-01  0.23041520108E-01  0.00000000000E+00 0. -1.
     999901    1    3    3    0    0  0.32174399071E-01 -0.43711631785E-01  0.10472522189E+00  0.88787007541E+00  0.88000000000E+00 0. -1.
        -11    1    4    4    0    0 -0.72031283961E-02  0.21817698385E-01 -0.81495019609E-01  0.84673469065E-01  0.51100000000E-03 0.  1.
         11    1    4    4    0    0 -0.96324050598E-02  0.25225262704E-01 -0.40098311109E-01  0.48344935417E-01  0.51100000000E-03 0. -1.
</event>
<event>
 8    1  0.1101883E+005  0.1043930E+01  0.7957747E-01            NaN
         13   -1    0    0    0    0  0.00000000000E+00  0.00000000000E+00  0.74505805969E-08  0.10566000000E+00  0.10566000000E+00 0. -1.
     999900   -1    0    0    0    0 -0.00000000000E+00 -0.00000000000E+00 -0.74505805969E-08  0.93827000000E+00  0.93827000000E+00 0.  1.
     999902    2    1    2    0    0 -0.49207779091E-03 -0.63461391360E-02  0.76053631165E-02  0.10340124816E+01  0.10339649196E+01 0.  0.
     999903    2    3    3    0    0  0.29168444847E-01 -0.62780344672E-01  0.12466163588E+00  0.14397498964E+00  0.19902369929E-01 0.  0.
         14    1    1    2    0    0  0.49207779091E-03  0.63461391360E-02 -0.76053631165E-02  0.99175183700E-02  0.00000000000E+00 0.  1.
     999901    1    3    3    0    0 -0.29660522638E-01  0.56434205536E-01 -0.11705627276E+00  0.89003749199E+00  0.88000000000E+00 0.  1.
        -11    1    4    4    0    0  0.22499009391E-01 -0.24966987427E-01  0.59726207964E-01  0.68534932140E-01  0.51100000000E-03 0.  1.
         11    1    4    4    0    0  0.66694354557E-02 -0.37813357245E-01  0.64935427917E-01  0.75440057498E-01  0.51100000000E-03 0. -1.
</event>
<event>
 8    1  0.1101883E+005  0.1043930E+01  0.7957747E-01            NaN
         13   -1    0    0    0    0  0.00000000000E+00  0.00000000000E+00  0.74505805969E-08  0.10566000000E+00  0.10566000000E+00 0.  1.
     999900   -1    0    0    0    0 -0.00000000000E+00 -0.00000000000E+00 -0.74505805969E-08  0.93827000000E+00  0.93827000000E+00 0.  1.
     999902    2    1    2    0    0  0.20082232713E-02 -0.23101838541E-01  0.44196934551E-02  0.10203236111E+01  0.10200504938E+01 0.  0.
     999903    2    3    3    0    0  0.35039391456E-01  0.11404634672E+00 -0.41554550790E-01  0.12790313069E+00  0.19952493492E-01 0.  0.
         14    1    1    2    0    0 -0.20082232713E-02  0.23101838541E-01 -0.44196934551E-02  0.23606388858E-01  0.00000000000E+00 0. -1.
     999901    1    3    3    0    0 -0.33031168185E-01 -0.13714818526E+00  0.45974244245E-01  0.89242048045E+00  0.88000000000E+00 0. -1.
        -11    1    4    4    0    0  0.35203206088E-02  0.41043192712E-01 -0.18099718817E-01  0.44997747359E-01  0.51100000000E-03 0. -1.
         11    1    4    4    0    0  0.31519070848E-01  0.73003154005E-01 -0.23454831973E-01  0.82905383333E-01  0.51100000000E-03 0.  1.
</event>
<event>
 8    1  0.1101883E+005  0.1043930E+01  0.7957747E-01            NaN
         13   -1    0    0    0    0  0.00000000000E+00  0.00000000000E+00  0.74505805969E-08  0.10566000000E+00  0.10566000000E+00 0. -1.
     999900   -1    0    0    0    0 -0.00000000000E+00 -0.00000000000E+00 -0.74505805969E-08  0.93827000000E+00  0.93827000000E+00 0. -1.
     999902    2    1    2    0    0 -0.20495426808E-01  0.10282997783E-01  0.90736668415E-02  0.10192696271E+01  0.10189712649E+01 0.  0.
     999903    2    3    3    0    0 -0.11411440371E+00  0.44140695743E-01  0.47670027440E-01  0.13281571647E+00  0.19926988506E-01 0.  0.
         14    1    1    2    0    0  0.20495426808E-01 -0.10282997783E-01 -0.90736668415E-02  0.24660372937E-01  0.00000000000E+00 0.  1.
     999901    1    3    3    0    0  0.93618976905E-01 -0.33857697960E-01 -0.38596360599E-01  0.88645391059E+00  0.88000000000E+00 0.  1.
        -11    1    4    4    0    0 -0.45911429148E-01  0.26371106588E-01  0.26583941840E-01  0.59247461328E-01  0.51100000000E-03 0.  1.
         11    1    4    4    0    0 -0.68202974565E-01  0.17769589154E-01  0.21086085600E-01  0.73568255145E-01  0.51100000000E-03 0. -1.
</event>
<event>
 8    1  0.1101883E+005  0.1043930E+01  0.7957747E-01            NaN
         13   -1    0    0    0    0  0.00000000000E+00  0.00000000000E+00  0.74505805969E-08  0.10566000000E+00  0.10566000000E+00 0.  1.
     999900   -1    0    0    0    0 -0.00000000000E+00 -0.00000000000E+00 -0.74505805969E-08  0.93827000000E+00  0.93827000000E+00 0.  1.
     999902    2    1    2    0    0 -0.16747474276E-01 -0.14411097820E-01  0.62071234583E-02  0.10209803591E+01  0.10207223950E+01 0.  0.
     999903    2    3    3    0    0  0.75595243803E-02 -0.92644896011E-03  0.13010254171E+00  0.13186690145E+00  0.20104815917E-01 0.  0.
         14    1    1    2    0    0  0.16747474276E-01  0.14411097820E-01 -0.62071234583E-02  0.22949640882E-01  0.00000000000E+00 0.  1.
     999901    1    3    3    0    0 -0.24306998656E-01 -0.13484648860E-01 -0.12389541825E+00  0.88911345767E+00  0.88000000000E+00 0.  1.
        -11    1    4    4    0    0  0.83788088258E-02 -0.90054394190E-02  0.57085716542E-01  0.58398138075E-01  0.51100000000E-03 0.  1.
         11    1    4    4    0    0 -0.81928444559E-03  0.80789904588E-02  0.73016825166E-01  0.73468763378E-01  0.51100000000E-03 0. -1.
</event>
<event>
 8    1  0.1101883E+005  0.1043930E+01  0.7957747E-01            NaN
         13   -1    0    0    0    0  0.00000000000E+00  0.00000000000E+00  0.74505805969E-08  0.10566000000E+00  0.10566000000E+00 0. -1.
     999900   -1    0    0    0    0 -0.00000000000E+00 -0.00000000000E+00 -0.74505805969E-08  0.93827000000E+00  0.93827000000E+00 0. -1.
     999902    2    1    2    0    0 -0.14930086138E-01 -0.14207450183E-01 -0.17405418676E-01  0.10169539419E+01  0.10165960910E+01 0.  0.
     999903    2    3    3    0    0  0.47673575112E-01  0.65617719733E-01  0.91758513241E-01  0.12442492824E+00  0.21988249297E-01 0.  0.
         14    1    1    2    0    0  0.14930086138E-01  0.14207450183E-01  0.17405418676E-01  0.26976058127E-01  0.00000000000E+00 0.  1.
     999901    1    3    3    0    0 -0.62603661251E-01 -0.79825169916E-01 -0.10916393192E+00  0.89252901364E+00  0.88000000000E+00 0. -1.
        -11    1    4    4    0    0  0.45677816005E-01  0.51241196672E-01  0.81935228421E-01  0.10689137425E+00  0.51100000000E-03 0. -1.
         11    1    4    4    0    0  0.19957591076E-02  0.14376523061E-01  0.98232848199E-02  0.17533553986E-01  0.51100000000E-03 0.  1.
</event>
<event>
 8    1  0.1101883E+005  0.1043930E+01  0.7957747E-01            NaN
         13   -1    0    0    0    0  0.00000000000E+00  0.00000000000E+00  0.74505805969E-08  0.10566000000E+00  0.10566000000E+00 0. -1.
     999900   -1    0    0    0    0 -0.00000000000E+00 -0.00000000000E+00 -0.74505805969E-08  0.93827000000E+00  0.93827000000E+00 0.  1.
     999902    2    1    2    0    0  0.47624828744E-02  0.10707819101E-01  0.20949703567E-01  0.10199252356E+01  0.10196427107E+01 0.  0.
     999903    2    3    3    0    0 -0.92427798948E-02  0.42227609782E-01 -0.11905868326E+00  0.12818985281E+00  0.19724814222E-01 0.  0.
         14    1    1    2    0    0 -0.47624828744E-02 -0.10707819101E-01 -0.20949703567E-01  0.24004764372E-01  0.00000000000E+00 0. -1.
     999901    1    3    3    0    0  0.14005262769E-01 -0.31519790682E-01  0.14000838682E+00  0.89173538282E+00  0.88000000000E+00 0. -1.
        -11    1    4    4    0    0  0.42177160314E-03  0.35965624987E-01 -0.91569146779E-01  0.98381267703E-01  0.51100000000E-03 0. -1.
         11    1    4    4    0    0 -0.96645514979E-02  0.62619847952E-02 -0.27489536478E-01  0.29808585106E-01  0.51100000000E-03 0.  1.
</event>
<event>
 8    1  0.1101883E+005  0.1043930E+01  0.7957747E-01            NaN
         13   -1    0    0    0    0  0.00000000000E+00  0.00000000000E+00  0.74505805969E-08  0.10566000000E+00  0.10566000000E+00 0.  1.
     999900   -1    0    0    0    0 -0.00000000000E+00 -0.00000000000E+00 -0.74505805969E-08  0.93827000000E+00  0.93827000000E+00 0.  1.
     999902    2    1    2    0    0 -0.15555652185E-01 -0.17817758829E-01  0.17005621880E-02  0.10202162328E+01  0.10199405957E+01 0.  0.
     999903    2    3    3    0    0  0.59157928254E-01 -0.84464892423E-01 -0.78185302745E-01  0.13094365873E+00  0.19983034534E-01 0.  0.
         14    1    1    2    0    0  0.15555652185E-01  0.17817758829E-01 -0.17005621880E-02  0.23713767232E-01  0.00000000000E+00 0.  1.
     999901    1    3    3    0    0 -0.74713580439E-01  0.66647133595E-01  0.79885864933E-01  0.88927257404E+00  0.88000000000E+00 0. -1.
        -11    1    4    4    0    0  0.38558352037E-01 -0.37962525246E-01 -0.42580734028E-01  0.68856952200E-01  0.51100000000E-03 0.  1.
         11    1    4    4    0    0  0.20599576218E-01 -0.46502367177E-01 -0.35604568717E-01  0.62086706531E-01  0.51100000000E-03 0. -1.
</event>
<event>
 8    1  0.1101883E+005  0.1043930E+01  0.7957747E-01            NaN
         13   -1    0    0    0    0  0.00000000000E+00  0.00000000000E+00  0.74505805969E-08  0.10566000000E+00  0.10566000000E+00 0.  1.
     999900   -1    0    0    0    0 -0.00000000000E+00 -0.00000000000E+00 -0.74505805969E-08  0.93827000000E+00  0.93827000000E+00 0.  1.
     999902    2    1    2    0    0 -0.21566210303E-01  0.80006215586E-02 -0.76674933094E-02  0.10196833131E+01  0.10193949957E+01 0.  0.
     999903    2    3    3    0    0  0.64145702256E-01 -0.10213670336E+00  0.36579574269E-01  0.12758770988E+00  0.19848958856E-01 0.  0.
         14    1    1    2    0    0  0.21566210303E-01 -0.80006215586E-02  0.76674933094E-02  0.24246686904E-01  0.00000000000E+00 0. -1.
     999901    1    3    3    0    0 -0.85711912559E-01  0.11013732491E+00 -0.44247067579E-01  0.89209560322E+00  0.88000000000E+00 0.  1.
        -11    1    4    4    0    0  0.31768442351E-01 -0.50765011879E-01  0.78212335672E-02  0.60396632158E-01  0.51100000000E-03 0.  1.
         11    1    4    4    0    0  0.32377259904E-01 -0.51371691477E-01  0.28758340702E-01  0.67191077719E-01  0.51100000000E-03 0. -1.
</event>
<event>
 8    1  0.1101883E+005  0.1043930E+01  0.7957747E-01            NaN
         13   -1    0    0    0    0  0.00000000000E+00  0.00000000000E+00  0.74505805969E-08  0.10566000000E+00  0.10566000000E+00 0.  1.
     999900   -1    0    0    0    0 -0.00000000000E+00 -0.00000000000E+00 -0.74505805969E-08  0.93827000000E+00  0.93827000000E+00 0.  1.
     999902    2    1    2    0    0  0.14567185576E-01 -0.82998322102E-02 -0.17754903928E-01  0.10195101981E+01  0.10192176987E+01 0.  0.
     999903    2    3    3    0    0  0.51210515809E-01 -0.33184390458E-01  0.11184968380E+00  0.12891527109E+00  0.19623319137E-01 0.  0.
         14    1    1    2    0    0 -0.14567185576E-01  0.82998322102E-02  0.17754903928E-01  0.24419801879E-01  0.00000000000E+00 0.  1.
     999901    1    3    3    0    0 -0.36643330233E-01  0.24884558248E-01 -0.12960458773E+00  0.89059492703E+00  0.88000000000E+00 0.  1.
        -11    1    4    4    0    0  0.32009468023E-01 -0.27016624874E-01  0.59105425756E-01  0.72444575625E-01  0.51100000000E-03 0.  1.
         11    1    4    4    0    0  0.19201047786E-01 -0.61677655836E-02  0.52744258048E-01  0.56470695466E-01  0.51100000000E-03 0. -1.
</event>
<event>
 8    1  0.1101883E+005  0.1043930E+01  0.7957747E-01            NaN
         13   -1    0    0    0    0  0.00000000000E+00  0.00000000000E+00  0.74505805969E-08  0.10566000000E+00  0.10566000000E+00 0.  1.
     999900   -1    0    0    0    0 -0.00000000000E+00 -0.00000000000E+00 -0.74505805969E-08  0.93827000000E+00  0.93827000000E+00 0. -1.
     999902    2    1    2    0    0 -0.11303945979E-01 -0.17748330672E-01 -0.10755090720E-01  0.10202983599E+01  0.10200246511E+01 0.  0.
     999903    2    3    3    0    0 -0.12028714674E+00 -0.11600641866E-02  0.48905380072E-01  0.13141598277E+00  0.20201012549E-01 0.  0.
         14    1    1    2    0    0  0.11303945979E-01  0.17748330672E-01  0.10755090720E-01  0.23631640077E-01  0.00000000000E+00 0.  1.
     999901    1    3    3    0    0  0.10898320076E+00 -0.16588266485E-01 -0.59660470791E-01  0.88888237715E+00  0.88000000000E+00 0. -1.
        -11    1    4    4    0    0 -0.20913285143E-01 -0.71722795333E-02  0.53767652654E-02  0.22759125969E-01  0.51100000000E-03 0. -1.
         11    1    4    4    0    0 -0.99373861599E-01  0.60122153467E-02  0.43528614806E-01  0.10865685680E+00  0.51100000000E-03 0.  1.
</event>
<event>
 8    1  0.1101883E+005  0.1043930E+01  0.7957747E-01            NaN
         13   -1    0    0    0    0  0.00000000000E+00  0.00000000000E+00  0.74505805969E-08  0.10566000000E+00  0.10566000000E+00 0.  1.
     999900   -1    0    0    0    0 -0.00000000000E+00 -0.00000000000E+00 -0.74505805969E-08  0.93827000000E+00  0.93827000000E+00 0.  1.
     999902    2    1    2    0    0  0.19785459618E-01 -0.14185383831E-01  0.54198268671E-02  0.10189887881E+01  0.10186835064E+01 0.  0.
     999903    2    3    3    0    0  0.89997820149E-01  0.70239705652E-01 -0.58764575712E-01  0.12984481281E+00  0.19317768303E-01 0.  0.
         14    1    1    2    0    0 -0.19785459618E-01  0.14185383831E-01 -0.54198268671E-02  0.24941211879E-01  0.00000000000E+00 0. -1.
     999901    1    3    3    0    0 -0.70212360531E-01 -0.84425089483E-01  0.64184402579E-01  0.88914397532E+00  0.88000000000E+00 0.  1.
        -11    1    4    4    0    0  0.49889659361E-01  0.47302613956E-01 -0.42664495950E-01  0.80913754912E-01  0.51100000000E-03 0.  1.
         11    1    4    4    0    0  0.40108160787E-01  0.22937091696E-01 -0.16100079762E-01  0.48931057893E-01  0.51100000000E-03 0. -1.
</event>
<event>
 8    1  0.1171258E+005  0.1043930E+01  0.7957747E-01            NaN
         13   -1    0    0    0    0  0.00000000000E+00  0.00000000000E+00  0.74505805969E-08  0.10566000000E+00  0.10566000000E+00 0.  1.
     999900   -1    0    0    0    0 -0.00000000000E+00 -0.00000000000E+00 -0.74505805969E-08  0.93827000000E+00  0.93827000000E+00 0.  1.
     999902    2    1    2    0    0  0.11170259639E-01 -0.47017256656E-02  0.20629471813E-01  0.10200039466E+01  0.10197232934E+01 0.  0.
     999903    2    3    3    0    0 -0.25131319326E-01  0.46292991125E-01 -0.11397469469E+00  0.12757100938E+00  0.22572265415E-01 0.  0.
         14    1    1    2    0    0 -0.11170259639E-01  0.47017256656E-02 -0.20629471813E-01  0.23926053413E-01  0.00000000000E+00 0. -1.
     999901    1    3    3    0    0  0.36301578965E-01 -0.50994716791E-01  0.13460416650E+00  0.89243293721E+00  0.88000000000E+00 0. -1.
        -11    1    4    4    0    0 -0.59415187047E-02  0.27937895820E-01 -0.41491365668E-01  0.50374817254E-01  0.51100000000E-03 0.  1.
         11    1    4    4    0    0 -0.19189800621E-01  0.18355095305E-01 -0.72483329021E-01  0.77196192124E-01  0.51100000000E-03 0. -1.
</event>
<event>
 8    1  0.1101883E+005  0.1043930E+01  0.7957747E-01            NaN
         13   -1    0    0    0    0  0.00000000000E+00  0.00000000000E+00  0.74505805969E-08  0.10566000000E+00  0.10566000000E+00 0.  1.
     999900   -1    0    0    0    0 -0.00000000000E+00 -0.00000000000E+00 -0.74505805969E-08  0.93827000000E+00  0.93827000000E+00 0.  1.
     999902    2    1    2    0    0 -0.13254109988E-01 -0.82240085042E-02  0.12554785956E-01  0.10239068035E+01  0.10237110011E+01 0.  0.
     999903    2    3    3    0    0 -0.82898155069E-01  0.54138909695E-01 -0.87159181964E-01  0.13335511945E+00  0.19589263012E-01 0.  0.
         14    1    1    2    0    0  0.13254109988E-01  0.82240085042E-02 -0.12554785956E-01  0.20023196494E-01  0.00000000000E+00 0. -1.
     999901    1    3    3    0    0  0.69644045081E-01 -0.62362918199E-01  0.99713967919E-01  0.89055168406E+00  0.88000000000E+00 0. -1.
        -11    1    4    4    0    0 -0.62741156472E-01  0.30207631950E-01 -0.60303955855E-01  0.92118304132E-01  0.51100000000E-03 0.  1.
         11    1    4    4    0    0 -0.20156998598E-01  0.23931277745E-01 -0.26855226108E-01  0.41236815315E-01  0.51100000000E-03 0. -1.
</event>
<event>
 8    1  0.1101883E+005  0.1043930E+01  0.7957747E-01            NaN
         13   -1    0    0    0    0  0.00000000000E+00  0.00000000000E+00  0.74505805969E-08  0.10566000000E+00  0.10566000000E+00 0.  1.
     999900   -1    0    0    0    0 -0.00000000000E+00 -0.00000000000E+00 -0.74505805969E-08  0.93827000000E+00  0.93827000000E+00 0. -1.
     999902    2    1    2    0    0  0.11744601691E-01 -0.14904068012E-01  0.10079392501E-01  0.10224437005E+01  0.10222179120E+01 0.  0.
     999903    2    3    3    0    0 -0.48233974403E-01  0.11473479285E+00 -0.31272146370E-01  0.12996758678E+00  0.20567875373E-01 0.  0.
         14    1    1    2    0    0 -0.11744601691E-01  0.14904068012E-01 -0.10079392501E-01  0.21486299481E-01  0.00000000000E+00 0. -1.
     999901    1    3    3    0    0  0.59978576094E-01 -0.12963886086E+00  0.41351538871E-01  0.89247611374E+00  0.88000000000E+00 0. -1.
        -11    1    4    4    0    0 -0.22212411315E-01  0.77593357525E-01 -0.17729191963E-01  0.82635983186E-01  0.51100000000E-03 0.  1.
         11    1    4    4    0    0 -0.26021563088E-01  0.37141435323E-01 -0.13542954407E-01  0.47331603590E-01  0.51100000000E-03 0. -1.
</event>
<event>
 8    1  0.1101883E+005  0.1043930E+01  0.7957747E-01            NaN
         13   -1    0    0    0    0  0.00000000000E+00  0.00000000000E+00  0.74505805969E-08  0.10566000000E+00  0.10566000000E+00 0.  1.
     999900   -1    0    0    0    0 -0.00000000000E+00 -0.00000000000E+00 -0.74505805969E-08  0.93827000000E+00  0.93827000000E+00 0. -1.
     999902    2    1    2    0    0 -0.10539474578E-01  0.20424831987E-01 -0.88888546425E-02  0.10192872318E+01  0.10189893007E+01 0.  0.
     999903    2    3    3    0    0 -0.55387199612E-01  0.10580938349E+00 -0.54186948667E-01  0.13285970665E+00  0.21262848605E-01 0.  0.
         14    1    1    2    0    0  0.10539474578E-01 -0.20424831987E-01  0.88888546425E-02  0.24642768167E-01  0.00000000000E+00 0.  1.
     999901    1    3    3    0    0  0.44847725035E-01 -0.85384551501E-01  0.45298094024E-01  0.88642752518E+00  0.88000000000E+00 0.  1.
        -11    1    4    4    0    0 -0.45247489218E-01  0.69767774138E-01 -0.43871885083E-01  0.94020641406E-01  0.51100000000E-03 0. -1.
         11    1    4    4    0    0 -0.10139710395E-01  0.36041609350E-01 -0.10315063584E-01  0.38839065246E-01  0.51100000000E-03 0.  1.
</event>
<event>
 8    1  0.1101883E+005  0.1043930E+01  0.7957747E-01            NaN
         13   -1    0    0    0    0  0.00000000000E+00  0.00000000000E+00  0.74505805969E-08  0.10566000000E+00  0.10566000000E+00 0. -1.
     999900   -1    0    0    0    0 -0.00000000000E+00 -0.00000000000E+00 -0.74505805969E-08  0.93827000000E+00  0.93827000000E+00 0.  1.
     999902    2    1    2    0    0  0.87341957247E-02  0.23102179046E-01 -0.47081850357E-02  0.10187871311E+01  0.10184768307E+01 0.  0.
     999903    2    3    3    0    0 -0.82748446061E-01 -0.92973064441E-01 -0.96318436574E-02  0.12644931482E+00  0.20133573187E-01 0.  0.
         14    1    1    2    0    0 -0.87341957247E-02 -0.23102179046E-01  0.47081850357E-02  0.25142868928E-01  0.00000000000E+00 0. -1.
     999901    1    3    3    0    0  0.91482641786E-01  0.11607524349E+00  0.49236586216E-02  0.89233781625E+00  0.88000000000E+00 0. -1.
        -11    1    4    4    0    0 -0.67318987679E-01 -0.81392904183E-01 -0.18542029739E-02  0.10564255839E+00  0.51100000000E-03 0. -1.
         11    1    4    4    0    0 -0.15429458382E-01 -0.11580160258E-01 -0.77776406835E-02  0.20806756430E-01  0.51100000000E-03 0.  1.
</event>
<event>
 8    1  0.1101883E+005  0.1043930E+01  0.7957747E-01            NaN
         13   -1    0    0    0    0  0.00000000000E+00  0.00000000000E+00  0.74505805969E-08  0.10566000000E+00  0.10566000000E+00 0.  1.
     999900   -1    0    0    0    0 -0.00000000000E+00 -0.00000000000E+00 -0.74505805969E-08  0.93827000000E+00  0.93827000000E+00 0. -1.
     999902    2    1    2    0    0 -0.77749297248E-02  0.14137795929E-01  0.13381624506E-01  0.10229682567E+01  0.10227534696E+01 0.  0.
     999903    2    3    3    0    0  0.29860375641E-02  0.12394387491E+00  0.50388738339E-01  0.13530689120E+00  0.19948165505E-01 0.  0.
         14    1    1    2    0    0  0.77749297248E-02 -0.14137795929E-01 -0.13381624506E-01  0.20961743258E-01  0.00000000000E+00 0. -1.
     999901    1    3    3    0    0 -0.10760967289E-01 -0.10980607898E+00 -0.37007113833E-01  0.88766136554E+00  0.88000000000E+00 0.  1.
        -11    1    4    4    0    0  0.16998905225E-04  0.20481556877E-01  0.16775308608E-01  0.26479549863E-01  0.51100000000E-03 0. -1.
         11    1    4    4    0    0  0.29690386589E-02  0.10346231803E+00  0.33613429731E-01  0.10882734134E+00  0.51100000000E-03 0.  1.
</event>
<event>
 8    1  0.1101883E+005  0.1043930E+01  0.7957747E-01            NaN
         13   -1    0    0    0    0  0.00000000000E+00  0.00000000000E+00  0.74505805969E-08  0.10566000000E+00  0.10566000000E+00 0. -1.
     999900   -1    0    0    0    0 -0.00000000000E+00 -0.00000000000E+00 -0.74505805969E-08  0.93827000000E+00  0.93827000000E+00 0.  1.
     999902    2    1    2    0    0 -0.93769684651E-02 -0.17709120561E-01  0.11608676690E-01  0.10207718079E+01  0.10205090798E+01 0.  0.
     999903    2    3    3    0    0 -0.23286184912E-01 -0.12611381097E+00  0.27832071051E-01  0.13386243158E+00  0.26411866347E-01 0.  0.
         14    1    1    2    0    0  0.93769684651E-02  0.17709120561E-01 -0.11608676690E-01  0.23158192139E-01  0.00000000000E+00 0.  1.
     999901    1    3    3    0    0  0.13909216447E-01  0.10840469041E+00 -0.16223394361E-01  0.88690937628E+00  0.88000000000E+00 0. -1.
        -11    1    4    4    0    0 -0.55776030844E-02 -0.54346366663E-01  0.24471247729E-01  0.59864349258E-01  0.51100000000E-03 0. -1.
         11    1    4    4    0    0 -0.17708581828E-01 -0.71767444312E-01  0.33608233222E-02  0.73998082325E-01  0.51100000000E-03 0.  1.
</event>
<event>
 8    1  0.1101883E+005  0.1043930E+01  0.7957747E-01            NaN
         13   -1    0    0    0    0  0.00000000000E+00  0.00000000000E+00  0.74505805969E-08  0.10566000000E+00  0.10566000000E+00 0. -1.
     999900   -1    0    0    0    0 -0.00000000000E+00 -0.00000000000E+00 -0.74505805969E-08  0.93827000000E+00  0.93827000000E+00 0.  1.
     999902    2    1    2    0    0  0.63423123038E-02 -0.23432606325E-01 -0.26098945025E-02  0.10195143592E+01  0.10192219607E+01 0.  0.
     999903    2    3    3    0    0 -0.12610974473E+00 -0.21890197095E-01 -0.36462878397E-02  0.12960031813E+00  0.20002464849E-01 0.  0.
         14    1    1    2    0    0 -0.63423123038E-02  0.23432606325E-01  0.26098945025E-02  0.24415640763E-01  0.00000000000E+00 0. -1.
     999901    1    3    3    0    0  0.13245205704E+00 -0.15424092296E-02  0.10363933372E-02  0.88991404110E+00  0.88000000000E+00 0.  1.
        -11    1    4    4    0    0 -0.62125682935E-01 -0.84475661846E-03  0.17506493438E-03  0.62133773929E-01  0.51100000000E-03 0. -1.
         11    1    4    4    0    0 -0.63984061798E-01 -0.21045440477E-01 -0.38213527741E-02  0.67466544206E-01  0.51100000000E-03 0.  1.
</event>
<event>
 7    1  0.1101883E+005  0.1043930E+01  0.7957747E-01            NaN
         13   -1    0    0    0    0  0.00000000000E+00  0.00000000000E+00  0.74505805969E-08  0.10566000000E+00  0.10566000000E+00 0.  1.
     999900   -1    0    0    0    0 -0.00000000000E+00 -0.00000000000E+00 -0.74505805969E-08  0.93827000000E+00  0.93827000000E+00 0.  1.
     999903    2    1    2    0    0 -0.41846467140E-01 -0.65592441442E-01 -0.19316771868E-01  0.82594424330E-01  0.19879790455E-01 0.  0.
         14    1    1    2    0    0 -0.45499929491E-01 -0.46136110992E-01  0.26356980252E-01  0.69953375395E-01  0.00000000000E+00 0.  1.
     999901    1    1    2    0    0  0.87346396632E-01  0.11172855243E+00 -0.70402083834E-02  0.89138220028E+00  0.88000000000E+00 0.  1.
        -11    1    3    3    0    0 -0.28727297679E-02 -0.20063771883E-01 -0.31472636803E-02  0.20517648700E-01  0.51100000000E-03 0. -1.
         11    1    3    3    0    0 -0.38973737372E-01 -0.45528669558E-01 -0.16169508188E-01  0.62076775630E-01  0.51100000000E-03 0.  1.
</event>
<event>
 8    1  0.1101883E+005  0.1043930E+01  0.7957747E-01            NaN
         13   -1    0    0    0    0  0.00000000000E+00  0.00000000000E+00  0.74505805969E-08  0.10566000000E+00  0.10566000000E+00 0. -1.
     999900   -1    0    0    0    0 -0.00000000000E+00 -0.00000000000E+00 -0.74505805969E-08  0.93827000000E+00  0.93827000000E+00 0. -1.
     999902    2    1    2    0    0 -0.18291963639E-01 -0.13210166367E-01  0.65155823470E-02  0.10204447441E+01  0.10201744550E+01 0.  0.
     999903    2    3    3    0    0  0.22433327308E-01  0.12082232263E+00 -0.32132210689E-01  0.12852719788E+00  0.19633487022E-01 0.  0.
         14    1    1    2    0    0  0.18291963639E-01  0.13210166367E-01 -0.65155823470E-02  0.23485255854E-01  0.00000000000E+00 0.  1.
     999901    1    3    3    0    0 -0.40725290947E-01 -0.13403248899E+00  0.38647793036E-01  0.89191754626E+00  0.88000000000E+00 0. -1.
        -11    1    4    4    0    0  0.14316623927E-01  0.34623211333E-01 -0.50508354490E-02  0.37808789235E-01  0.51100000000E-03 0. -1.
         11    1    4    4    0    0  0.81167033810E-02  0.86199111293E-01 -0.27081375240E-01  0.90718408647E-01  0.51100000000E-03 0.  1.
</event>
<event>
 8    1  0.1101883E+005  0.1043930E+01  0.7957747E-01            NaN
         13   -1    0    0    0    0  0.00000000000E+00  0.00000000000E+00  0.74505805969E-08  0.10566000000E+00  0.10566000000E+00 0. -1.
     999900   -1    0    0    0    0 -0.00000000000E+00 -0.00000000000E+00 -0.74505805969E-08  0.93827000000E+00  0.93827000000E+00 0.  1.
     999902    2    1    2    0    0 -0.15365542984E-01 -0.20536994870E-01  0.37749781200E-03  0.10182782832E+01  0.10179551324E+01 0.  0.
     999903    2    3    3    0    0  0.54568127821E-01 -0.56823230783E-01 -0.99908694406E-01  0.12908498051E+00  0.21785886353E-01 0.  0.
         14    1    1    2    0    0  0.15365542984E-01  0.20536994870E-01 -0.37749781200E-03  0.25651716786E-01  0.00000000000E+00 0.  1.
     999901    1    3    3    0    0 -0.69933670805E-01  0.36286235913E-01  0.10028619222E+00  0.88919330271E+00  0.88000000000E+00 0. -1.
        -11    1    4    4    0    0  0.17750407493E-01 -0.66445236567E-02 -0.17400159533E-01  0.25734283234E-01  0.51100000000E-03 0. -1.
         11    1    4    4    0    0  0.36817720328E-01 -0.50178707126E-01 -0.82508534873E-01  0.10335069727E+00  0.51100000000E-03 0.  1.
</event>
<event>
 8    1  0.1101883E+005  0.1043930E+01  0.7957747E-01            NaN
         13   -1    0    0    0    0  0.00000000000E+00  0.00000000000E+00  0.74505805969E-08  0.10566000000E+00  0.10566000000E+00 0.  1.
     999900   -1    0    0    0    0 -0.00000000000E+00 -0.00000000000E+00 -0.74505805969E-08  0.93827000000E+00  0.93827000000E+00 0. -1.
     999902    2    1    2    0    0  0.33592614880E-02 -0.85637169073E-02 -0.22406723500E-01  0.10197084570E+01  0.10194207445E+01 0.  0.
     999903    2    3    3    0    0 -0.49095944425E-01  0.11728937625E+00 -0.10817579062E-01  0.12913288027E+00  0.19775520459E-01 0.  0.
         14    1    1    2    0    0 -0.33592614880E-02  0.85637169073E-02  0.22406723500E-01  0.24221542953E-01  0.00000000000E+00 0.  1.
     999901    1    3    3    0    0  0.52455205913E-01 -0.12585309316E+00 -0.11589144439E-01  0.89057557678E+00  0.88000000000E+00 0.  1.
        -11    1    4    4    0    0 -0.37555985437E-01  0.82497546617E-01  0.88967170192E-03  0.90649599430E-01  0.51100000000E-03 0.  1.
         11    1    4    4    0    0 -0.11539958988E-01  0.34791829633E-01 -0.11707250764E-01  0.38483280839E-01  0.51100000000E-03 0. -1.
</event>
<event>
 7    1  0.1101883E+005  0.1043930E+01  0.7957747E-01            NaN
         13   -1    0    0    0    0  0.00000000000E+00  0.00000000000E+00  0.74505805969E-08  0.10566000000E+00  0.10566000000E+00 0.  1.
     999900   -1    0    0    0    0 -0.00000000000E+00 -0.00000000000E+00 -0.74505805969E-08  0.93827000000E+00  0.93827000000E+00 0.  1.
     999903    2    1    2    0    0  0.99141729422E-01  0.13843283183E-01  0.43119535948E-01  0.11081502869E+00  0.19998930012E-01 0.  0.
         14    1    1    2    0    0 -0.27257305630E-02 -0.24718141447E-01  0.36546708270E-01  0.44204954576E-01  0.00000000000E+00 0.  1.
     999901    1    1    2    0    0 -0.96415998859E-01  0.10874858264E-01 -0.79666244218E-01  0.88891001673E+00  0.88000000000E+00 0. -1.
        -11    1    3    3    0    0  0.59205600938E-01  0.15999608460E-01  0.32599926661E-01  0.69457231391E-01  0.51100000000E-03 0.  1.
         11    1    3    3    0    0  0.39936128484E-01 -0.21563252768E-02  0.10519609287E-01  0.41357797300E-01  0.51100000000E-03 0. -1.
</event>
<event>
 8    1  0.1101883E+005  0.1043930E+01  0.7957747E-01            NaN
         13   -1    0    0    0    0  0.00000000000E+00  0.00000000000E+00  0.74505805969E-08  0.10566000000E+00  0.10566000000E+00 0.  1.
     999900   -1    0    0    0    0 -0.00000000000E+00 -0.00000000000E+00 -0.74505805969E-08  0.93827000000E+00  0.93827000000E+00 0. -1.
     999902    2    1    2    0    0 -0.22515187569E-01  0.56012443090E-02  0.39895824479E-02  0.10203880295E+01  0.10201164180E+01 0.  0.
     999903    2    3    3    0    0  0.92772368896E-01 -0.56331399224E-01  0.65991966986E-01  0.12855218767E+00  0.19768314996E-01 0.  0.
         14    1    1    2    0    0  0.22515187569E-01 -0.56012443090E-02 -0.39895824479E-02  0.23541970546E-01  0.00000000000E+00 0.  1.
     999901    1    3    3    0    0 -0.11528755646E+00  0.61932643533E-01 -0.62002384538E-01  0.89183584179E+00  0.88000000000E+00 0. -1.
        -11    1    4    4    0    0  0.57266898545E-01 -0.32994117269E-01  0.51038468768E-01  0.83506262391E-01  0.51100000000E-03 0.  1.
         11    1    4    4    0    0  0.35505470351E-01 -0.23337281955E-01  0.14953498219E-01  0.45045925275E-01  0.51100000000E-03 0. -1.
</event>
<event>
 8    1  0.1101883E+005  0.1043930E+01  0.7957747E-01            NaN
         13   -1    0    0    0    0  0.00000000000E+00  0.00000000000E+00  0.74505805969E-08  0.10566000000E+00  0.10566000000E+00 0.  1.
     999900   -1    0    0    0    0 -0.00000000000E+00 -0.00000000000E+00 -0.74505805969E-08  0.93827000000E+00  0.93827000000E+00 0. -1.
     999902    2    1    2    0    0 -0.20320994183E-01  0.67046206875E-02 -0.10022194427E-01  0.10203007993E+01  0.10200271477E+01 0.  0.
     999903    2    3    3    0    0 -0.11780413848E+00 -0.52307484984E-01  0.22689433944E-01  0.13235066409E+00  0.19697711663E-01 0.  0.
         14    1    1    2    0    0  0.20320994183E-01 -0.67046206875E-02  0.10022194427E-01  0.23629200670E-01  0.00000000000E+00 0.  1.
     999901    1    3    3    0    0  0.97483144297E-01  0.59012105671E-01 -0.32711628371E-01  0.88795013524E+00  0.88000000000E+00 0.  1.
        -11    1    4    4    0    0 -0.81597453240E-01 -0.28583821753E-01  0.21266189439E-01  0.89037582938E-01  0.51100000000E-03 0. -1.
         11    1    4    4    0    0 -0.36206685240E-01 -0.23723663231E-01  0.14232445048E-02  0.43313081154E-01  0.51100000000E-03 0.  1.
</event>
<event>
 8    1  0.1101883E+005  0.1043930E+01  0.7957747E-01            NaN
         13   -1    0    0    0    0  0.00000000000E+00  0.00000000000E+00  0.74505805969E-08  0.10566000000E+00  0.10566000000E+00 0.  1.
     999900   -1    0    0    0    0 -0.00000000000E+00 -0.00000000000E+00 -0.74505805969E-08  0.93827000000E+00  0.93827000000E+00 0. -1.
     999902    2    1    2    0    0  0.10264783301E-01 -0.16663494274E-01 -0.11122201942E-01  0.10214190872E+01  0.10211709997E+01 0.  0.
     999903    2    3    3    0    0  0.41803534436E-01 -0.57550934288E-01 -0.11203811066E+00  0.13414771037E+00  0.19581226404E-01 0.  0.
         14    1    1    2    0    0 -0.10264783301E-01  0.16663494274E-01  0.11122201942E-01  0.22510912768E-01  0.00000000000E+00 0.  1.
     999901    1    3    3    0    0 -0.31538751135E-01  0.40887440014E-01  0.10091590872E+00  0.88727137687E+00  0.88000000000E+00 0. -1.
        -11    1    4    4    0    0  0.31045153091E-01 -0.38468297673E-01 -0.60391352126E-01  0.78044781945E-01  0.51100000000E-03 0.  1.
         11    1    4    4    0    0  0.10758381345E-01 -0.19082636615E-01 -0.51646758533E-01  0.56102928421E-01  0.51100000000E-03 0. -1.
</event>
<event>
 8    1  0.1101883E+005  0.1043930E+01  0.7957747E-01            NaN
         13   -1    0    0    0    0  0.00000000000E+00  0.00000000000E+00  0.74505805969E-08  0.10566000000E+00  0.10566000000E+00 0.  1.
     999900   -1    0    0    0    0 -0.00000000000E+00 -0.00000000000E+00 -0.74505805969E-08  0.93827000000E+00  0.93827000000E+00 0. -1.
     999902    2    1    2    0    0  0.21146496527E-01  0.92527717381E-02 -0.53818521316E-02  0.10202286829E+01  0.10199533386E+01 0.  0.
     999903    2    3    3    0    0  0.87055914125E-01 -0.95403589614E-01  0.97094917230E-02  0.13145157138E+00  0.22464734406E-01 0.  0.
         14    1    1    2    0    0 -0.21146496527E-01 -0.92527717381E-02  0.53818521316E-02  0.23701317107E-01  0.00000000000E+00 0. -1.
     999901    1    3    3    0    0 -0.65909417598E-01  0.10465636135E+00 -0.15091343855E-01  0.88877711152E+00  0.88000000000E+00 0. -1.
        -11    1    4    4    0    0  0.48580909929E-01 -0.62758459049E-01  0.14801212424E-01  0.80734540328E-01  0.51100000000E-03 0.  1.
         11    1    4    4    0    0  0.38475004196E-01 -0.32645130566E-01 -0.50917207013E-02  0.50717031047E-01  0.51100000000E-03 0. -1.
</event>
<event>
 8    1  0.1101883E+005  0.1043930E+01  0.7957747E-01            NaN
         13   -1    0    0    0    0  0.00000000000E+00  0.00000000000E+00  0.74505805969E-08  0.10566000000E+00  0.10566000000E+00 0.  1.
     999900   -1    0    0    0    0 -0.00000000000E+00 -0.00000000000E+00 -0.74505805969E-08  0.93827000000E+00  0.93827000000E+00 0. -1.
     999902    2    1    2    0    0 -0.17812325418E-01  0.10577915567E-01 -0.22194831214E-03  0.10232123627E+01  0.10230025995E+01 0.  0.
     999903    2    3    3    0    0 -0.75861349563E-01 -0.54838131345E-01  0.93795120495E-01  0.13389343361E+00  0.19177119912E-01 0.  0.
         14    1    1    2    0    0  0.17812325418E-01 -0.10577915567E-01  0.22194831214E-03  0.20717637307E-01  0.00000000000E+00 0. -1.
     999901    1    3    3    0    0  0.58049024145E-01  0.65416046913E-01 -0.94017068807E-01  0.88931892908E+00  0.88000000000E+00 0.  1.
        -11    1    4    4    0    0 -0.44045199684E-01 -0.41630557732E-01  0.66182710278E-01  0.89741268172E-01  0.51100000000E-03 0.  1.
         11    1    4    4    0    0 -0.31816149879E-01 -0.13207573613E-01  0.27612410217E-01  0.44152165438E-01  0.51100000000E-03 0. -1.
</event>
<event>
 7    1  0.1101883E+005  0.1043930E+01  0.7957747E-01            NaN
         13   -1    0    0    0    0  0.00000000000E+00  0.00000000000E+00  0.74505805969E-08  0.10566000000E+00  0.10566000000E+00 0.  1.
     999900   -1    0    0    0    0 -0.00000000000E+00 -0.00000000000E+00 -0.74505805969E-08  0.93827000000E+00  0.93827000000E+00 0. -1.
     999902    2    1    2    0    0 -0.35688810971E-02 -0.15349409788E-01  0.17560618378E-01  0.10203351571E+01  0.10200623100E+01 0.  0.
         14    1    1    2    0    0  0.35688810971E-02  0.15349409788E-01 -0.17560618378E-01  0.23594842889E-01  0.00000000000E+00 0.  1.
     999901    1    3    3    0    0  0.82712050336E-01 -0.82236724407E-01  0.76225368042E-01  0.89096266411E+00  0.88000000000E+00 0.  1.
        -11    1    3    3    0    0 -0.16117465080E-01  0.18017205999E-01  0.24013662147E-02  0.24298561137E-01  0.51100000000E-03 0. -1.
         11    1    3    3    0    0 -0.70163466353E-01  0.48870108620E-01 -0.61066115879E-01  0.10507393186E+00  0.51100000000E-03 0.  1.
</event>
<event>
 8    1  0.1101883E+005  0.1043930E+01  0.7957747E-01            NaN
         13   -1    0    0    0    0  0.00000000000E+00  0.00000000000E+00  0.74505805969E-08  0.10566000000E+00  0.10566000000E+00 0.  1.
     999900   -1    0    0    0    0 -0.00000000000E+00 -0.00000000000E+00 -0.74505805969E-08  0.93827000000E+00  0.93827000000E+00 0.  1.
     999902    2    1    2    0    0  0.66006515438E-02 -0.12735216901E-01 -0.20012331162E-01  0.10193079012E+01  0.10190104758E+01 0.  0.
     999903    2    3    3    0    0  0.93735390911E-01 -0.84213737487E-01 -0.33700957832E-01  0.13201481535E+00  0.20344036542E-01 0.  0.
         14    1    1    2    0    0 -0.66006515438E-02  0.12735216901E-01  0.20012331162E-01  0.24622098791E-01  0.00000000000E+00 0.  1.
     999901    1    3    3    0    0 -0.87134739367E-01  0.71478520586E-01  0.13688626670E-01  0.88729308586E+00  0.88000000000E+00 0.  1.
        -11    1    4    4    0    0  0.88909372678E-01 -0.71705246150E-01 -0.30341250949E-01  0.11818363468E+00  0.51100000000E-03 0. -1.
         11    1    4    4    0    0  0.48260182331E-02 -0.12508491337E-01 -0.33597068831E-02  0.13831180674E-01  0.51100000000E-03 0.  1.
</event>
<event>
 8    1  0.1101883E+005  0.1043930E+01  0.7957747E-01            NaN
         13   -1    0    0    0    0  0.00000000000E+00  0.00000000000E+00  0.74505805969E-08  0.10566000000E+00  0.10566000000E+00 0. -1.
     999900   -1    0    0    0    0 -0.00000000000E+00 -0.00000000000E+00 -0.74505805969E-08  0.93827000000E+00  0.93827000000E+00 0. -1.
     999902    2    1    2    0    0 -0.35939155383E-02  0.79517019066E-02 -0.22307640460E-01  0.10199763653E+01  0.10196950570E+01 0.  0.
     999903    2    3    3    0    0 -0.54466279335E-02 -0.11050986031E+00 -0.66982211863E-01  0.13091371757E+00  0.20240794494E-01 0.  0.
         14    1    1    2    0    0  0.35939155383E-02 -0.79517019066E-02  0.22307640460E-01  0.23953634693E-01  0.00000000000E+00 0. -1.
     999901    1    3    3    0    0  0.18527123952E-02  0.11846156221E+00  0.44674571403E-01  0.88906264773E+00  0.88000000000E+00 0.  1.
        -11    1    4    4    0    0  0.54342240176E-02 -0.35650725325E-01 -0.28926806921E-01  0.46233389304E-01  0.51100000000E-03 0. -1.
         11    1    4    4    0    0 -0.10880851951E-01 -0.74859134983E-01 -0.38055404941E-01  0.84680328269E-01  0.51100000000E-03 0.  1.
</event>
<event>
 8    1  0.1101883E+005  0.1043930E+01  0.7957747E-01            NaN
         13   -1    0    0    0    0  0.00000000000E+00  0.00000000000E+00  0.74505805969E-08  0.10566000000E+00  0.10566000000E+00 0. -1.
     999900   -1    0    0    0    0 -0.00000000000E+00 -0.00000000000E+00 -0.74505805969E-08  0.93827000000E+00  0.93827000000E+00 0. -1.
     999902    2    1    2    0    0  0.11186213810E-01  0.19984314182E-01 -0.22889541064E-02  0.10209138426E+01  0.10206543638E+01 0.  0.
     999903    2    3    3    0    0 -0.44218279017E-01  0.10033617083E+00 -0.72377797038E-01  0.13274802211E+00  0.18997065426E-01 0.  0.
         14    1    1    2    0    0 -0.11186213810E-01 -0.19984314182E-01  0.22889541064E-02  0.23016157447E-01  0.00000000000E+00 0. -1.
     999901    1    3    3    0    0  0.55404492826E-01 -0.80351856648E-01  0.70088842932E-01  0.88816582044E+00  0.88000000000E+00 0.  1.
        -11    1    4    4    0    0 -0.10578046861E-01  0.34431167390E-01 -0.33350131071E-01  0.49090658243E-01  0.51100000000E-03 0.  1.
         11    1    4    4    0    0 -0.33640232155E-01  0.65905003441E-01 -0.39027665967E-01  0.83657363871E-01  0.51100000000E-03 0. -1.
</event>
<event>
 8    1  0.1101883E+005  0.1043930E+01  0.7957747E-01            NaN
         13   -1    0    0    0    0  0.00000000000E+00  0.00000000000E+00  0.74505805969E-08  0.10566000000E+00  0.10566000000E+00 0. -1.
     999900   -1    0    0    0    0 -0.00000000000E+00 -0.00000000000E+00 -0.74505805969E-08  0.93827000000E+00  0.93827000000E+00 0.  1.
     999902    2    1    2    0    0  0.78644419097E-02 -0.17634813894E-01 -0.13339843863E-01  0.10204611368E+01  0.10201912292E+01 0.  0.
     999903    2    3    3    0    0 -0.13214706408E-01  0.11883492073E+00  0.40181205786E-01  0.12808631544E+00  0.22253270678E-01 0.  0.
         14    1    1    2    0    0 -0.78644419097E-02  0.17634813894E-01  0.13339843863E-01  0.23468863243E-01  0.00000000000E+00 0. -1.
     999901    1    3    3    0    0  0.21079148318E-01 -0.13646973462E+00 -0.53521049649E-01  0.89237482131E+00  0.88000000000E+00 0.  1.
        -11    1    4    4    0    0 -0.18328968744E-02  0.74325473925E-01  0.15560338839E-01  0.75960653307E-01  0.51100000000E-03 0. -1.
         11    1    4    4    0    0 -0.11381809534E-01  0.44509446800E-01  0.24620866947E-01  0.52125662135E-01  0.51100000000E-03 0.  1.
</event>
<event>
 8    1  0.1101883E+005  0.1043930E+01  0.7957747E-01            NaN
         13   -1    0    0    0    0  0.00000000000E+00  0.00000000000E+00  0.74505805969E-08  0.10566000000E+00  0.10566000000E+00 0.  1.
     999900   -1    0    0    0    0 -0.00000000000E+00 -0.00000000000E+00 -0.74505805969E-08  0.93827000000E+00  0.93827000000E+00 0. -1.
     999902    2    1    2    0    0 -0.15866792720E-01 -0.85288472328E-02  0.16500527595E-01  0.10195012514E+01  0.10192085350E+01 0.  0.
     999903    2    3    3    0    0 -0.11604060581E+00 -0.45512166545E-01 -0.36775651054E-01  0.13144668668E+00  0.19723169871E-01 0.  0.
         14    1    1    2    0    0  0.15866792720E-01  0.85288472328E-02 -0.16500527595E-01  0.24428748581E-01  0.00000000000E+00 0. -1.
     999901    1    3    3    0    0  0.10017381309E+00  0.36983319313E-01  0.53276178649E-01  0.88805456474E+00  0.88000000000E+00 0.  1.
        -11    1    4    4    0    0 -0.88055958559E-01 -0.43202389019E-01 -0.27423049758E-01  0.10184587883E+00  0.51100000000E-03 0. -1.
         11    1    4    4    0    0 -0.27984647248E-01 -0.23097775267E-02 -0.93526012962E-02  0.29600807858E-01  0.51100000000E-03 0.  1.
</event>
<event>
 8    1  0.1101883E+005  0.1043930E+01  0.7957747E-01            NaN
         13   -1    0    0    0    0  0.00000000000E+00  0.00000000000E+00  0.74505805969E-08  0.10566000000E+00  0.10566000000E+00 0. -1.
     999900   -1    0    0    0    0 -0.00000000000E+00 -0.00000000000E+00 -0.74505805969E-08  0.93827000000E+00  0.93827000000E+00 0.  1.
     999902    2    1    2    0    0  0.15570440145E-01 -0.14655672792E-01 -0.11855671155E-01  0.10194803724E+01  0.10191871494E+01 0.  0.
     999903    2    3    3    0    0 -0.77357804713E-01  0.31779342723E-01  0.93523181310E-01  0.12712586218E+00  0.20499824855E-01 0.  0.
         14    1    1    2    0    0 -0.15570440145E-01  0.14655672792E-01  0.11855671155E-01  0.24449627601E-01  0.00000000000E+00 0. -1.
     999901    1    3    3    0    0  0.92928244857E-01 -0.46435015515E-01 -0.10537885247E+00  0.89235451022E+00  0.88000000000E+00 0.  1.
        -11    1    4    4    0    0 -0.39261842179E-01  0.26028920827E-01  0.57972898612E-01  0.74700167772E-01  0.51100000000E-03 0. -1.
         11    1    4    4    0    0 -0.38095962534E-01  0.57504218959E-02  0.35550282698E-01  0.52425694409E-01  0.51100000000E-03 0.  1.
</event>
<event>
 8    1  0.1101883E+005  0.1043930E+01  0.7957747E-01            NaN
         13   -1    0    0    0    0  0.00000000000E+00  0.00000000000E+00  0.74505805969E-08  0.10566000000E+00  0.10566000000E+00 0. -1.
     999900   -1    0    0    0    0 -0.00000000000E+00 -0.00000000000E+00 -0.74505805969E-08  0.93827000000E+00  0.93827000000E+00 0.  1.
     999902    2    1    2    0    0  0.15489395628E-01 -0.20950868337E-02  0.17042913017E-01  0.10208048697E+01  0.10205428998E+01 0.  0.
     999903    2    3    3    0    0 -0.48467953884E-01 -0.76188305965E-01  0.94483756953E-01  0.13199812359E+00  0.18507398088E-01 0.  0.
         14    1    1    2    0    0 -0.15489395628E-01  0.20950868337E-02 -0.17042913017E-01  0.23125130267E-01  0.00000000000E+00 0.  1.
     999901    1    3    3    0    0  0.63957349511E-01  0.74093219132E-01 -0.77440843936E-01  0.88880674614E+00  0.88000000000E+00 0.  1.
        -11    1    4    4    0    0 -0.13231044828E-01 -0.37353808551E-01  0.43783933800E-01  0.59056426750E-01  0.51100000000E-03 0. -1.
         11    1    4    4    0    0 -0.35236909056E-01 -0.38834497415E-01  0.50699823153E-01  0.72941696841E-01  0.51100000000E-03 0.  1.
</event>
<event>
 8    1  0.1101883E+005  0.1043930E+01  0.7957747E-01            NaN
         13   -1    0    0    0    0  0.00000000000E+00  0.00000000000E+00  0.74505805969E-08  0.10566000000E+00  0.10566000000E+00 0. -1.
     999900   -1    0    0    0    0 -0.00000000000E+00 -0.00000000000E+00 -0.74505805969E-08  0.93827000000E+00  0.93827000000E+00 0. -1.
     999902    2    1    2    0    0  0.10560942244E-01  0.55086813012E-02 -0.20149660732E-01  0.10205229947E+01  0.10202545245E+01 0.  0.
     999903    2    3    3    0    0 -0.46309701459E-01 -0.68333039931E-01  0.95759605081E-01  0.12804227902E+00  0.20271419688E-01 0.  0.
         14    1    1    2    0    0 -0.10560942244E-01 -0.55086813012E-02  0.20149660732E-01  0.23407005327E-01  0.00000000000E+00 0. -1.
     999901    1    3    3    0    0  0.56870643703E-01  0.73841721232E-01 -0.11590926581E+00  0.89248071565E+00  0.88000000000E+00 0. -1.
        -11    1    4    4    0    0 -0.18363788035E-01 -0.44482724678E-01  0.57780082643E-01  0.75198009129E-01  0.51100000000E-03 0. -1.
         11    1    4    4    0    0 -0.27945913424E-01 -0.23850315253E-01  0.37979522438E-01  0.52844269892E-01  0.51100000000E-03 0.  1.
</event>
<event>
 8    1  0.1101883E+005  0.1043930E+01  0.7957747E-01            NaN
         13   -1    0    0    0    0  0.00000000000E+00  0.00000000000E+00  0.74505805969E-08  0.10566000000E+00  0.10566000000E+00 0.  1.
     999900   -1    0    0    0    0 -0.00000000000E+00 -0.00000000000E+00 -0.74505805969E-08  0.93827000000E+00  0.93827000000E+00 0. -1.
     999902    2    1    2    0    0 -0.28020569136E-02 -0.10405772725E-01  0.23280150038E-01  0.10182765984E+01  0.10179534045E+01 0.  0.
     999903    2    3    3    0    0 -0.25261513208E-01  0.86753625466E-01  0.91773725859E-01  0.12999975766E+00  0.17697023808E-01 0.  0.
         14    1    1    2    0    0  0.28020569136E-02  0.10405772725E-01 -0.23280150038E-01  0.25653401622E-01  0.00000000000E+00 0. -1.
     999901    1    3    3    0    0  0.22459456294E-01 -0.97159398191E-01 -0.68493575821E-01  0.88827684072E+00  0.88000000000E+00 0. -1.
        -11    1    4    4    0    0 -0.25938912268E-01  0.64360893724E-01  0.64944093224E-01  0.95042875463E-01  0.51100000000E-03 0.  1.
         11    1    4    4    0    0  0.67739906009E-03  0.22392731742E-01  0.26829632635E-01  0.34956882193E-01  0.51100000000E-03 0. -1.
</event>
<event>
 8    1  0.1101883E+005  0.1043930E+01  0.7957747E-01            NaN
         13   -1    0    0    0    0  0.00000000000E+00  0.00000000000E+00  0.74505805969E-08  0.10566000000E+00  0.10566000000E+00 0.  1.
     999900   -1    0    0    0    0 -0.00000000000E+00 -0.00000000000E+00 -0.74505805969E-08  0.93827000000E+00  0.93827000000E+00 0.  1.
     999902    2    1    2    0    0  0.17104038282E-01 -0.16902272852E-01  0.19784170540E-02  0.10198022341E+01  0.10195167716E+01 0.  0.
     999903    2    3    3    0    0 -0.16141150726E-01  0.12292812450E+00  0.25025842653E-01  0.12784429426E+00  0.18601350384E-01 0.  0.
         14    1    1    2    0    0 -0.17104038282E-01  0.16902272852E-01 -0.19784170540E-02  0.24127765897E-01  0.00000000000E+00 0. -1.
     999901    1    3    3    0    0  0.33245189008E-01 -0.13983039735E+00 -0.23047425599E-01  0.89195793984E+00  0.88000000000E+00 0.  1.
        -11    1    4    4    0    0 -0.52552964072E-02  0.68124474632E-01  0.22396918123E-01  0.71905808157E-01  0.51100000000E-03 0.  1.
         11    1    4    4    0    0 -0.10885854318E-01  0.54803649865E-01  0.26289245302E-02  0.55938486107E-01  0.51100000000E-03 0. -1.
</event>
<event>
 8    1  0.1101883E+005  0.1043930E+01  0.7957747E-01            NaN
         13   -1    0    0    0    0  0.00000000000E+00  0.00000000000E+00  0.74505805969E-08  0.10566000000E+00  0.10566000000E+00 0.  1.
     999900   -1    0    0    0    0 -0.00000000000E+00 -0.00000000000E+00 -0.74505805969E-08  0.93827000000E+00  0.93827000000E+00 0.  1.
     999902    2    1    2    0    0  0.23409903422E-01  0.50470352091E-02  0.24223720483E-02  0.10198600181E+01  0.10195759376E+01 0.  0.
     999903    2    3    3    0    0 -0.24058118703E-01 -0.12266535533E+00  0.26476117625E-01  0.12905013349E+00  0.18093359993E-01 0.  0.
         14    1    1    2    0    0 -0.23409903422E-01 -0.50470352091E-02 -0.24223720483E-02  0.24069981906E-01  0.00000000000E+00 0. -1.
     999901    1    3    3    0    0  0.47468022125E-01  0.12771239054E+00 -0.24053745576E-01  0.89080988460E+00  0.88000000000E+00 0.  1.
        -11    1    4    4    0    0 -0.27813401725E-02 -0.38734427555E-01  0.12283605185E-02  0.38856939170E-01  0.51100000000E-03 0. -1.
         11    1    4    4    0    0 -0.21276778530E-01 -0.83930927779E-01  0.25247757106E-01  0.90193194324E-01  0.51100000000E-03 0.  1.
</event>
<event>
 8    1  0.1101883E+005  0.1043930E+01  0.7957747E-01            NaN
         13   -1    0    0    0    0  0.00000000000E+00  0.00000000000E+00  0.74505805969E-08  0.10566000000E+00  0.10566000000E+00 0. -1.
     999900   -1    0    0    0    0 -0.00000000000E+00 -0.00000000000E+00 -0.74505805969E-08  0.93827000000E+00  0.93827000000E+00 0. -1.
     999902    2    1    2    0    0 -0.19867726301E-01 -0.98046734519E-02  0.56129594140E-02  0.10210747275E+01  0.10208189044E+01 0.  0.
     999903    2    3    3    0    0  0.89779947806E-01 -0.89000381548E-01  0.25792641465E-01  0.13051210069E+00  0.19663192239E-01 0.  0.
         14    1    1    2    0    0  0.19867726301E-01  0.98046734519E-02 -0.56129594140E-02  0.22855272548E-01  0.00000000000E+00 0. -1.
     999901    1    3    3    0    0 -0.10964767411E+00  0.79195708096E-01 -0.20179682051E-01  0.89056262676E+00  0.88000000000E+00 0.  1.
        -11    1    4    4    0    0  0.44206203506E-01 -0.57370880009E-01  0.13133264546E-01  0.73609442737E-01  0.51100000000E-03 0. -1.
         11    1    4    4    0    0  0.45573744300E-01 -0.31629501539E-01  0.12659376919E-01  0.56902657953E-01  0.51100000000E-03 0.  1.
</event>
<event>
 8    1  0.1101883E+005  0.1043930E+01  0.7957747E-01            NaN
         13   -1    0    0    0    0  0.00000000000E+00  0.00000000000E+00  0.74505805969E-08  0.10566000000E+00  0.10566000000E+00 0.  1.
     999900   -1    0    0    0    0 -0.00000000000E+00 -0.00000000000E+00 -0.74505805969E-08  0.93827000000E+00  0.93827000000E+00 0. -1.
     999902    2    1    2    0    0  0.41129701006E-02 -0.20814234195E-01 -0.67423996179E-02  0.10216677265E+01  0.10214251488E+01 0.  0.
     999903    2    3    3    0    0 -0.16732014000E-01 -0.11982487826E+00  0.53342158903E-01  0.13383453544E+00  0.20696260935E-01 0.  0.
         14    1    1    2    0    0 -0.41129701006E-02  0.20814234195E-01  0.67423996179E-02  0.22262273486E-01  0.00000000000E+00 0.  1.
     999901    1    3    3    0    0  0.20844984101E-01  0.99010644068E-01 -0.60084558521E-01  0.88783319107E+00  0.88000000000E+00 0.  1.
        -11    1    4    4    0    0  0.23911744035E-02 -0.16611188402E-01  0.13543421701E-01  0.21571617638E-01  0.51100000000E-03 0. -1.
         11    1    4    4    0    0 -0.19123188404E-01 -0.10321368986E+00  0.39798737202E-01  0.11226291780E+00  0.51100000000E-03 0.  1.
</event>
<event>
 8    1  0.1101883E+005  0.1043930E+01  0.7957747E-01            NaN
         13   -1    0    0    0    0  0.00000000000E+00  0.00000000000E+00  0.74505805969E-08  0.10566000000E+00  0.10566000000E+00 0. -1.
     999900   -1    0    0    0    0 -0.00000000000E+00 -0.00000000000E+00 -0.74505805969E-08  0.93827000000E+00  0.93827000000E+00 0.  1.
     999902    2    1    2    0    0 -0.22611321982E-01 -0.16204386135E-02 -0.12169115476E-01  0.10182009294E+01  0.10178758016E+01 0.  0.
     999903    2    3    3    0    0 -0.70251024725E-01 -0.10554722640E+00  0.21721540899E-01  0.13015875973E+00  0.19850791461E-01 0.  0.
         14    1    1    2    0    0  0.22611321982E-01  0.16204386135E-02  0.12169115476E-01  0.25729070611E-01  0.00000000000E+00 0. -1.
     999901    1    3    3    0    0  0.47639702744E-01  0.10392678778E+00 -0.33890656375E-01  0.88804216966E+00  0.88000000000E+00 0. -1.
        -11    1    4    4    0    0 -0.91140628017E-03 -0.10668289940E-01  0.32327232026E-02  0.11196190957E-01  0.51100000000E-03 0. -1.
         11    1    4    4    0    0 -0.69339618445E-01 -0.94878936456E-01  0.18488817696E-01  0.11896256878E+00  0.51100000000E-03 0.  1.
</event>
<event>
 8    1  0.1101883E+005  0.1043930E+01  0.7957747E-01            NaN
         13   -1    0    0    0    0  0.00000000000E+00  0.00000000000E+00  0.74505805969E-08  0.10566000000E+00  0.10566000000E+00 0.  1.
     999900   -1    0    0    0    0 -0.00000000000E+00 -0.00000000000E+00 -0.74505805969E-08  0.93827000000E+00  0.93827000000E+00 0.  1.
     999902    2    1    2    0    0 -0.21009065379E-01  0.11217455981E-01 -0.14028660986E-02  0.10200725026E+01  0.10197934744E+01 0.  0.
     999903    2    3    3    0    0  0.12841584279E-01 -0.70559951327E-01  0.10556880091E+00  0.12918735383E+00  0.20024675930E-01 0.  0.
         14    1    1    2    0    0  0.21009065379E-01 -0.11217455981E-01  0.14028660986E-02  0.23857497355E-01  0.00000000000E+00 0.  1.
     999901    1    3    3    0    0 -0.33850649658E-01  0.81777407308E-01 -0.10697166701E+00  0.89088514881E+00  0.88000000000E+00 0.  1.
        -11    1    4    4    0    0  0.14434467289E-01 -0.25786750400E-01  0.45288326404E-01  0.54079607724E-01  0.51100000000E-03 0.  1.
         11    1    4    4    0    0 -0.15928830100E-02 -0.44773200927E-01  0.60280474510E-01  0.75107746110E-01  0.51100000000E-03 0. -1.
</event>
<event>
 8    1  0.1101883E+005  0.1043930E+01  0.7957747E-01            NaN
         13   -1    0    0    0    0  0.00000000000E+00  0.00000000000E+00  0.74505805969E-08  0.10566000000E+00  0.10566000000E+00 0.  1.
     999900   -1    0    0    0    0 -0.00000000000E+00 -0.00000000000E+00 -0.74505805969E-08  0.93827000000E+00  0.93827000000E+00 0. -1.
     999902    2    1    2    0    0 -0.72448006156E-02 -0.23150743519E-01  0.69204967519E-02  0.10187042723E+01  0.10183918976E+01 0.  0.
     999903    2    3    3    0    0 -0.79829828372E-01  0.42035575807E-01 -0.87853505164E-01  0.12825497342E+00  0.24316839964E-01 0.  0.
         14    1    1    2    0    0  0.72448006156E-02  0.23150743519E-01 -0.69204967519E-02  0.25225727675E-01  0.00000000000E+00 0.  1.
     999901    1    3    3    0    0  0.72585027756E-01 -0.65186319327E-01  0.94774001916E-01  0.89044929891E+00  0.88000000000E+00 0. -1.
        -11    1    4    4    0    0 -0.37932172448E-01  0.33570030591E-01 -0.45852983047E-01  0.68326816374E-01  0.51100000000E-03 0. -1.
         11    1    4    4    0    0 -0.41897655924E-01  0.84655452163E-02 -0.42000522117E-01  0.59928157045E-01  0.51100000000E-03 0.  1.
</event>
<event>
 8    1  0.1101883E+005  0.1043930E+01  0.7957747E-01            NaN
         13   -1    0    0    0    0  0.00000000000E+00  0.00000000000E+00  0.74505805969E-08  0.10566000000E+00  0.10566000000E+00 0. -1.
     999900   -1    0    0    0    0 -0.00000000000E+00 -0.00000000000E+00 -0.74505805969E-08  0.93827000000E+00  0.93827000000E+00 0. -1.
     999902    2    1    2    0    0 -0.16319167857E-01  0.92128994148E-02 -0.16196502646E-01  0.10191606752E+01  0.10188596382E+01 0.  0.
     999903    2    3    3    0    0  0.32469235491E-01  0.83822289962E-02  0.12111448383E+00  0.12717675976E+00  0.19511458520E-01 0.  0.
         14    1    1    2    0    0  0.16319167857E-01 -0.92128994148E-02  0.16196502646E-01  0.24769324842E-01  0.00000000000E+00 0. -1.
     999901    1    3    3    0    0 -0.48788403348E-01  0.83067041857E-03 -0.13731098648E+00  0.89198391539E+00  0.88000000000E+00 0. -1.
        -11    1    4    4    0    0  0.24050340029E-01  0.13040162967E-01  0.10396919877E+00  0.10750962803E+00  0.51100000000E-03 0.  1.
         11    1    4    4    0    0  0.84188954623E-02 -0.46579339706E-02  0.17145285067E-01  0.19667131736E-01  0.51100000000E-03 0. -1.
</event>
<event>
 8    1  0.1101883E+005  0.1043930E+01  0.7957747E-01            NaN
         13   -1    0    0    0    0  0.00000000000E+00  0.00000000000E+00  0.74505805969E-08  0.10566000000E+00  0.10566000000E+00 0.  1.
     999900   -1    0    0    0    0 -0.00000000000E+00 -0.00000000000E+00 -0.74505805969E-08  0.93827000000E+00  0.93827000000E+00 0.  1.
     999902    2    1    2    0    0 -0.16640065657E-01 -0.11957906449E-01 -0.11858215484E-01  0.10202551064E+01  0.10199803829E+01 0.  0.
     999903    2    3    3    0    0  0.86688256001E-01 -0.87982686216E-01  0.34882500746E-01  0.12972649725E+00  0.18877723049E-01 0.  0.
         14    1    1    2    0    0  0.16640065657E-01  0.11957906449E-01  0.11858215484E-01  0.23674893583E-01  0.00000000000E+00 0.  1.
     999901    1    3    3    0    0 -0.10332832166E+00  0.76024779767E-01 -0.46740716230E-01  0.89052860917E+00  0.88000000000E+00 0.  1.
        -11    1    4    4    0    0  0.68621747285E-01 -0.58785029528E-01  0.21579641097E-01  0.92900839221E-01  0.51100000000E-03 0. -1.
         11    1    4    4    0    0  0.18066508716E-01 -0.29197656688E-01  0.13302859649E-01  0.36825658027E-01  0.51100000000E-03 0.  1.
</event>
<event>
 8    1  0.1101883E+005  0.1043930E+01  0.7957747E-01            NaN
         13   -1    0    0    0    0  0.00000000000E+00  0.00000000000E+00  0.74505805969E-08  0.10566000000E+00  0.10566000000E+00 0.  1.
     999900   -1    0    0    0    0 -0.00000000000E+00 -0.00000000000E+00 -0.74505805969E-08  0.93827000000E+00  0.93827000000E+00 0.  1.
     999902    2    1    2    0    0 -0.37374048492E-02 -0.22814565638E-01 -0.14745992820E-02  0.10207643564E+01  0.10205014573E+01 0.  0.
     999903    2    3    3    0    0  0.69153648346E-01  0.81669766436E-01  0.68963887988E-01  0.12880490566E+00  0.19557812907E-01 0.  0.
         14    1    1    2    0    0  0.37374048492E-02  0.22814565638E-01  0.14745992820E-02  0.23165643598E-01  0.00000000000E+00 0.  1.
     999901    1    3    3    0    0 -0.72891053196E-01 -0.10448433207E+00 -0.70438487270E-01  0.89195945075E+00  0.88000000000E+00 0. -1.
        -11    1    4    4    0    0  0.44149344853E-02  0.15814905612E-01  0.11088307378E-01  0.19819550135E-01  0.51100000000E-03 0. -1.
         11    1    4    4    0    0  0.64738713861E-01  0.65854860823E-01  0.57875580610E-01  0.10898535552E+00  0.51100000000E-03 0.  1.
</event>
<event>
 8    1  0.1101883E+005  0.1043930E+01  0.7957747E-01            NaN
         13   -1    0    0    0    0  0.00000000000E+00  0.00000000000E+00  0.74505805969E-08  0.10566000000E+00  0.10566000000E+00 0. -1.
     999900   -1    0    0    0    0 -0.00000000000E+00 -0.00000000000E+00 -0.74505805969E-08  0.93827000000E+00  0.93827000000E+00 0. -1.
     999902    2    1    2    0    0 -0.62859844465E-04 -0.17971100353E-01  0.14468932719E-01  0.10208580600E+01  0.10205973076E+01 0.  0.
     999903    2    3    3    0    0  0.23841333386E-01  0.12383294111E+00 -0.15336069606E-01  0.12868759719E+00  0.20549845707E-01 0.  0.
         14    1    1    2    0    0  0.62859844465E-04  0.17971100353E-01 -0.14468932719E-01  0.23071939955E-01  0.00000000000E+00 0.  1.
     999901    1    3    3    0    0 -0.23904193231E-01 -0.14180404146E+00  0.29805002325E-01  0.89217046286E+00  0.88000000000E+00 0. -1.
        -11    1    4    4    0    0  0.17617119511E-01  0.57636885805E-01 -0.15359242973E-01  0.62197596182E-01  0.51100000000E-03 0.  1.
         11    1    4    4    0    0  0.62242138754E-02  0.66196055302E-01  0.23173367206E-04  0.66490001007E-01  0.51100000000E-03 0. -1.
</event>
<event>
 8    1  0.1101883E+005  0.1043930E+01  0.7957747E-01            NaN
         13   -1    0    0    0    0  0.00000000000E+00  0.00000000000E+00  0.74505805969E-08  0.10566000000E+00  0.10566000000E+00 0. -1.
     999900   -1    0    0    0    0 -0.00000000000E+00 -0.00000000000E+00 -0.74505805969E-08  0.93827000000E+00  0.93827000000E+00 0.  1.
     999902    2    1    2    0    0  0.13123585620E-01 -0.18375723337E-01 -0.56153657515E-02  0.10206613937E+01  0.10203961253E+01 0.  0.
     999903    2    3    3    0    0 -0.10830641779E+00 -0.26529359091E-01  0.63352480485E-01  0.12961241000E+00  0.18755079653E-01 0.  0.
         14    1    1    2    0    0 -0.13123585620E-01  0.18375723337E-01  0.56153657515E-02  0.23268606323E-01  0.00000000000E+00 0. -1.
     999901    1    3    3    0    0  0.12143000341E+00  0.81536357543E-02 -0.68967846237E-01  0.89104898368E+00  0.88000000000E+00 0.  1.
        -11    1    4    4    0    0 -0.89074973852E-01 -0.14919587195E-01  0.46940835656E-01  0.10178726945E+00  0.51100000000E-03 0.  1.
         11    1    4    4    0    0 -0.19231443940E-01 -0.11609771896E-01  0.16411644829E-01  0.27825140547E-01  0.51100000000E-03 0. -1.
</event>
<event>
 8    1  0.1101883E+005  0.1043930E+01  0.7957747E-01            NaN
         13   -1    0    0    0    0  0.00000000000E+00  0.00000000000E+00  0.74505805969E-08  0.10566000000E+00  0.10566000000E+00 0. -1.
     999900   -1    0    0    0    0 -0.00000000000E+00 -0.00000000000E+00 -0.74505805969E-08  0.93827000000E+00  0.93827000000E+00 0.  1.
     999902    2    1    2    0    0  0.12514202861E-01 -0.20183935812E-01  0.29539907151E-02  0.10199983766E+01  0.10197175911E+01 0.  0.
     999903    2    3    3    0    0 -0.12382895506E-01  0.12368477293E+00 -0.18031608159E-01  0.12772125247E+00  0.23158589858E-01 0.  0.
         14    1    1    2    0    0 -0.12514202861E-01  0.20183935812E-01 -0.29539907151E-02  0.23931623415E-01  0.00000000000E+00 0.  1.
     999901    1    3    3    0    0  0.24897098367E-01 -0.14386870874E+00  0.20985598874E-01  0.89227712412E+00  0.88000000000E+00 0. -1.
        -11    1    4    4    0    0  0.67069945200E-02  0.38410530926E-01 -0.37411562273E-02  0.39174098999E-01  0.51100000000E-03 0.  1.
         11    1    4    4    0    0 -0.19089890026E-01  0.85274242001E-01 -0.14290451931E-01  0.88547153469E-01  0.51100000000E-03 0. -1.
</event>
<event>
 8    1  0.1101883E+005  0.1043930E+01  0.7957747E-01            NaN
         13   -1    0    0    0    0  0.00000000000E+00  0.00000000000E+00  0.74505805969E-08  0.10566000000E+00  0.10566000000E+00 0. -1.
     999900   -1    0    0    0    0 -0.00000000000E+00 -0.00000000000E+00 -0.74505805969E-08  0.93827000000E+00  0.93827000000E+00 0. -1.
     999902    2    1    2    0    0 -0.18631098300E-01  0.13459146763E-01 -0.37603113195E-02  0.10206403801E+01  0.10203746268E+01 0.  0.
     999903    2    3    3    0    0  0.74869660101E-01 -0.78368064679E-01 -0.66418790702E-01  0.12873191300E+00  0.20332980637E-01 0.  0.
         14    1    1    2    0    0  0.18631098300E-01 -0.13459146763E-01  0.37603113195E-02  0.23289619934E-01  0.00000000000E+00 0. -1.
     999901    1    3    3    0    0 -0.93500758401E-01  0.91827211441E-01  0.62658479382E-01  0.89190846706E+00  0.88000000000E+00 0.  1.
        -11    1    4    4    0    0  0.30528914148E-01 -0.26578783643E-01 -0.35608993048E-01  0.53913892884E-01  0.51100000000E-03 0.  1.
         11    1    4    4    0    0  0.44340745953E-01 -0.51789281036E-01 -0.30809797654E-01  0.74818020118E-01  0.51100000000E-03 0. -1.
</event>
<event>
 8    1  0.1101883E+005  0.1043930E+01  0.7957747E-01            NaN
         13   -1    0    0    0    0  0.00000000000E+00  0.00000000000E+00  0.74505805969E-08  0.10566000000E+00  0.10566000000E+00 0. -1.
     999900   -1    0    0    0    0 -0.00000000000E+00 -0.00000000000E+00 -0.74505805969E-08  0.93827000000E+00  0.93827000000E+00 0.  1.
     999902    2    1    2    0    0 -0.14911936711E-01  0.14159013562E-01  0.13689203108E-01  0.10192270082E+01  0.10189276012E+01 0.  0.
     999903    2    3    3    0    0  0.55392340277E-01 -0.52232129256E-01 -0.99469882247E-01  0.12672745426E+00  0.19211546037E-01 0.  0.
         14    1    1    2    0    0  0.14911936711E-01 -0.14159013562E-01 -0.13689203108E-01  0.24702991787E-01  0.00000000000E+00 0. -1.
     999901    1    3    3    0    0 -0.70304276988E-01  0.66391142817E-01  0.11315908535E+00  0.89249955395E+00  0.88000000000E+00 0. -1.
        -11    1    4    4    0    0  0.22014326865E-01 -0.23834726907E-01 -0.57619518522E-01  0.66128623378E-01  0.51100000000E-03 0.  1.
         11    1    4    4    0    0  0.33378013412E-01 -0.28397402348E-01 -0.41850363724E-01  0.60598830883E-01  0.51100000000E-03 0. -1.
</event>
<event>
 8    1  0.1101883E+005  0.1043930E+01  0.7957747E-01            NaN
         13   -1    0    0    0    0  0.00000000000E+00  0.00000000000E+00  0.74505805969E-08  0.10566000000E+00  0.10566000000E+00 0. -1.
     999900   -1    0    0    0    0 -0.00000000000E+00 -0.00000000000E+00 -0.74505805969E-08  0.93827000000E+00  0.93827000000E+00 0.  1.
     999902    2    1    2    0    0 -0.18959771555E-01  0.13759865720E-01  0.14280800025E-02  0.10204598859E+01  0.10201899492E+01 0.  0.
     999903    2    3    3    0    0  0.91480675845E-01 -0.68376009985E-01  0.54862305360E-01  0.12816026644E+00  0.19266254178E-01 0.  0.
         14    1    1    2    0    0  0.18959771555E-01 -0.13759865720E-01 -0.14280800025E-02  0.23470114071E-01  0.00000000000E+00 0.  1.
     999901    1    3    3    0    0 -0.11044044740E+00  0.82135875705E-01 -0.53434225357E-01  0.89229961949E+00  0.88000000000E+00 0.  1.
        -11    1    4    4    0    0  0.51016979902E-01 -0.27767565607E-01  0.32986826890E-01  0.66799414723E-01  0.51100000000E-03 0.  1.
         11    1    4    4    0    0  0.40463695944E-01 -0.40608444378E-01  0.21875478470E-01  0.61360851717E-01  0.51100000000E-03 0. -1.
</event>
<event>
 8    1  0.1101883E+005  0.1043930E+01  0.7957747E-01            NaN
         13   -1    0    0    0    0  0.00000000000E+00  0.00000000000E+00  0.74505805969E-08  0.10566000000E+00  0.10566000000E+00 0.  1.
     999900   -1    0    0    0    0 -0.00000000000E+00 -0.00000000000E+00 -0.74505805969E-08  0.93827000000E+00  0.93827000000E+00 0.  1.
     999902    2    1    2    0    0  0.16329774670E-01  0.16097518082E-01 -0.52462046680E-03  0.10209938526E+01  0.10207361952E+01 0.  0.
     999903    2    3    3    0    0  0.12015562923E+00  0.43891736465E-01  0.33697859316E-01  0.13379404156E+00  0.20035969359E-01 0.  0.
         14    1    1    2    0    0 -0.16329774670E-01 -0.16097518082E-01  0.52462046680E-03  0.22936147362E-01  0.00000000000E+00 0.  1.
     999901    1    3    3    0    0 -0.10382585457E+00 -0.27794218382E-01 -0.34222479782E-01  0.88719981108E+00  0.88000000000E+00 0.  1.
        -11    1    4    4    0    0  0.84752208131E-01  0.34630988754E-01  0.15278276127E-01  0.92822028676E-01  0.51100000000E-03 0. -1.
         11    1    4    4    0    0  0.35403421104E-01  0.92607477105E-02  0.18419583188E-01  0.40972012885E-01  0.51100000000E-03 0.  1.
</event>
<event>
 8    1  0.1101883E+005  0.1043930E+01  0.7957747E-01            NaN
         13   -1    0    0    0    0  0.00000000000E+00  0.00000000000E+00  0.74505805969E-08  0.10566000000E+00  0.10566000000E+00 0.  1.
     999900   -1    0    0    0    0 -0.00000000000E+00 -0.00000000000E+00 -0.74505805969E-08  0.93827000000E+00  0.93827000000E+00 0.  1.
     999902    2    1    2    0    0 -0.14773646310E-01 -0.23117269487E-03  0.18585675079E-01  0.10201867613E+01  0.10199104306E+01 0.  0.
     999903    2    3    3    0    0  0.20462596990E-01 -0.11600080674E+00 -0.49738656087E-01  0.12928137056E+00  0.19100623689E-01 0.  0.
         14    1    1    2    0    0  0.14773646310E-01  0.23117269487E-03 -0.18585675079E-01  0.23743238706E-01  0.00000000000E+00 0. -1.
     999901    1    3    3    0    0 -0.35236243300E-01  0.11576963404E+00  0.68324331166E-01  0.89090539073E+00  0.88000000000E+00 0.  1.
        -11    1    4    4    0    0  0.18013363985E-01 -0.85992481676E-01 -0.28259223480E-01  0.92293190537E-01  0.51100000000E-03 0. -1.
         11    1    4    4    0    0  0.24492330050E-02 -0.30008325062E-01 -0.21479432607E-01  0.36988180024E-01  0.51100000000E-03 0.  1.
</event>
<event>
 8    1  0.1101883E+005  0.1043930E+01  0.7957747E-01            NaN
         13   -1    0    0    0    0  0.00000000000E+00  0.00000000000E+00  0.74505805969E-08  0.10566000000E+00  0.10566000000E+00 0. -1.
     999900   -1    0    0    0    0 -0.00000000000E+00 -0.00000000000E+00 -0.74505805969E-08  0.93827000000E+00  0.93827000000E+00 0.  1.
     999902    2    1    2    0    0 -0.45217646488E-02 -0.17955032305E-01 -0.14461732505E-01  0.10204359317E+01  0.10201654372E+01 0.  0.
     999903    2    3    3    0    0 -0.51783888129E-01 -0.62933520718E-01 -0.10428987769E+00  0.13346024517E+00  0.17118976395E-01 0.  0.
         14    1    1    2    0    0  0.45217646488E-02  0.17955032305E-01  0.14461732505E-01  0.23494068350E-01  0.00000000000E+00 0.  1.
     999901    1    3    3    0    0  0.47262123480E-01  0.44978488413E-01  0.89828145187E-01  0.88697568648E+00  0.88000000000E+00 0. -1.
        -11    1    4    4    0    0 -0.32678021698E-01 -0.26337898274E-01 -0.53977963622E-01  0.68377040484E-01  0.51100000000E-03 0.  1.
         11    1    4    4    0    0 -0.19105866431E-01 -0.36595622444E-01 -0.50311914069E-01  0.65083204688E-01  0.51100000000E-03 0. -1.
</event>
<event>
 8    1  0.1101883E+005  0.1043930E+01  0.7957747E-01            NaN
         13   -1    0    0    0    0  0.00000000000E+00  0.00000000000E+00  0.74505805969E-08  0.10566000000E+00  0.10566000000E+00 0. -1.
     999900   -1    0    0    0    0 -0.00000000000E+00 -0.00000000000E+00 -0.74505805969E-08  0.93827000000E+00  0.93827000000E+00 0.  1.
     999902    2    1    2    0    0 -0.12084269493E-01 -0.19152432523E-01  0.38522709286E-02  0.10209585997E+01  0.10207001406E+01 0.  0.
     999903    2    3    3    0    0 -0.11141119180E+00 -0.11440769024E-01  0.68652998034E-01  0.13296961244E+00  0.20599486390E-01 0.  0.
         14    1    1    2    0    0  0.12084269493E-01  0.19152432523E-01 -0.38522709286E-02  0.22971400306E-01  0.00000000000E+00 0.  1.
     999901    1    3    3    0    0  0.99326922306E-01 -0.77116634992E-02 -0.64800727106E-01  0.88798898725E+00  0.88000000000E+00 0.  1.
        -11    1    4    4    0    0 -0.27711194810E-01 -0.58471928638E-02  0.27699654666E-01  0.39618581144E-01  0.51100000000E-03 0. -1.
         11    1    4    4    0    0 -0.83699996989E-01 -0.55935761602E-02  0.40953343368E-01  0.93351031297E-01  0.51100000000E-03 0.  1.
</event>
<event>
 8    1  0.1101883E+005  0.1043930E+01  0.7957747E-01            NaN
         13   -1    0    0    0    0  0.00000000000E+00  0.00000000000E+00  0.74505805969E-08  0.10566000000E+00  0.10566000000E+00 0.  1.
     999900   -1    0    0    0    0 -0.00000000000E+00 -0.00000000000E+00 -0.74505805969E-08  0.93827000000E+00  0.93827000000E+00 0. -1.
     999902    2    1    2    0    0  0.24423384437E-01 -0.47908205235E-02 -0.25818896435E-03  0.10190398347E+01  0.10187358167E+01 0.  0.
     999903    2    3    3    0    0  0.23631393437E-01 -0.11448022242E+00  0.54362069053E-01  0.13054911174E+00  0.20583292827E-01 0.  0.
         14    1    1    2    0    0 -0.24423384437E-01  0.47908205235E-02  0.25818896435E-03  0.24890165330E-01  0.00000000000E+00 0. -1.
     999901    1    3    3    0    0  0.79199099936E-03  0.10968940190E+00 -0.54620258017E-01  0.88849072293E+00  0.88000000000E+00 0.  1.
        -11    1    4    4    0    0 -0.10941036924E-02 -0.26524950106E-01  0.18669144431E-01  0.32458714019E-01  0.51100000000E-03 0.  1.
         11    1    4    4    0    0  0.24725497130E-01 -0.87955272318E-01  0.35692924622E-01  0.98090397725E-01  0.51100000000E-03 0. -1.
</event>
<event>
 7    1  0.1101883E+005  0.1043930E+01  0.7957747E-01            NaN
         13   -1    0    0    0    0  0.00000000000E+00  0.00000000000E+00  0.74505805969E-08  0.10566000000E+00  0.10566000000E+00 0. -1.
     999900   -1    0    0    0    0 -0.00000000000E+00 -0.00000000000E+00 -0.74505805969E-08  0.93827000000E+00  0.93827000000E+00 0. -1.
     999903    2    1    2    0    0  0.32656353306E-01  0.55110733583E-01 -0.81458398983E-01  0.10653711965E+00  0.24719561711E-01 0.  0.
         14    1    1    2    0    0  0.17017629202E-01 -0.13357591088E-01  0.49958545677E-01  0.54441539558E-01  0.00000000000E+00 0. -1.
     999901    1    1    2    0    0 -0.49673982508E-01 -0.41753142495E-01  0.31499853306E-01  0.88295134079E+00  0.88000000000E+00 0.  1.
        -11    1    3    3    0    0  0.27159365008E-01  0.23903280805E-01 -0.35333710027E-01  0.50574006428E-01  0.51100000000E-03 0.  1.
         11    1    3    3    0    0  0.54969882977E-02  0.31207452778E-01 -0.46124688957E-01  0.55963113223E-01  0.51100000000E-03 0. -1.
</event>
<event>
 8    1  0.1101883E+005  0.1043930E+01  0.7957747E-01            NaN
         13   -1    0    0    0    0  0.00000000000E+00  0.00000000000E+00  0.74505805969E-08  0.10566000000E+00  0.10566000000E+00 0. -1.
     999900   -1    0    0    0    0 -0.00000000000E+00 -0.00000000000E+00 -0.74505805969E-08  0.93827000000E+00  0.93827000000E+00 0. -1.
     999902    2    1    2    0    0 -0.12995301991E-01  0.19576313666E-01  0.13914181965E-02  0.10203918188E+01  0.10201202958E+01 0.  0.
     999903    2    3    3    0    0  0.11559339340E+00 -0.51995449402E-01  0.37293025820E-02  0.12816817218E+00  0.18649753465E-01 0.  0.
         14    1    1    2    0    0  0.12995301991E-01 -0.19576313666E-01 -0.13914181965E-02  0.23538181220E-01  0.00000000000E+00 0.  1.
     999901    1    3    3    0    0 -0.12858869540E+00  0.71571763067E-01 -0.23378843855E-02  0.89222364660E+00  0.88000000000E+00 0.  1.
        -11    1    4    4    0    0  0.68979375962E-01 -0.39795145828E-01  0.64983445658E-02  0.79901799371E-01  0.51100000000E-03 0. -1.
         11    1    4    4    0    0  0.46614017443E-01 -0.12200303574E-01 -0.27690419838E-02  0.48266372807E-01  0.51100000000E-03 0.  1.
</event>
<event>
 8    1  0.1101883E+005  0.1043930E+01  0.7957747E-01            NaN
         13   -1    0    0    0    0  0.00000000000E+00  0.00000000000E+00  0.74505805969E-08  0.10566000000E+00  0.10566000000E+00 0. -1.
     999900   -1    0    0    0    0 -0.00000000000E+00 -0.00000000000E+00 -0.74505805969E-08  0.93827000000E+00  0.93827000000E+00 0.  1.
     999902    2    1    2    0    0 -0.19847178652E-01  0.37066093029E-02 -0.10361709768E-01  0.10212360695E+01  0.10209838858E+01 0.  0.
     999903    2    3    3    0    0  0.52846279663E-01  0.57410666132E-01 -0.10428120559E+00  0.13163540835E+00  0.19094424090E-01 0.  0.
         14    1    1    2    0    0  0.19847178652E-01 -0.37066093029E-02  0.10361709768E-01  0.22693930516E-01  0.00000000000E+00 0. -1.
     999901    1    3    3    0    0 -0.72693458315E-01 -0.53704056829E-01  0.93919495821E-01  0.88960066114E+00  0.88000000000E+00 0. -1.
        -11    1    4    4    0    0  0.21549097318E-01  0.10715538660E-01 -0.33308585316E-01  0.41096342181E-01  0.51100000000E-03 0. -1.
         11    1    4    4    0    0  0.31297182345E-01  0.46695127473E-01 -0.70972620273E-01  0.90539066164E-01  0.51100000000E-03 0.  1.
</event>
<event>
 8    1  0.1303855E+005  0.1043930E+01  0.7957747E-01            NaN
         13   -1    0    0    0    0  0.00000000000E+00  0.00000000000E+00  0.74505805969E-08  0.10566000000E+00  0.10566000000E+00 0.  1.
     999900   -1    0    0    0    0 -0.00000000000E+00 -0.00000000000E+00 -0.74505805969E-08  0.93827000000E+00  0.93827000000E+00 0.  1.
     999902    2    1    2    0    0 -0.94838739019E-02  0.84862555005E-04  0.20386838651E-01  0.10214450215E+01  0.10211975116E+01 0.  0.
     999903    2    3    3    0    0  0.48643208660E-01 -0.10618522407E+00  0.58626208752E-01  0.13232504176E+00  0.20770670728E-01 0.  0.
         14    1    1    2    0    0  0.94838739019E-02 -0.84862555005E-04 -0.20386838651E-01  0.22484978453E-01  0.00000000000E+00 0.  1.
     999901    1    3    3    0    0 -0.58127082562E-01  0.10627008663E+00 -0.38239370101E-01  0.88911997979E+00  0.88000000000E+00 0.  1.
        -11    1    4    4    0    0  0.33066101456E-01 -0.59676421164E-01  0.43825455143E-01  0.81089912738E-01  0.51100000000E-03 0. -1.
         11    1    4    4    0    0  0.15577107204E-01 -0.46508802910E-01  0.14800753609E-01  0.51235129017E-01  0.51100000000E-03 0.  1.
</event>
<event>
 8    1  0.1101883E+005  0.1043930E+01  0.7957747E-01            NaN
         13   -1    0    0    0    0  0.00000000000E+00  0.00000000000E+00  0.74505805969E-08  0.10566000000E+00  0.10566000000E+00 0.  1.
     999900   -1    0    0    0    0 -0.00000000000E+00 -0.00000000000E+00 -0.74505805969E-08  0.93827000000E+00  0.93827000000E+00 0. -1.
     999902    2    1    2    0    0  0.19208746358E-01 -0.78385947991E-02 -0.10982807544E-01  0.10204557254E+01  0.10201856919E+01 0.  0.
     999903    2    3    3    0    0  0.10457007872E+00  0.18438716536E-01  0.75324023046E-01  0.13173421497E+00  0.20132245616E-01 0.  0.
         14    1    1    2    0    0 -0.19208746358E-01  0.78385947991E-02  0.10982807544E-01  0.23474274571E-01  0.00000000000E+00 0.  1.
     999901    1    3    3    0    0 -0.85361332363E-01 -0.26277311335E-01 -0.86306830590E-01  0.88872151046E+00  0.88000000000E+00 0. -1.
        -11    1    4    4    0    0  0.37411661190E-01  0.15065473638E-01  0.34429121173E-01  0.53030428950E-01  0.51100000000E-03 0. -1.
         11    1    4    4    0    0  0.67158417531E-01  0.33732428984E-02  0.40894901874E-01  0.78703786015E-01  0.51100000000E-03 0.  1.
</event>
<event>
 8    1  0.1101883E+005  0.1043930E+01  0.7957747E-01            NaN
         13   -1    0    0    0    0  0.00000000000E+00  0.00000000000E+00  0.74505805969E-08  0.10566000000E+00  0.10566000000E+00 0.  1.
     999900   -1    0    0    0    0 -0.00000000000E+00 -0.00000000000E+00 -0.74505805969E-08  0.93827000000E+00  0.93827000000E+00 0.  1.
     999902    2    1    2    0    0 -0.16058304457E-02  0.80682145832E-02  0.21644517910E-01  0.10207748724E+01  0.10205122146E+01 0.  0.
     999903    2    3    3    0    0 -0.49907142934E-01 -0.10125330282E+00  0.65324911279E-01  0.13162236147E+00  0.17724213868E-01 0.  0.
         14    1    1    2    0    0  0.16058304457E-02 -0.80682145832E-02 -0.21644517910E-01  0.23155127586E-01  0.00000000000E+00 0. -1.
     999901    1    3    3    0    0  0.48301312489E-01  0.10932151740E+00 -0.43680393369E-01  0.88915251095E+00  0.88000000000E+00 0.  1.
        -11    1    4    4    0    0 -0.16821510833E-01 -0.44961673980E-01  0.36189425264E-01  0.60120304188E-01  0.51100000000E-03 0.  1.
         11    1    4    4    0    0 -0.33085632101E-01 -0.56291628840E-01  0.29135486015E-01  0.71502057280E-01  0.51100000000E-03 0. -1.
</event>
<event>
 8    1  0.1101883E+005  0.1043930E+01  0.7957747E-01            NaN
         13   -1    0    0    0    0  0.00000000000E+00  0.00000000000E+00  0.74505805969E-08  0.10566000000E+00  0.10566000000E+00 0.  1.
     999900   -1    0    0    0    0 -0.00000000000E+00 -0.00000000000E+00 -0.74505805969E-08  0.93827000000E+00  0.93827000000E+00 0. -1.
     999902    2    1    2    0    0 -0.74291474565E-02  0.16250367942E-01  0.14971266284E-01  0.10206189403E+01  0.10203526919E+01 0.  0.
     999903    2    3    3    0    0 -0.66358150327E-01 -0.10115723277E+00 -0.40198289453E-01  0.12915898497E+00  0.20735261438E-01 0.  0.
         14    1    1    2    0    0  0.74291474565E-02 -0.16250367942E-01 -0.14971266284E-01  0.23311059700E-01  0.00000000000E+00 0. -1.
     999901    1    3    3    0    0  0.58929002870E-01  0.11740760071E+00  0.55169555737E-01  0.89145995533E+00  0.88000000000E+00 0.  1.
        -11    1    4    4    0    0 -0.54730483790E-02 -0.13136030021E-01 -0.11625459129E-01  0.18382653895E-01  0.51100000000E-03 0. -1.
         11    1    4    4    0    0 -0.60885101948E-01 -0.88021202745E-01 -0.28572830325E-01  0.11077633107E+00  0.51100000000E-03 0.  1.
</event>
<event>
 8    1  0.1101883E+005  0.1043930E+01  0.7957747E-01            NaN
         13   -1    0    0    0    0  0.00000000000E+00  0.00000000000E+00  0.74505805969E-08  0.10566000000E+00  0.10566000000E+00 0.  1.
     999900   -1    0    0    0    0 -0.00000000000E+00 -0.00000000000E+00 -0.74505805969E-08  0.93827000000E+00  0.93827000000E+00 0.  1.
     999902    2    1    2    0    0  0.35288653315E-02 -0.13525441916E-01 -0.19389941321E-01  0.10200268560E+01  0.10197467463E+01 0.  0.
     999903    2    3    3    0    0 -0.55351571256E-02  0.71125557965E-01 -0.10845538674E+00  0.13144337546E+00  0.20622974543E-01 0.  0.
         14    1    1    2    0    0 -0.35288653315E-02  0.13525441916E-01  0.19389941321E-01  0.23903144018E-01  0.00000000000E+00 0.  1.
     999901    1    3    3    0    0  0.90640224571E-02 -0.84650999880E-01  0.89065445423E-01  0.88858348052E+00  0.88000000000E+00 0. -1.
        -11    1    4    4    0    0 -0.62668703290E-02  0.12898243614E-01 -0.34113879484E-01  0.37008867133E-01  0.51100000000E-03 0.  1.
         11    1    4    4    0    0  0.73171320341E-03  0.58227314350E-01 -0.74341507260E-01  0.94434508329E-01  0.51100000000E-03 0. -1.
</event>
<event>
 7    1  0.1101883E+005  0.1043930E+01  0.7957747E-01            NaN
         13   -1    0    0    0    0  0.00000000000E+00  0.00000000000E+00  0.74505805969E-08  0.10566000000E+00  0.10566000000E+00 0. -1.
     999900   -1    0    0    0    0 -0.00000000000E+00 -0.00000000000E+00 -0.74505805969E-08  0.93827000000E+00  0.93827000000E+00 0. -1.
     999903    2    1    2    0    0  0.59618233710E-01 -0.64400267171E-01  0.69786458157E-01  0.11391175553E+00  0.20100002583E-01 0.  0.
         14    1    1    2    0    0  0.11005806165E-01 -0.32530826534E-01 -0.21614651825E-01  0.40578018900E-01  0.00000000000E+00 0.  1.
     999901    1    1    2    0    0 -0.70624039874E-01  0.96931093704E-01 -0.48171806331E-01  0.88944022557E+00  0.88000000000E+00 0. -1.
        -11    1    3    3    0    0  0.10257317030E-01 -0.28673590581E-02  0.47506173771E-02  0.11673208089E-01  0.51100000000E-03 0.  1.
         11    1    3    3    0    0  0.49360916680E-01 -0.61532908112E-01  0.65035840780E-01  0.10223854744E+00  0.51100000000E-03 0. -1.
</event>
<event>
 8    1  0.1101883E+005  0.1043930E+01  0.7957747E-01            NaN
         13   -1    0    0    0    0  0.00000000000E+00  0.00000000000E+00  0.74505805969E-08  0.10566000000E+00  0.10566000000E+00 0.  1.
     999900   -1    0    0    0    0 -0.00000000000E+00 -0.00000000000E+00 -0.74505805969E-08  0.93827000000E+00  0.93827000000E+00 0.  1.
     999902    2    1    2    0    0  0.63763701978E-02  0.20329095071E-01 -0.10253614503E-01  0.10202854062E+01  0.10200113938E+01 0.  0.
     999903    2    3    3    0    0  0.88000019897E-01  0.36403972222E-01 -0.90148548130E-01  0.13275849269E+00  0.20707582115E-01 0.  0.
         14    1    1    2    0    0 -0.63763701978E-02 -0.20329095071E-01  0.10253614503E-01  0.23644593751E-01  0.00000000000E+00 0.  1.
     999901    1    3    3    0    0 -0.81623649699E-01 -0.16074877151E-01  0.79894933627E-01  0.88752691356E+00  0.88000000000E+00 0. -1.
        -11    1    4    4    0    0  0.67842144127E-01  0.21755699860E-01 -0.75678090407E-01  0.10393893152E+00  0.51100000000E-03 0.  1.
         11    1    4    4    0    0  0.20157875770E-01  0.14648272362E-01 -0.14470457723E-01  0.28819561177E-01  0.51100000000E-03 0. -1.
</event>
<event>
 8    1  0.1101883E+005  0.1043930E+01  0.7957747E-01            NaN
         13   -1    0    0    0    0  0.00000000000E+00  0.00000000000E+00  0.74505805969E-08  0.10566000000E+00  0.10566000000E+00 0. -1.
     999900   -1    0    0    0    0 -0.00000000000E+00 -0.00000000000E+00 -0.74505805969E-08  0.93827000000E+00  0.93827000000E+00 0. -1.
     999902    2    1    2    0    0 -0.14908718701E-01 -0.31029265599E-02 -0.18600185033E-01  0.10198911787E+01  0.10196078420E+01 0.  0.
     999903    2    3    3    0    0  0.12943396216E-02  0.12656681747E+00  0.18403596593E-01  0.12947214168E+00  0.20087521149E-01 0.  0.
         14    1    1    2    0    0  0.14908718701E-01  0.31029265599E-02  0.18600185033E-01  0.24038821306E-01  0.00000000000E+00 0. -1.
     999901    1    3    3    0    0 -0.16203058322E-01 -0.12966974403E+00 -0.37003781626E-01  0.89041903701E+00  0.88000000000E+00 0. -1.
        -11    1    4    4    0    0  0.59002150764E-03  0.56276030157E-01 -0.18647660226E-02  0.56312326971E-01  0.51100000000E-03 0. -1.
         11    1    4    4    0    0  0.70431811398E-03  0.70290787310E-01  0.20268362616E-01  0.73159814713E-01  0.51100000000E-03 0.  1.
</event>
<event>
 8    1  0.1101883E+005  0.1043930E+01  0.7957747E-01            NaN
         13   -1    0    0    0    0  0.00000000000E+00  0.00000000000E+00  0.74505805969E-08  0.10566000000E+00  0.10566000000E+00 0. -1.
     999900   -1    0    0    0    0 -0.00000000000E+00 -0.00000000000E+00 -0.74505805969E-08  0.93827000000E+00  0.93827000000E+00 0. -1.
     999902    2    1    2    0    0  0.84876427393E-02  0.19893344834E-01 -0.94128373312E-02  0.10203421482E+01  0.10200694646E+01 0.  0.
     999903    2    3    3    0    0  0.96578122650E-01  0.79090081617E-01 -0.34589182807E-01  0.13360767005E+00  0.32741764515E-01 0.  0.
         14    1    1    2    0    0 -0.84876427393E-02 -0.19893344834E-01  0.94128373312E-02  0.23587851843E-01  0.00000000000E+00 0. -1.
     999901    1    3    3    0    0 -0.88090479910E-01 -0.59196736783E-01  0.25176345475E-01  0.88673447811E+00  0.88000000000E+00 0.  1.
        -11    1    4    4    0    0  0.62039374031E-01  0.44800420760E-01 -0.36739321329E-01  0.84888164564E-01  0.51100000000E-03 0.  1.
         11    1    4    4    0    0  0.34538748619E-01  0.34289660857E-01  0.21501385224E-02  0.48719505483E-01  0.51100000000E-03 0. -1.
</event>
<event>
 8    1  0.1101883E+005  0.1043930E+01  0.7957747E-01            NaN
         13   -1    0    0    0    0  0.00000000000E+00  0.00000000000E+00  0.74505805969E-08  0.10566000000E+00  0.10566000000E+00 0.  1.
     999900   -1    0    0    0    0 -0.00000000000E+00 -0.00000000000E+00 -0.74505805969E-08  0.93827000000E+00  0.93827000000E+00 0.  1.
     999902    2    1    2    0    0  0.14242405173E-02  0.78221006890E-03 -0.23556390802E-01  0.10203176333E+01  0.10200443760E+01 0.  0.
     999903    2    3    3    0    0  0.35619202785E-01  0.12358945905E+00  0.55279357610E-02  0.13065656643E+00  0.22304669549E-01 0.  0.
         14    1    1    2    0    0 -0.14242405173E-02 -0.78221006890E-03  0.23556390802E-01  0.23612366702E-01  0.00000000000E+00 0.  1.
     999901    1    3    3    0    0 -0.34194962268E-01 -0.12280724898E+00 -0.29084326563E-01  0.88966106687E+00  0.88000000000E+00 0. -1.
        -11    1    4    4    0    0  0.37886306978E-02  0.10617961078E-01  0.69929507418E-02  0.13276193020E-01  0.51100000000E-03 0.  1.
         11    1    4    4    0    0  0.31830572087E-01  0.11297149797E+00 -0.14650149809E-02  0.11738037341E+00  0.51100000000E-03 0. -1.
</event>
<event>
 8    1  0.1101883E+005  0.1043930E+01  0.7957747E-01            NaN
         13   -1    0    0    0    0  0.00000000000E+00  0.00000000000E+00  0.74505805969E-08  0.10566000000E+00  0.10566000000E+00 0.  1.
     999900   -1    0    0    0    0 -0.00000000000E+00 -0.00000000000E+00 -0.74505805969E-08  0.93827000000E+00  0.93827000000E+00 0. -1.
     999902    2    1    2    0    0 -0.16083965037E-01 -0.45691820315E-02 -0.20110051958E-01  0.10177768827E+01  0.10174408078E+01 0.  0.
     999903    2    3    3    0    0  0.37766723857E-01 -0.66459448394E-01 -0.10346277229E+00  0.13003932138E+00  0.19039331449E-01 0.  0.
         14    1    1    2    0    0  0.16083965037E-01  0.45691820315E-02  0.20110051958E-01  0.26153117319E-01  0.00000000000E+00 0.  1.
     999901    1    3    3    0    0 -0.53850688894E-01  0.61890266363E-01  0.83352720333E-01  0.88773756130E+00  0.88000000000E+00 0.  1.
        -11    1    4    4    0    0  0.26044058782E-01 -0.29095025733E-01 -0.43917059110E-01  0.58768892470E-01  0.51100000000E-03 0. -1.
         11    1    4    4    0    0  0.11722665075E-01 -0.37364422661E-01 -0.59545713181E-01  0.71270428906E-01  0.51100000000E-03 0.  1.
</event>
<event>
 8    1  0.1101883E+005  0.1043930E+01  0.7957747E-01            NaN
         13   -1    0    0    0    0  0.00000000000E+00  0.00000000000E+00  0.74505805969E-08  0.10566000000E+00  0.10566000000E+00 0. -1.
     999900   -1    0    0    0    0 -0.00000000000E+00 -0.00000000000E+00 -0.74505805969E-08  0.93827000000E+00  0.93827000000E+00 0. -1.
     999902    2    1    2    0    0  0.12550612714E-02 -0.15593867510E-01 -0.17987116573E-01  0.10200913707E+01  0.10198127889E+01 0.  0.
     999903    2    3    3    0    0 -0.98495485845E-02  0.29742729534E-01 -0.12703311731E+00  0.13213317934E+00  0.18442359394E-01 0.  0.
         14    1    1    2    0    0 -0.12550612714E-02  0.15593867510E-01  0.17987116573E-01  0.23838629266E-01  0.00000000000E+00 0. -1.
     999901    1    3    3    0    0  0.11104609856E-01 -0.45336597043E-01  0.10904600074E+00  0.88795819140E+00  0.88000000000E+00 0.  1.
        -11    1    4    4    0    0 -0.56885136477E-02  0.52478963384E-03 -0.35447304803E-01  0.35908315617E-01  0.51100000000E-03 0.  1.
         11    1    4    4    0    0 -0.41610349368E-02  0.29217939900E-01 -0.91585812510E-01  0.96224863719E-01  0.51100000000E-03 0. -1.
</event>
<event>
 8    1  0.1101883E+005  0.1043930E+01  0.7957747E-01            NaN
         13   -1    0    0    0    0  0.00000000000E+00  0.00000000000E+00  0.74505805969E-08  0.10566000000E+00  0.10566000000E+00 0.  1.
     999900   -1    0    0    0    0 -0.00000000000E+00 -0.00000000000E+00 -0.74505805969E-08  0.93827000000E+00  0.93827000000E+00 0.  1.
     999902    2    1    2    0    0 -0.20776312336E-01  0.81490578732E-03  0.11733820334E-01  0.10200552903E+01  0.10197758545E+01 0.  0.
     999903    2    3    3    0    0 -0.11937492864E+00  0.45029063801E-01  0.32441439153E-01  0.13320390226E+00  0.20318524281E-01 0.  0.
         14    1    1    2    0    0  0.20776312336E-01 -0.81490578732E-03 -0.11733820334E-01  0.23874709744E-01  0.00000000000E+00 0. -1.
     999901    1    3    3    0    0  0.98598616306E-01 -0.44214158013E-01 -0.20707618819E-01  0.88685138799E+00  0.88000000000E+00 0. -1.
        -11    1    4    4    0    0 -0.51483578411E-01  0.27199331510E-01  0.21949863316E-01  0.62228772293E-01  0.51100000000E-03 0. -1.
         11    1    4    4    0    0 -0.67891350232E-01  0.17829732291E-01  0.10491575837E-01  0.70975129971E-01  0.51100000000E-03 0.  1.
</event>
<event>
 8    1  0.1101883E+005  0.1043930E+01  0.7957747E-01            NaN
         13   -1    0    0    0    0  0.00000000000E+00  0.00000000000E+00  0.74505805969E-08  0.10566000000E+00  0.10566000000E+00 0.  1.
     999900   -1    0    0    0    0 -0.00000000000E+00 -0.00000000000E+00 -0.74505805969E-08  0.93827000000E+00  0.93827000000E+00 0. -1.
     999902    2    1    2    0    0 -0.17728576787E-01  0.44852649497E-03  0.14536819771E-01  0.10209991749E+01  0.10207416384E+01 0.  0.
     999903    2    3    3    0    0 -0.61975074924E-01 -0.10962123284E+00 -0.33083369296E-01  0.13176310561E+00  0.20230721050E-01 0.  0.
         14    1    1    2    0    0  0.17728576787E-01 -0.44852649497E-03 -0.14536819771E-01  0.22930825104E-01  0.00000000000E+00 0. -1.
     999901    1    3    3    0    0  0.44246498137E-01  0.11006975933E+00  0.47620189067E-01  0.88923606929E+00  0.88000000000E+00 0. -1.
        -11    1    4    4    0    0 -0.19857750308E-01 -0.51933022198E-01 -0.20343530000E-01  0.59207173348E-01  0.51100000000E-03 0.  1.
         11    1    4    4    0    0 -0.42117324616E-01 -0.57688210641E-01 -0.12739839295E-01  0.72555932259E-01  0.51100000000E-03 0. -1.
</event>
<event>
 8    1  0.1101883E+005  0.1043930E+01  0.7957747E-01            NaN
         13   -1    0    0    0    0  0.00000000000E+00  0.00000000000E+00  0.74505805969E-08  0.10566000000E+00  0.10566000000E+00 0.  1.
     999900   -1    0    0    0    0 -0.00000000000E+00 -0.00000000000E+00 -0.74505805969E-08  0.93827000000E+00  0.93827000000E+00 0.  1.
     999902    2    1    2    0    0  0.88692801488E-02  0.15496757210E-01  0.95548684140E-02  0.10236788488E+01  0.10234785178E+01 0.  0.
     999903    2    3    3    0    0 -0.56388610426E-01  0.12068346627E+00  0.10111718066E-01  0.13501516319E+00  0.19562030392E-01 0.  0.
         14    1    1    2    0    0 -0.88692801488E-02 -0.15496757210E-01 -0.95548684140E-02  0.20251151197E-01  0.00000000000E+00 0. -1.
     999901    1    3    3    0    0  0.65257890575E-01 -0.10518670906E+00 -0.55684965194E-03  0.88866368561E+00  0.88000000000E+00 0. -1.
        -11    1    4    4    0    0 -0.50700742047E-01  0.91017504034E-01  0.11180923624E-01  0.10478561666E+00  0.51100000000E-03 0.  1.
         11    1    4    4    0    0 -0.56878683790E-02  0.29665962233E-01 -0.10692055580E-02  0.30229546531E-01  0.51100000000E-03 0. -1.
</event>
<event>
 8    1  0.1101883E+005  0.1043930E+01  0.7957747E-01            NaN
         13   -1    0    0    0    0  0.00000000000E+00  0.00000000000E+00  0.74505805969E-08  0.10566000000E+00  0.10566000000E+00 0.  1.
     999900   -1    0    0    0    0 -0.00000000000E+00 -0.00000000000E+00 -0.74505805969E-08  0.93827000000E+00  0.93827000000E+00 0.  1.
     999902    2    1    2    0    0  0.13417795142E-01  0.90530151443E-02 -0.17197176430E-01  0.10203135399E+01  0.10200401867E+01 0.  0.
     999903    2    3    3    0    0  0.86464650362E-01 -0.54642144920E-01  0.77625870440E-01  0.12992916972E+00  0.19847257213E-01 0.  0.
         14    1    1    2    0    0 -0.13417795142E-01 -0.90530151443E-02  0.17197176430E-01  0.23616460083E-01  0.00000000000E+00 0.  1.
     999901    1    3    3    0    0 -0.73046855221E-01  0.63695160064E-01 -0.94823046870E-01  0.89038437020E+00  0.88000000000E+00 0. -1.
        -11    1    4    4    0    0  0.50684509937E-01 -0.24977383956E-01  0.32705973519E-01  0.65289593977E-01  0.51100000000E-03 0. -1.
         11    1    4    4    0    0  0.35780140426E-01 -0.29664760964E-01  0.44919896921E-01  0.64639575743E-01  0.51100000000E-03 0.  1.
</event>
<event>
 8    1  0.1101883E+005  0.1043930E+01  0.7957747E-01            NaN
         13   -1    0    0    0    0  0.00000000000E+00  0.00000000000E+00  0.74505805969E-08  0.10566000000E+00  0.10566000000E+00 0.  1.
     999900   -1    0    0    0    0 -0.00000000000E+00 -0.00000000000E+00 -0.74505805969E-08  0.93827000000E+00  0.93827000000E+00 0.  1.
     999902    2    1    2    0    0 -0.23471154918E-01 -0.21377388410E-02 -0.50757055618E-02  0.10198213329E+01  0.10195363276E+01 0.  0.
     999903    2    3    3    0    0 -0.11840359329E+00  0.41467022699E-01  0.37626797670E-01  0.13261388997E+00  0.20778427144E-01 0.  0.
         14    1    1    2    0    0  0.23471154918E-01  0.21377388410E-02  0.50757055618E-02  0.24108667061E-01  0.00000000000E+00 0. -1.
     999901    1    3    3    0    0  0.94932438368E-01 -0.43604761540E-01 -0.42702503232E-01  0.88720744297E+00  0.88000000000E+00 0. -1.
        -11    1    4    4    0    0 -0.34872324117E-01  0.72614319519E-02  0.23531334115E-02  0.35701620988E-01  0.51100000000E-03 0.  1.
         11    1    4    4    0    0 -0.83531269169E-01  0.34205590747E-01  0.35273664259E-01  0.96912268979E-01  0.51100000000E-03 0. -1.
</event>
<event>
 8    1  0.1101883E+005  0.1043930E+01  0.7957747E-01            NaN
         13   -1    0    0    0    0  0.00000000000E+00  0.00000000000E+00  0.74505805969E-08  0.10566000000E+00  0.10566000000E+00 0. -1.
     999900   -1    0    0    0    0 -0.00000000000E+00 -0.00000000000E+00 -0.74505805969E-08  0.93827000000E+00  0.93827000000E+00 0.  1.
     999902    2    1    2    0    0  0.64212719373E-02 -0.23668237964E-02 -0.22395803898E-01  0.10205119168E+01  0.10202431895E+01 0.  0.
     999903    2    3    3    0    0  0.19531836109E-02  0.96798783863E-01  0.82362842092E-01  0.12875625775E+00  0.20511378988E-01 0.  0.
         14    1    1    2    0    0 -0.64212719373E-02  0.23668237964E-02  0.22395803898E-01  0.23418083193E-01  0.00000000000E+00 0. -1.
     999901    1    3    3    0    0  0.44680883264E-02 -0.99165607660E-01 -0.10475864599E+00  0.89175565906E+00  0.88000000000E+00 0.  1.
        -11    1    4    4    0    0  0.36099651779E-02  0.44880624241E-01  0.51179834413E-01  0.68168459366E-01  0.51100000000E-03 0.  1.
         11    1    4    4    0    0 -0.16567815669E-02  0.51918159623E-01  0.31183007679E-01  0.60587798381E-01  0.51100000000E-03 0. -1.
</event>
<event>
 8    1  0.1101883E+005  0.1043930E+01  0.7957747E-01            NaN
         13   -1    0    0    0    0  0.00000000000E+00  0.00000000000E+00  0.74505805969E-08  0.10566000000E+00  0.10566000000E+00 0. -1.
     999900   -1    0    0    0    0 -0.00000000000E+00 -0.00000000000E+00 -0.74505805969E-08  0.93827000000E+00  0.93827000000E+00 0. -1.
     999902    2    1    2    0    0 -0.17921826016E-01 -0.14252134344E-01 -0.74736494581E-02  0.10198432689E+01  0.10195587881E+01 0.  0.
     999903    2    3    3    0    0  0.41699042068E-01 -0.70701502404E-01 -0.10029034621E+00  0.13116103191E+00  0.20187872540E-01 0.  0.
         14    1    1    2    0    0  0.17921826016E-01  0.14252134344E-01  0.74736494581E-02  0.24086731147E-01  0.00000000000E+00 0. -1.
     999901    1    3    3    0    0 -0.59620868084E-01  0.56449368059E-01  0.92816696748E-01  0.88868223694E+00  0.88000000000E+00 0.  1.
        -11    1    4    4    0    0  0.20104688845E-01 -0.52572669955E-01 -0.64884070185E-01  0.85896960508E-01  0.51100000000E-03 0.  1.
         11    1    4    4    0    0  0.21594353223E-01 -0.18128832448E-01 -0.35406276021E-01  0.45264071400E-01  0.51100000000E-03 0. -1.
</event>
<event>
 8    1  0.1101883E+005  0.1043930E+01  0.7957747E-01            NaN
         13   -1    0    0    0    0  0.00000000000E+00  0.00000000000E+00  0.74505805969E-08  0.10566000000E+00  0.10566000000E+00 0.  1.
     999900   -1    0    0    0    0 -0.00000000000E+00 -0.00000000000E+00 -0.74505805969E-08  0.93827000000E+00  0.93827000000E+00 0.  1.
     999902    2    1    2    0    0  0.17091058560E-01  0.58185219907E-02  0.12796028253E-01  0.10218008830E+01  0.10215612300E+01 0.  0.
     999903    2    3    3    0    0  0.11576152501E+00 -0.61899483240E-01  0.18623043892E-01  0.13368177876E+00  0.17079915409E-01 0.  0.
         14    1    1    2    0    0 -0.17091058560E-01 -0.58185219907E-02 -0.12796028253E-01  0.22129117016E-01  0.00000000000E+00 0. -1.
     999901    1    3    3    0    0 -0.98670466447E-01  0.67718005231E-01 -0.58270156391E-02  0.88811910423E+00  0.88000000000E+00 0. -1.
        -11    1    4    4    0    0  0.99428879531E-01 -0.53483013025E-01  0.21913789867E-01  0.11500873912E+00  0.51100000000E-03 0. -1.
         11    1    4    4    0    0  0.16332645477E-01 -0.84164702156E-02 -0.32907459755E-02  0.18673039636E-01  0.51100000000E-03 0.  1.
</event>
<event>
 8    1  0.1101883E+005  0.1043930E+01  0.7957747E-01            NaN
         13   -1    0    0    0    0  0.00000000000E+00  0.00000000000E+00  0.74505805969E-08  0.10566000000E+00  0.10566000000E+00 0.  1.
     999900   -1    0    0    0    0 -0.00000000000E+00 -0.00000000000E+00 -0.74505805969E-08  0.93827000000E+00  0.93827000000E+00 0.  1.
     999902    2    1    2    0    0 -0.12739960147E-01  0.31515994834E-02 -0.20230950615E-01  0.10198150559E+01  0.10195299004E+01 0.  0.
     999903    2    3    3    0    0  0.65651297670E-01  0.21937954365E-01  0.10492971154E+00  0.12731110202E+00  0.20161984151E-01 0.  0.
         14    1    1    2    0    0  0.12739960147E-01 -0.31515994834E-02  0.20230950615E-01  0.24114944052E-01  0.00000000000E+00 0.  1.
     999901    1    3    3    0    0 -0.78391257818E-01 -0.18786354882E-01 -0.12516066216E+00  0.89250395393E+00  0.88000000000E+00 0.  1.
        -11    1    4    4    0    0  0.22555693816E-01  0.17361470212E-01  0.47238041926E-01  0.55153183928E-01  0.51100000000E-03 0.  1.
         11    1    4    4    0    0  0.43095603854E-01  0.45764841536E-02  0.57691669616E-01  0.72157918088E-01  0.51100000000E-03 0. -1.
</event>
<event>
 8    1  0.1101883E+005  0.1043930E+01  0.7957747E-01            NaN
         13   -1    0    0    0    0  0.00000000000E+00  0.00000000000E+00  0.74505805969E-08  0.10566000000E+00  0.10566000000E+00 0.  1.
     999900   -1    0    0    0    0 -0.00000000000E+00 -0.00000000000E+00 -0.74505805969E-08  0.93827000000E+00  0.93827000000E+00 0. -1.
     999902    2    1    2    0    0  0.14567801596E-01  0.18439847452E-01  0.20545701919E-02  0.10203403820E+01  0.10200676571E+01 0.  0.
     999903    2    3    3    0    0  0.92688220031E-01  0.83295155887E-01 -0.42878565268E-01  0.13336349537E+00  0.20446550082E-01 0.  0.
         14    1    1    2    0    0 -0.14567801596E-01 -0.18439847452E-01 -0.20545701919E-02  0.23589617972E-01  0.00000000000E+00 0.  1.
     999901    1    3    3    0    0 -0.78120418435E-01 -0.64855308435E-01  0.44933135460E-01  0.88697688666E+00  0.88000000000E+00 0. -1.
        -11    1    4    4    0    0  0.20087448057E-01  0.12103880840E-01 -0.15303355510E-01  0.28008272201E-01  0.51100000000E-03 0. -1.
         11    1    4    4    0    0  0.72600771973E-01  0.71191275048E-01 -0.27575209758E-01  0.10535522317E+00  0.51100000000E-03 0.  1.
</event>
<event>
 8    1  0.1101883E+005  0.1043930E+01  0.7957747E-01            NaN
         13   -1    0    0    0    0  0.00000000000E+00  0.00000000000E+00  0.74505805969E-08  0.10566000000E+00  0.10566000000E+00 0. -1.
     999900   -1    0    0    0    0 -0.00000000000E+00 -0.00000000000E+00 -0.74505805969E-08  0.93827000000E+00  0.93827000000E+00 0. -1.
     999902    2    1    2    0    0  0.20059918752E-01  0.87254104613E-02 -0.96650183941E-02  0.10200146136E+01  0.10197342135E+01 0.  0.
     999903    2    3    3    0    0  0.13074658721E-01 -0.21477881984E-01 -0.12773930109E+00  0.13158759407E+00  0.19123800713E-01 0.  0.
         14    1    1    2    0    0 -0.20059918752E-01 -0.87254104613E-02  0.96650183941E-02  0.23915386440E-01  0.00000000000E+00 0.  1.
     999901    1    3    3    0    0  0.69852600305E-02  0.30203292445E-01  0.11807428270E+00  0.88842701949E+00  0.88000000000E+00 0.  1.
        -11    1    4    4    0    0  0.13700364298E-01 -0.82879830634E-02 -0.44287733050E-01  0.47096231960E-01  0.51100000000E-03 0.  1.
         11    1    4    4    0    0 -0.62570557685E-03 -0.13189898920E-01 -0.83451568041E-01  0.84491362106E-01  0.51100000000E-03 0. -1.
</event>
<event>
 8    1  0.1101883E+005  0.1043930E+01  0.7957747E-01            NaN
         13   -1    0    0    0    0  0.00000000000E+00  0.00000000000E+00  0.74505805969E-08  0.10566000000E+00  0.10566000000E+00 0.  1.
     999900   -1    0    0    0    0 -0.00000000000E+00 -0.00000000000E+00 -0.74505805969E-08  0.93827000000E+00  0.93827000000E+00 0. -1.
     999902    2    1    2    0    0  0.20289673156E-01 -0.44537445369E-02  0.13658582589E-01  0.10190691160E+01  0.10187658217E+01 0.  0.
     999903    2    3    3    0    0  0.11983706174E+00 -0.49477727495E-01 -0.94815273680E-02  0.13201088432E+00  0.22978410159E-01 0.  0.
         14    1    1    2    0    0 -0.20289673156E-01  0.44537445369E-02 -0.13658582589E-01  0.24860884045E-01  0.00000000000E+00 0. -1.
     999901    1    3    3    0    0 -0.99547388587E-01  0.45023982958E-01  0.23140109957E-01  0.88705823163E+00  0.88000000000E+00 0.  1.
        -11    1    4    4    0    0  0.73812701634E-01 -0.38013410691E-01 -0.14601722144E-01  0.84301872609E-01  0.51100000000E-03 0. -1.
         11    1    4    4    0    0  0.46024360109E-01 -0.11464316804E-01  0.51201947761E-02  0.47709011714E-01  0.51100000000E-03 0.  1.
</event>
<event>
 7    1  0.1101883E+005  0.1043930E+01  0.7957747E-01            NaN
         13   -1    0    0    0    0  0.00000000000E+00  0.00000000000E+00  0.74505805969E-08  0.10566000000E+00  0.10566000000E+00 0. -1.
     999900   -1    0    0    0    0 -0.00000000000E+00 -0.00000000000E+00 -0.74505805969E-08  0.93827000000E+00  0.93827000000E+00 0.  1.
     999903    2    1    2    0    0  0.64095135099E-01  0.22694434780E-01  0.50175298843E-01  0.87997794419E-01  0.24552545597E-01 0.  0.
         14    1    1    2    0    0 -0.12070207692E-02 -0.35543245902E-02  0.65786746379E-01  0.65893748729E-01  0.00000000000E+00 0. -1.
     999901    1    1    2    0    0 -0.62888114330E-01 -0.19140110190E-01 -0.11596204522E+00  0.89003845685E+00  0.88000000000E+00 0.  1.
        -11    1    3    3    0    0  0.77357562765E-02 -0.38967851663E-03  0.16894062085E-01  0.18592047473E-01  0.51100000000E-03 0. -1.
         11    1    3    3    0    0  0.56359378823E-01  0.23084113297E-01  0.33281236758E-01  0.69405746946E-01  0.51100000000E-03 0.  1.
</event>
<event>
 8    1  0.1101883E+005  0.1043930E+01  0.7957747E-01            NaN
         13   -1    0    0    0    0  0.00000000000E+00  0.00000000000E+00  0.74505805969E-08  0.10566000000E+00  0.10566000000E+00 0. -1.
     999900   -1    0    0    0    0 -0.00000000000E+00 -0.00000000000E+00 -0.74505805969E-08  0.93827000000E+00  0.93827000000E+00 0. -1.
     999902    2    1    2    0    0  0.24935079945E-02 -0.23600179807E-01  0.17484005725E-02  0.10201341396E+01  0.10198565682E+01 0.  0.
     999903    2    3    3    0    0 -0.12002133028E+00  0.28044510197E-01  0.37030689689E-01  0.12944794369E+00  0.13924218901E-01 0.  0.
         14    1    1    2    0    0 -0.24935079945E-02  0.23600179807E-01 -0.17484005725E-02  0.23795860430E-01  0.00000000000E+00 0.  1.
     999901    1    3    3    0    0  0.12251483828E+00 -0.51644690004E-01 -0.35282289117E-01  0.89068619588E+00  0.88000000000E+00 0. -1.
        -11    1    4    4    0    0 -0.54562358018E-01  0.79187771253E-02  0.11257412589E-01  0.56273869627E-01  0.51100000000E-03 0. -1.
         11    1    4    4    0    0 -0.65458972265E-01  0.20125733072E-01  0.25773277100E-01  0.73174074064E-01  0.51100000000E-03 0.  1.
</event>
<event>
 8    1  0.1101883E+005  0.1043930E+01  0.7957747E-01            NaN
         13   -1    0    0    0    0  0.00000000000E+00  0.00000000000E+00  0.74505805969E-08  0.10566000000E+00  0.10566000000E+00 0. -1.
     999900   -1    0    0    0    0 -0.00000000000E+00 -0.00000000000E+00 -0.74505805969E-08  0.93827000000E+00  0.93827000000E+00 0.  1.
     999902    2    1    2    0    0 -0.79903618677E-03 -0.48692485584E-02  0.24897857746E-01  0.10185478929E+01  0.10182315841E+01 0.  0.
     999903    2    3    3    0    0  0.18793260324E-01 -0.61823198206E-01 -0.10724827983E+00  0.12664531294E+00  0.19014397020E-01 0.  0.
         14    1    1    2    0    0  0.79903618677E-03  0.48692485584E-02 -0.24897857746E-01  0.25382107097E-01  0.00000000000E+00 0.  1.
     999901    1    3    3    0    0 -0.19592296511E-01  0.56953949648E-01  0.13214613758E+00  0.89190257996E+00  0.88000000000E+00 0. -1.
        -11    1    4    4    0    0  0.19507133064E-01 -0.34044406403E-01 -0.56590568592E-01  0.68864384280E-01  0.51100000000E-03 0.  1.
         11    1    4    4    0    0 -0.71387274054E-03 -0.27778791803E-01 -0.50657711237E-01  0.57780928663E-01  0.51100000000E-03 0. -1.
</event>
<event>
 8    1  0.1101883E+005  0.1043930E+01  0.7957747E-01            NaN
         13   -1    0    0    0    0  0.00000000000E+00  0.00000000000E+00  0.74505805969E-08  0.10566000000E+00  0.10566000000E+00 0.  1.
     999900   -1    0    0    0    0 -0.00000000000E+00 -0.00000000000E+00 -0.74505805969E-08  0.93827000000E+00  0.93827000000E+00 0.  1.
     999902    2    1    2    0    0 -0.14580942921E-01 -0.84039231459E-02 -0.17422687735E-01  0.10197064604E+01  0.10194186998E+01 0.  0.
     999903    2    3    3    0    0 -0.66819901783E-01 -0.54341545492E-01  0.95113482149E-01  0.12981682487E+00  0.19695956240E-01 0.  0.
         14    1    1    2    0    0  0.14580942921E-01  0.84039231459E-02  0.17422687735E-01  0.24223539556E-01  0.00000000000E+00 0. -1.
     999901    1    3    3    0    0  0.52238958862E-01  0.45937622346E-01 -0.11253616988E+00  0.88988963557E+00  0.88000000000E+00 0.  1.
        -11    1    4    4    0    0 -0.37507352181E-01 -0.24886982648E-01  0.36438152223E-01  0.57915139915E-01  0.51100000000E-03 0. -1.
         11    1    4    4    0    0 -0.29312549601E-01 -0.29454562844E-01  0.58675329926E-01  0.71901684955E-01  0.51100000000E-03 0.  1.
</event>
<event>
 8    1  0.1101883E+005  0.1043930E+01  0.7957747E-01            NaN
         13   -1    0    0    0    0  0.00000000000E+00  0.00000000000E+00  0.74505805969E-08  0.10566000000E+00  0.10566000000E+00 0.  1.
     999900   -1    0    0    0    0 -0.00000000000E+00 -0.00000000000E+00 -0.74505805969E-08  0.93827000000E+00  0.93827000000E+00 0.  1.
     999902    2    1    2    0    0 -0.69979827164E-03 -0.23066988733E-01  0.68718405581E-02  0.10198510075E+01  0.10195667117E+01 0.  0.
     999903    2    3    3    0    0  0.70245119450E-01  0.15307197664E-01  0.10734330779E+00  0.13046904498E+00  0.18190625712E-01 0.  0.
         14    1    1    2    0    0  0.69979827164E-03  0.23066988733E-01 -0.68718405581E-02  0.24078992493E-01  0.00000000000E+00 0. -1.
     999901    1    3    3    0    0 -0.70944917722E-01 -0.38374186398E-01 -0.10047146724E+00  0.88938196252E+00  0.88000000000E+00 0.  1.
        -11    1    4    4    0    0  0.78888268145E-02 -0.15158674578E-02  0.50839409459E-02  0.95204526783E-02  0.51100000000E-03 0.  1.
         11    1    4    4    0    0  0.62356292636E-01  0.16823065122E-01  0.10225936685E+00  0.12094859231E+00  0.51100000000E-03 0. -1.
</event>
<event>
 8    1  0.1101883E+005  0.1043930E+01  0.7957747E-01            NaN
         13   -1    0    0    0    0  0.00000000000E+00  0.00000000000E+00  0.74505805969E-08  0.10566000000E+00  0.10566000000E+00 0.  1.
     999900   -1    0    0    0    0 -0.00000000000E+00 -0.00000000000E+00 -0.74505805969E-08  0.93827000000E+00  0.93827000000E+00 0. -1.
     999902    2    1    2    0    0  0.19329046655E-01 -0.41633104299E-02  0.95392827124E-02  0.10219767972E+01  0.10217409803E+01 0.  0.
     999903    2    3    3    0    0 -0.33504465952E-01  0.76252857194E-01  0.10034885522E+00  0.13208662503E+00  0.20974658482E-01 0.  0.
         14    1    1    2    0    0 -0.19329046655E-01  0.41633104299E-02 -0.95392827124E-02  0.21953202796E-01  0.00000000000E+00 0. -1.
     999901    1    3    3    0    0  0.52833512607E-01 -0.80416167624E-01 -0.90809572512E-01  0.88989017217E+00  0.88000000000E+00 0. -1.
        -11    1    4    4    0    0 -0.26578074518E-01  0.57988998650E-01  0.88966289238E-01  0.10947319193E+00  0.51100000000E-03 0. -1.
         11    1    4    4    0    0 -0.69263914346E-02  0.18263858545E-01  0.11382565986E-01  0.22613433102E-01  0.51100000000E-03 0.  1.
</event>
<event>
 8    1  0.1101883E+005  0.1043930E+01  0.7957747E-01            NaN
         13   -1    0    0    0    0  0.00000000000E+00  0.00000000000E+00  0.74505805969E-08  0.10566000000E+00  0.10566000000E+00 0.  1.
     999900   -1    0    0    0    0 -0.00000000000E+00 -0.00000000000E+00 -0.74505805969E-08  0.93827000000E+00  0.93827000000E+00 0.  1.
     999902    2    1    2    0    0 -0.18316272936E-01  0.10759041912E-01  0.11272242052E-01  0.10198820005E+01  0.10195984449E+01 0.  0.
     999903    2    3    3    0    0  0.51891248568E-02 -0.10257429403E+00  0.76924224396E-01  0.12987799406E+00  0.20063504940E-01 0.  0.
         14    1    1    2    0    0  0.18316272936E-01 -0.10759041912E-01 -0.11272242052E-01  0.24047999459E-01  0.00000000000E+00 0.  1.
     999901    1    3    3    0    0 -0.23505397793E-01  0.11333333594E+00 -0.65651982344E-01  0.89000400648E+00  0.88000000000E+00 0.  1.
        -11    1    4    4    0    0  0.16171576340E-02 -0.58774151748E-01  0.56013789729E-01  0.81208508626E-01  0.51100000000E-03 0.  1.
         11    1    4    4    0    0  0.35719672228E-02 -0.43800142281E-01  0.20910434668E-01  0.48669485437E-01  0.51100000000E-03 0. -1.
</event>
<event>
 7    1  0.1101883E+005  0.1043930E+01  0.7957747E-01            NaN
         13   -1    0    0    0    0  0.00000000000E+00  0.00000000000E+00  0.74505805969E-08  0.10566000000E+00  0.10566000000E+00 0. -1.
     999900   -1    0    0    0    0 -0.00000000000E+00 -0.00000000000E+00 -0.74505805969E-08  0.93827000000E+00  0.93827000000E+00 0. -1.
     999903    2    1    2    0    0 -0.10455365325E-01  0.24220906467E-01  0.10759224018E+00  0.11239385950E+00  0.18982163543E-01 0.  0.
         14    1    1    2    0    0 -0.11780968307E-02  0.42137619438E-01 -0.11820126652E-01  0.43779930083E-01  0.00000000000E+00 0.  1.
     999901    1    1    2    0    0  0.11633462155E-01 -0.66358525904E-01 -0.95772113527E-01  0.88775621042E+00  0.88000000000E+00 0. -1.
        -11    1    3    3    0    0 -0.13564938745E-01  0.75546847545E-02  0.50566492468E-01  0.52899074722E-01  0.51100000000E-03 0.  1.
         11    1    3    3    0    0  0.31095734199E-02  0.16666221712E-01  0.57025747711E-01  0.59494784780E-01  0.51100000000E-03 0. -1.
</event>
<event>
 8    1  0.1101883E+005  0.1043930E+01  0.7957747E-01            NaN
         13   -1    0    0    0    0  0.00000000000E+00  0.00000000000E+00  0.74505805969E-08  0.10566000000E+00  0.10566000000E+00 0.  1.
     999900   -1    0    0    0    0 -0.00000000000E+00 -0.00000000000E+00 -0.74505805969E-08  0.93827000000E+00  0.93827000000E+00 0.  1.
     999902    2    1    2    0    0  0.19671235357E-01 -0.24645067724E-01  0.14765966217E-01  0.10091108871E+01  0.10085099959E+01 0.  0.
     999903    2    3    3    0    0  0.11334540051E+00 -0.39258938616E-01 -0.20506784114E-01  0.12331600039E+00  0.19946520506E-01 0.  0.
         14    1    1    2    0    0 -0.19671235357E-01  0.24645067724E-01 -0.14765966217E-01  0.34819112882E-01  0.00000000000E+00 0.  1.
     999901    1    3    3    0    0 -0.93674165149E-01  0.14613870892E-01  0.35272750331E-01  0.88579488673E+00  0.88000000000E+00 0. -1.
        -11    1    4    4    0    0  0.34946806583E-01 -0.21898468663E-01 -0.87243449150E-02  0.42156820745E-01  0.51100000000E-03 0.  1.
         11    1    4    4    0    0  0.78398593923E-01 -0.17360469953E-01 -0.11782439199E-01  0.81159179644E-01  0.51100000000E-03 0. -1.
</event>
<event>
 8    1  0.1101883E+005  0.1043930E+01  0.7957747E-01            NaN
         13   -1    0    0    0    0  0.00000000000E+00  0.00000000000E+00  0.74505805969E-08  0.10566000000E+00  0.10566000000E+00 0. -1.
     999900   -1    0    0    0    0 -0.00000000000E+00 -0.00000000000E+00 -0.74505805969E-08  0.93827000000E+00  0.93827000000E+00 0.  1.
     999902    2    1    2    0    0 -0.11806852273E-01 -0.18679734538E-01  0.45450859434E-02  0.10213691479E+01  0.10211199460E+01 0.  0.
     999903    2    3    3    0    0  0.17514537536E-01  0.64924070876E-01 -0.10903408072E+00  0.12965755363E+00  0.20018902360E-01 0.  0.
         14    1    1    2    0    0  0.11806852273E-01  0.18679734538E-01 -0.45450859434E-02  0.22560852139E-01  0.00000000000E+00 0.  1.
     999901    1    3    3    0    0 -0.29321389808E-01 -0.83603805414E-01  0.11357916666E+00  0.89171159423E+00  0.88000000000E+00 0. -1.
        -11    1    4    4    0    0  0.21761899909E-01  0.57588839776E-01 -0.93382014878E-01  0.11185042055E+00  0.51100000000E-03 0. -1.
         11    1    4    4    0    0 -0.42473623729E-02  0.73352311001E-02 -0.15652065841E-01  0.17807133080E-01  0.51100000000E-03 0.  1.
</event>
<event>
 8    1  0.1101883E+005  0.1043930E+01  0.7957747E-01            NaN
         13   -1    0    0    0    0  0.00000000000E+00  0.00000000000E+00  0.74505805969E-08  0.10566000000E+00  0.10566000000E+00 0. -1.
     999900   -1    0    0    0    0 -0.00000000000E+00 -0.00000000000E+00 -0.74505805969E-08  0.93827000000E+00  0.93827000000E+00 0.  1.
     999902    2    1    2    0    0  0.31042800645E-02  0.11475825274E-01  0.20085996755E-01  0.10205895119E+01  0.10203225830E+01 0.  0.
     999903    2    3    3    0    0 -0.15644108723E-01 -0.17405906154E-01  0.12948984371E+00  0.13314663584E+00  0.20315100378E-01 0.  0.
         14    1    1    2    0    0 -0.31042800645E-02 -0.11475825274E-01 -0.20085996755E-01  0.23340488129E-01  0.00000000000E+00 0.  1.
     999901    1    3    3    0    0  0.18748388787E-01  0.28881731428E-01 -0.10940384696E+00  0.88744287603E+00  0.88000000000E+00 0.  1.
        -11    1    4    4    0    0  0.36983846792E-02 -0.80216041717E-02  0.51110354504E-01  0.51870546953E-01  0.51100000000E-03 0.  1.
         11    1    4    4    0    0 -0.19342493402E-01 -0.93843019819E-02  0.78379489209E-01  0.81276088885E-01  0.51100000000E-03 0. -1.
</event>
<event>
 8    1  0.1101883E+005  0.1043930E+01  0.7957747E-01            NaN
         13   -1    0    0    0    0  0.00000000000E+00  0.00000000000E+00  0.74505805969E-08  0.10566000000E+00  0.10566000000E+00 0. -1.
     999900   -1    0    0    0    0 -0.00000000000E+00 -0.00000000000E+00 -0.74505805969E-08  0.93827000000E+00  0.93827000000E+00 0. -1.
     999902    2    1    2    0    0 -0.18232286434E-01 -0.83798913604E-02  0.13210450840E-01  0.10199059525E+01  0.10196229681E+01 0.  0.
     999903    2    3    3    0    0 -0.11077704374E+00  0.87023045088E-02 -0.66766747255E-01  0.13128191177E+00  0.20733024263E-01 0.  0.
         14    1    1    2    0    0  0.18232286434E-01  0.83798913604E-02 -0.13210450840E-01  0.24024047519E-01  0.00000000000E+00 0.  1.
     999901    1    3    3    0    0  0.92544757303E-01 -0.17082195869E-01  0.79977198095E-01  0.88862404071E+00  0.88000000000E+00 0.  1.
        -11    1    4    4    0    0 -0.55958597823E-01  0.95040570252E-02 -0.23479544906E-01  0.61426719921E-01  0.51100000000E-03 0.  1.
         11    1    4    4    0    0 -0.54818445914E-01 -0.80175251641E-03 -0.43287202349E-01  0.69855191845E-01  0.51100000000E-03 0. -1.
</event>
<event>
 8    1  0.1101883E+005  0.1043930E+01  0.7957747E-01            NaN
         13   -1    0    0    0    0  0.00000000000E+00  0.00000000000E+00  0.74505805969E-08  0.10566000000E+00  0.10566000000E+00 0.  1.
     999900   -1    0    0    0    0 -0.00000000000E+00 -0.00000000000E+00 -0.74505805969E-08  0.93827000000E+00  0.93827000000E+00 0.  1.
     999902    2    1    2    0    0  0.13839445902E-01 -0.20097351207E-01  0.84930426994E-03  0.10195137123E+01  0.10192212981E+01 0.  0.
     999903    2    3    3    0    0 -0.11086976660E+00  0.58622185719E-01 -0.76825054054E-02  0.12720101767E+00  0.19809396828E-01 0.  0.
         14    1    1    2    0    0 -0.13839445902E-01  0.20097351207E-01 -0.84930426994E-03  0.24416287722E-01  0.00000000000E+00 0. -1.
     999901    1    3    3    0    0  0.12470921250E+00 -0.78719536926E-01  0.85318096753E-02  0.89231269461E+00  0.88000000000E+00 0. -1.
        -11    1    4    4    0    0 -0.10832588814E+00  0.56888629191E-01 -0.40653888174E-02  0.12242386483E+00  0.51100000000E-03 0.  1.
         11    1    4    4    0    0 -0.25438784599E-02  0.17335565285E-02 -0.36171165880E-02  0.47771528411E-02  0.51100000000E-03 0. -1.
</event>
<event>
 8    1  0.1101883E+005  0.1043930E+01  0.7957747E-01            NaN
         13   -1    0    0    0    0  0.00000000000E+00  0.00000000000E+00  0.74505805969E-08  0.10566000000E+00  0.10566000000E+00 0. -1.
     999900   -1    0    0    0    0 -0.00000000000E+00 -0.00000000000E+00 -0.74505805969E-08  0.93827000000E+00  0.93827000000E+00 0. -1.
     999902    2    1    2    0    0  0.18409958965E-01 -0.13752485377E-01 -0.64381662681E-03  0.10209414824E+01  0.10206826336E+01 0.  0.
     999903    2    3    3    0    0 -0.27156436557E-01  0.20589826165E-01 -0.12445911716E+00  0.13044391392E+00  0.19082186609E-01 0.  0.
         14    1    1    2    0    0 -0.18409958965E-01  0.13752485377E-01  0.64381662681E-03  0.22988517633E-01  0.00000000000E+00 0. -1.
     999901    1    3    3    0    0  0.45566395522E-01 -0.34342311542E-01  0.12381530054E+00  0.89049756845E+00  0.88000000000E+00 0.  1.
        -11    1    4    4    0    0 -0.10596357913E-01  0.19488257263E-01 -0.78572986968E-01  0.81645884001E-01  0.51100000000E-03 0.  1.
         11    1    4    4    0    0 -0.16560078644E-01  0.11015689021E-02 -0.45886130194E-01  0.48798029919E-01  0.51100000000E-03 0. -1.
</event>
<event>
 8    1  0.1101883E+005  0.1043930E+01  0.7957747E-01            NaN
         13   -1    0    0    0    0  0.00000000000E+00  0.00000000000E+00  0.74505805969E-08  0.10566000000E+00  0.10566000000E+00 0. -1.
     999900   -1    0    0    0    0 -0.00000000000E+00 -0.00000000000E+00 -0.74505805969E-08  0.93827000000E+00  0.93827000000E+00 0.  1.
     999902    2    1    2    0    0  0.21092314122E-01  0.11404896118E-01  0.62043446185E-02  0.10191620517E+01  0.10188610486E+01 0.  0.
     999903    2    3    3    0    0 -0.85403234681E-01 -0.56113443554E-01  0.73673650591E-01  0.12761724893E+00  0.20394224482E-01 0.  0.
         14    1    1    2    0    0 -0.21092314122E-01 -0.11404896118E-01 -0.62043446185E-02  0.24767948293E-01  0.00000000000E+00 0. -1.
     999901    1    3    3    0    0  0.10649554880E+00  0.67518339672E-01 -0.67469305972E-01  0.89154480278E+00  0.88000000000E+00 0.  1.
        -11    1    4    4    0    0 -0.62545567109E-01 -0.45541108636E-01  0.45221792022E-01  0.89617030387E-01  0.51100000000E-03 0. -1.
         11    1    4    4    0    0 -0.22857667572E-01 -0.10572334918E-01  0.28451858569E-01  0.38000218545E-01  0.51100000000E-03 0.  1.
</event>
<event>
 8    1  0.1101883E+005  0.1043930E+01  0.7957747E-01            NaN
         13   -1    0    0    0    0  0.00000000000E+00  0.00000000000E+00  0.74505805969E-08  0.10566000000E+00  0.10566000000E+00 0.  1.
     999900   -1    0    0    0    0 -0.00000000000E+00 -0.00000000000E+00 -0.74505805969E-08  0.93827000000E+00  0.93827000000E+00 0. -1.
     999902    2    1    2    0    0 -0.17543187973E-01  0.11454011712E-01 -0.13676298082E-01  0.10189100288E+01  0.10186027920E+01 0.  0.
     999903    2    3    3    0    0  0.34881234114E-01 -0.71257196511E-01  0.96605126821E-01  0.12663683261E+00  0.20249649320E-01 0.  0.
         14    1    1    2    0    0  0.17543187973E-01 -0.11454011712E-01  0.13676298082E-01  0.25019971179E-01  0.00000000000E+00 0.  1.
     999901    1    3    3    0    0 -0.52424422087E-01  0.82711208223E-01 -0.11028142490E+00  0.89227319621E+00  0.88000000000E+00 0. -1.
        -11    1    4    4    0    0  0.53623272075E-02 -0.91381953576E-02  0.25947703443E-01  0.28032224358E-01  0.51100000000E-03 0. -1.
         11    1    4    4    0    0  0.29518906907E-01 -0.62119001154E-01  0.70657423378E-01  0.98604608253E-01  0.51100000000E-03 0.  1.
</event>
<event>
 8    1  0.1101883E+005  0.1043930E+01  0.7957747E-01            NaN
         13   -1    0    0    0    0  0.00000000000E+00  0.00000000000E+00  0.74505805969E-08  0.10566000000E+00  0.10566000000E+00 0.  1.
     999900   -1    0    0    0    0 -0.00000000000E+00 -0.00000000000E+00 -0.74505805969E-08  0.93827000000E+00  0.93827000000E+00 0. -1.
     999902    2    1    2    0    0  0.11954084843E-01  0.25632468154E-02 -0.19134365634E-01  0.10212232978E+01  0.10209708270E+01 0.  0.
     999903    2    3    3    0    0 -0.33633073639E-01  0.11772605687E+00 -0.45539757813E-01  0.13215754846E+00  0.20028478792E-01 0.  0.
         14    1    1    2    0    0 -0.11954084843E-01 -0.25632468154E-02  0.19134365634E-01  0.22706702246E-01  0.00000000000E+00 0. -1.
     999901    1    3    3    0    0  0.45587158483E-01 -0.11516281006E+00  0.26405392179E-01  0.88906574930E+00  0.88000000000E+00 0.  1.
        -11    1    4    4    0    0 -0.34255465148E-01  0.10363064616E+00 -0.35287033743E-01  0.11470912600E+00  0.51100000000E-03 0.  1.
         11    1    4    4    0    0  0.62239150905E-03  0.14095410712E-01 -0.10252724069E-01  0.17448422455E-01  0.51100000000E-03 0. -1.
</event>
<event>
 8    1  0.1101883E+005  0.1043930E+01  0.7957747E-01            NaN
         13   -1    0    0    0    0  0.00000000000E+00  0.00000000000E+00  0.74505805969E-08  0.10566000000E+00  0.10566000000E+00 0. -1.
     999900   -1    0    0    0    0 -0.00000000000E+00 -0.00000000000E+00 -0.74505805969E-08  0.93827000000E+00  0.93827000000E+00 0. -1.
     999902    2    1    2    0    0 -0.10735654752E-01  0.16972840748E-01 -0.13942623218E-01  0.10194815164E+01  0.10191883212E+01 0.  0.
     999903    2    3    3    0    0 -0.46439368215E-02 -0.10169125799E+00 -0.77025682972E-01  0.12925808955E+00  0.20298270272E-01 0.  0.
         14    1    1    2    0    0  0.10735654752E-01 -0.16972840748E-01  0.13942623218E-01  0.24448483556E-01  0.00000000000E+00 0. -1.
     999901    1    3    3    0    0 -0.60917179309E-02  0.11866409874E+00  0.63083059754E-01  0.89022342689E+00  0.88000000000E+00 0.  1.
        -11    1    4    4    0    0  0.17951420450E-02 -0.52450029500E-01 -0.51032863218E-01  0.73204114493E-01  0.51100000000E-03 0.  1.
         11    1    4    4    0    0 -0.64390788665E-02 -0.49241228494E-01 -0.25992819753E-01  0.56053975059E-01  0.51100000000E-03 0. -1.
</event>
<event>
 7    1  0.1101883E+005  0.1043930E+01  0.7957747E-01            NaN
         13   -1    0    0    0    0  0.00000000000E+00  0.00000000000E+00  0.74505805969E-08  0.10566000000E+00  0.10566000000E+00 0. -1.
     999900   -1    0    0    0    0 -0.00000000000E+00 -0.00000000000E+00 -0.74505805969E-08  0.93827000000E+00  0.93827000000E+00 0. -1.
     999903    2    1    2    0    0 -0.65072947761E-01  0.63555130909E-01 -0.33003970819E-01  0.98824395669E-01  0.20081232391E-01 0.  0.
         14    1    1    2    0    0 -0.52783775092E-01  0.81523018888E-02  0.80100451788E-02  0.54006923286E-01  0.00000000000E+00 0. -1.
     999901    1    1    2    0    0  0.11785672285E+00 -0.71707432798E-01  0.24993925640E-01  0.89109868104E+00  0.88000000000E+00 0. -1.
        -11    1    3    3    0    0 -0.25336808520E-01  0.27087158727E-01 -0.23896432464E-01  0.44124467582E-01  0.51100000000E-03 0.  1.
         11    1    3    3    0    0 -0.39736139242E-01  0.36467972182E-01 -0.91075383555E-02  0.54699928088E-01  0.51100000000E-03 0. -1.
</event>
<event>
 8    1  0.1101883E+005  0.1043930E+01  0.7957747E-01            NaN
         13   -1    0    0    0    0  0.00000000000E+00  0.00000000000E+00  0.74505805969E-08  0.10566000000E+00  0.10566000000E+00 0. -1.
     999900   -1    0    0    0    0 -0.00000000000E+00 -0.00000000000E+00 -0.74505805969E-08  0.93827000000E+00  0.93827000000E+00 0.  1.
     999902    2    1    2    0    0  0.28405149528E-01 -0.13378449405E-01 -0.57755705256E-02  0.10120052033E+01  0.10115015269E+01 0.  0.
     999903    2    3    3    0    0 -0.88259749618E-01 -0.77065039448E-01  0.25554886263E-01  0.12147262224E+00  0.19332408897E-01 0.  0.
         14    1    1    2    0    0 -0.28405149528E-01  0.13378449405E-01  0.57755705256E-02  0.31924796681E-01  0.00000000000E+00 0.  1.
     999901    1    3    3    0    0  0.11666489915E+00  0.63686590043E-01 -0.31330456789E-01  0.89053258108E+00  0.88000000000E+00 0.  1.
        -11    1    4    4    0    0 -0.32926412431E-01 -0.20194665050E-01  0.19147191259E-02  0.38676871672E-01  0.51100000000E-03 0.  1.
         11    1    4    4    0    0 -0.55333337187E-01 -0.56870374398E-01  0.23640167138E-01  0.82795750566E-01  0.51100000000E-03 0. -1.
</event>
<event>
 8    1  0.1101883E+005  0.1043930E+01  0.7957747E-01            NaN
         13   -1    0    0    0    0  0.00000000000E+00  0.00000000000E+00  0.74505805969E-08  0.10566000000E+00  0.10566000000E+00 0.  1.
     999900   -1    0    0    0    0 -0.00000000000E+00 -0.00000000000E+00 -0.74505805969E-08  0.93827000000E+00  0.93827000000E+00 0. -1.
     999902    2    1    2    0    0 -0.18346326416E-01 -0.13889265245E-01 -0.31400838157E-02  0.10207058852E+01  0.10204416419E+01 0.  0.
     999903    2    3    3    0    0  0.99286160788E-01 -0.81986435554E-01 -0.31216631377E-02  0.13027080784E+00  0.19524888101E-01 0.  0.
         14    1    1    2    0    0  0.18346326416E-01  0.13889265245E-01  0.31400838157E-02  0.23224114803E-01  0.00000000000E+00 0. -1.
     999901    1    3    3    0    0 -0.11763248720E+00  0.68097170309E-01 -0.18420677959E-04  0.89043507736E+00  0.88000000000E+00 0.  1.
        -11    1    4    4    0    0  0.76471821932E-01 -0.57906816034E-01 -0.98234273927E-02  0.96425617652E-01  0.51100000000E-03 0. -1.
         11    1    4    4    0    0  0.22814338856E-01 -0.24079619520E-01  0.67017642549E-02  0.33845190187E-01  0.51100000000E-03 0.  1.
</event>
<event>
 8    1  0.1101883E+005  0.1043930E+01  0.7957747E-01            NaN
         13   -1    0    0    0    0  0.00000000000E+00  0.00000000000E+00  0.74505805969E-08  0.10566000000E+00  0.10566000000E+00 0.  1.
     999900   -1    0    0    0    0 -0.00000000000E+00 -0.00000000000E+00 -0.74505805969E-08  0.93827000000E+00  0.93827000000E+00 0.  1.
     999902    2    1    2    0    0  0.28849534192E-03 -0.21525228721E-01 -0.26491098582E-01  0.10097950179E+01  0.10092179057E+01 0.  0.
     999903    2    3    3    0    0  0.68745721857E-01  0.79754255657E-01  0.49755498416E-01  0.11807899280E+00  0.19501880629E-01 0.  0.
         14    1    1    2    0    0 -0.28849534192E-03  0.21525228721E-01  0.26491098582E-01  0.34134982131E-01  0.00000000000E+00 0.  1.
     999901    1    3    3    0    0 -0.68457226515E-01 -0.10127948438E+00 -0.76246596998E-01  0.89171602507E+00  0.88000000000E+00 0.  1.
        -11    1    4    4    0    0  0.22092599368E-01  0.37753539815E-01  0.14531874817E-01  0.46096086842E-01  0.51100000000E-03 0.  1.
         11    1    4    4    0    0  0.46653122489E-01  0.42000715841E-01  0.35223623599E-01  0.71982905954E-01  0.51100000000E-03 0. -1.
</event>
<event>
 8    1  0.1101883E+005  0.1043930E+01  0.7957747E-01            NaN
         13   -1    0    0    0    0  0.00000000000E+00  0.00000000000E+00  0.74505805969E-08  0.10566000000E+00  0.10566000000E+00 0. -1.
     999900   -1    0    0    0    0 -0.00000000000E+00 -0.00000000000E+00 -0.74505805969E-08  0.93827000000E+00  0.93827000000E+00 0. -1.
     999902    2    1    2    0    0  0.23640960300E-01 -0.10530009404E-01  0.12134239015E-02  0.10180215361E+01  0.10176917999E+01 0.  0.
     999903    2    3    3    0    0 -0.90841959671E-01 -0.82839680993E-01  0.26437859698E-01  0.12730760915E+00  0.19839166785E-01 0.  0.
         14    1    1    2    0    0 -0.23640960300E-01  0.10530009404E-01 -0.12134239015E-02  0.25908463859E-01  0.00000000000E+00 0. -1.
     999901    1    3    3    0    0  0.11448291997E+00  0.72309671588E-01 -0.25224435796E-01  0.89071392699E+00  0.88000000000E+00 0. -1.
        -11    1    4    4    0    0 -0.31587852379E-02 -0.95492818581E-02  0.29840822314E-03  0.10075558379E-01  0.51100000000E-03 0.  1.
         11    1    4    4    0    0 -0.87683174433E-01 -0.73290399134E-01  0.26139451475E-01  0.11723205077E+00  0.51100000000E-03 0. -1.
</event>
<event>
 8    1  0.1101883E+005  0.1043930E+01  0.7957747E-01            NaN
         13   -1    0    0    0    0  0.00000000000E+00  0.00000000000E+00  0.74505805969E-08  0.10566000000E+00  0.10566000000E+00 0.  1.
     999900   -1    0    0    0    0 -0.00000000000E+00 -0.00000000000E+00 -0.74505805969E-08  0.93827000000E+00  0.93827000000E+00 0.  1.
     999902    2    1    2    0    0  0.11527728353E-01  0.20526874690E-01  0.12924739563E-02  0.10203522224E+01  0.10200797745E+01 0.  0.
     999903    2    3    3    0    0 -0.12262616292E+00  0.37801633212E-01 -0.21755530701E-02  0.13001087721E+00  0.20783547699E-01 0.  0.
         14    1    1    2    0    0 -0.11527728353E-01 -0.20526874690E-01 -0.12924739563E-02  0.23577777555E-01  0.00000000000E+00 0.  1.
     999901    1    3    3    0    0  0.13415389127E+00 -0.17274758521E-01  0.34680270265E-02  0.89034134524E+00  0.88000000000E+00 0. -1.
        -11    1    4    4    0    0 -0.87656782644E-01  0.17725757096E-01  0.21155945532E-02  0.89457536683E-01  0.51100000000E-03 0.  1.
         11    1    4    4    0    0 -0.34969380278E-01  0.20075876116E-01 -0.42911476233E-02  0.40553340525E-01  0.51100000000E-03 0. -1.
</event>
<event>
 8    1  0.1101883E+005  0.1043930E+01  0.7957747E-01            NaN
         13   -1    0    0    0    0  0.00000000000E+00  0.00000000000E+00  0.74505805969E-08  0.10566000000E+00  0.10566000000E+00 0. -1.
     999900   -1    0    0    0    0 -0.00000000000E+00 -0.00000000000E+00 -0.74505805969E-08  0.93827000000E+00  0.93827000000E+00 0.  1.
     999902    2    1    2    0    0  0.13870217593E-01  0.11543205300E-01  0.12728215763E-01  0.10218475182E+01  0.10216088853E+01 0.  0.
     999903    2    3    3    0    0  0.59034067309E-01 -0.58859579537E-01 -0.98085769422E-01  0.13096252860E+00  0.24101753625E-01 0.  0.
         14    1    1    2    0    0 -0.13870217593E-01 -0.11543205300E-01 -0.12728215763E-01  0.22082481771E-01  0.00000000000E+00 0.  1.
     999901    1    3    3    0    0 -0.45163849716E-01  0.70402784837E-01  0.11081398518E+00  0.89088498963E+00  0.88000000000E+00 0. -1.
        -11    1    4    4    0    0  0.38159537251E-01 -0.27668562415E-01 -0.40091459643E-01  0.61881224023E-01  0.51100000000E-03 0.  1.
         11    1    4    4    0    0  0.20874530058E-01 -0.31191017122E-01 -0.57994309779E-01  0.69081304576E-01  0.51100000000E-03 0. -1.
</event>
<event>
 8    1  0.1101883E+005  0.1043930E+01  0.7957747E-01            NaN
         13   -1    0    0    0    0  0.00000000000E+00  0.00000000000E+00  0.74505805969E-08  0.10566000000E+00  0.10566000000E+00 0.  1.
     999900   -1    0    0    0    0 -0.00000000000E+00 -0.00000000000E+00 -0.74505805969E-08  0.93827000000E+00  0.93827000000E+00 0. -1.
     999902    2    1    2    0    0  0.43813758340E-02 -0.10573644897E-01 -0.23721669981E-01  0.10175915102E+01  0.10172505913E+01 0.  0.
     999903    2    3    3    0    0  0.63520578736E-01 -0.10731991948E+00  0.29778030537E-01  0.12870484420E+00  0.11215024611E-01 0.  0.
         14    1    1    2    0    0 -0.43813758340E-02  0.10573644897E-01  0.23721669981E-01  0.26338489844E-01  0.00000000000E+00 0.  1.
     999901    1    3    3    0    0 -0.59139202902E-01  0.96746274582E-01 -0.53499700518E-01  0.88888666596E+00  0.88000000000E+00 0. -1.
        -11    1    4    4    0    0  0.48069693061E-01 -0.83044112664E-01  0.18106594822E-01  0.97647989923E-01  0.51100000000E-03 0. -1.
         11    1    4    4    0    0  0.15450885676E-01 -0.24275806815E-01  0.11671435715E-01  0.31056854273E-01  0.51100000000E-03 0.  1.
</event>
<event>
 8    1  0.1101883E+005  0.1043930E+01  0.7957747E-01            NaN
         13   -1    0    0    0    0  0.00000000000E+00  0.00000000000E+00  0.74505805969E-08  0.10566000000E+00  0.10566000000E+00 0.  1.
     999900   -1    0    0    0    0 -0.00000000000E+00 -0.00000000000E+00 -0.74505805969E-08  0.93827000000E+00  0.93827000000E+00 0. -1.
     999902    2    1    2    0    0 -0.17513207868E-01 -0.11663603810E-02 -0.15767738392E-01  0.10203356274E+01  0.10200627912E+01 0.  0.
     999903    2    3    3    0    0  0.54972258934E-01  0.99663637967E-01 -0.60520926898E-01  0.13049087722E+00  0.20255775971E-01 0.  0.
         14    1    1    2    0    0  0.17513207868E-01  0.11663603810E-02  0.15767738392E-01  0.23594372642E-01  0.00000000000E+00 0.  1.
     999901    1    3    3    0    0 -0.72485466802E-01 -0.10082999835E+00  0.44753188506E-01  0.88984475014E+00  0.88000000000E+00 0.  1.
        -11    1    4    4    0    0  0.39739126265E-01  0.52910369473E-01 -0.30384646887E-01  0.72816160580E-01  0.51100000000E-03 0. -1.
         11    1    4    4    0    0  0.15233132669E-01  0.46753268494E-01 -0.30136280011E-01  0.57674716642E-01  0.51100000000E-03 0.  1.
</event>
<event>
 8    1  0.1101883E+005  0.1043930E+01  0.7957747E-01            NaN
         13   -1    0    0    0    0  0.00000000000E+00  0.00000000000E+00  0.74505805969E-08  0.10566000000E+00  0.10566000000E+00 0. -1.
     999900   -1    0    0    0    0 -0.00000000000E+00 -0.00000000000E+00 -0.74505805969E-08  0.93827000000E+00  0.93827000000E+00 0. -1.
     999902    2    1    2    0    0 -0.13434765254E-01 -0.35816312541E-02 -0.18611654607E-01  0.10206982397E+01  0.10204338204E+01 0.  0.
     999903    2    3    3    0    0 -0.64912998722E-01  0.11123042004E+00 -0.19454871124E-01  0.13174800112E+00  0.19827759426E-01 0.  0.
         14    1    1    2    0    0  0.13434765254E-01  0.35816312541E-02  0.18611654607E-01  0.23231760309E-01  0.00000000000E+00 0. -1.
     999901    1    3    3    0    0  0.51478233469E-01 -0.11481205129E+00  0.84321651699E-03  0.88895023857E+00  0.88000000000E+00 0.  1.
        -11    1    4    4    0    0 -0.62528021537E-01  0.10473747600E+00 -0.13728297313E-01  0.12275349129E+00  0.51100000000E-03 0. -1.
         11    1    4    4    0    0 -0.23849771850E-02  0.64929440376E-02 -0.57265738101E-02  0.89945098283E-02  0.51100000000E-03 0.  1.
</event>
<event>
 8    1  0.1101883E+005  0.1043930E+01  0.7957747E-01            NaN
         13   -1    0    0    0    0  0.00000000000E+00  0.00000000000E+00  0.74505805969E-08  0.10566000000E+00  0.10566000000E+00 0. -1.
     999900   -1    0    0    0    0 -0.00000000000E+00 -0.00000000000E+00 -0.74505805969E-08  0.93827000000E+00  0.93827000000E+00 0.  1.
     999902    2    1    2    0    0  0.12241148075E-01 -0.46997681419E-02  0.19837527900E-01  0.10201505753E+01  0.10198733918E+01 0.  0.
     999903    2    3    3    0    0  0.18564095595E-01  0.76640124958E-01 -0.98984466434E-01  0.12842481911E+00  0.21832891935E-01 0.  0.
         14    1    1    2    0    0 -0.12241148075E-01  0.46997681419E-02 -0.19837527900E-01  0.23779424719E-01  0.00000000000E+00 0. -1.
     999901    1    3    3    0    0 -0.63229475198E-02 -0.81339893100E-01  0.11882199433E+00  0.89172575617E+00  0.88000000000E+00 0. -1.
        -11    1    4    4    0    0  0.10256117426E-01  0.65581096885E-01 -0.90340819868E-01  0.11210616874E+00  0.51100000000E-03 0. -1.
         11    1    4    4    0    0  0.83079781690E-02  0.11059028073E-01 -0.86436465661E-02  0.16318650377E-01  0.51100000000E-03 0.  1.
</event>
<event>
 8    1  0.1101883E+005  0.1043930E+01  0.7957747E-01            NaN
         13   -1    0    0    0    0  0.00000000000E+00  0.00000000000E+00  0.74505805969E-08  0.10566000000E+00  0.10566000000E+00 0.  1.
     999900   -1    0    0    0    0 -0.00000000000E+00 -0.00000000000E+00 -0.74505805969E-08  0.93827000000E+00  0.93827000000E+00 0.  1.
     999902    2    1    2    0    0 -0.13916033789E-01 -0.18884460124E-02 -0.18410281008E-01  0.10207748565E+01  0.10205121983E+01 0.  0.
     999903    2    3    3    0    0 -0.73678472264E-01  0.14300640249E-01 -0.10906415127E+00  0.13395370215E+00  0.20385770586E-01 0.  0.
         14    1    1    2    0    0  0.13916033789E-01  0.18884460124E-02  0.18410281008E-01  0.23155143522E-01  0.00000000000E+00 0.  1.
     999901    1    3    3    0    0  0.59762438475E-01 -0.16189086261E-01  0.90653870257E-01  0.88682115433E+00  0.88000000000E+00 0. -1.
        -11    1    4    4    0    0 -0.40319853640E-01  0.89746339296E-02 -0.76969437766E-01  0.87354393837E-01  0.51100000000E-03 0.  1.
         11    1    4    4    0    0 -0.33358618624E-01  0.53260063192E-02 -0.32094713500E-01  0.46599308315E-01  0.51100000000E-03 0. -1.
</event>
<event>
 8    1  0.1101883E+005  0.1043930E+01  0.7957747E-01            NaN
         13   -1    0    0    0    0  0.00000000000E+00  0.00000000000E+00  0.74505805969E-08  0.10566000000E+00  0.10566000000E+00 0. -1.
     999900   -1    0    0    0    0 -0.00000000000E+00 -0.00000000000E+00 -0.74505805969E-08  0.93827000000E+00  0.93827000000E+00 0. -1.
     999902    2    1    2    0    0 -0.88359846526E-03  0.19470305116E-01  0.10817099245E-01  0.10216391238E+01  0.10213959154E+01 0.  0.
     999903    2    3    3    0    0  0.72129994229E-01 -0.90459727844E-01  0.57614847223E-01  0.13056919043E+00  0.18524158274E-01 0.  0.
         14    1    1    2    0    0  0.88359846526E-03 -0.19470305116E-01 -0.10817099245E-01  0.22290876243E-01  0.00000000000E+00 0. -1.
     999901    1    3    3    0    0 -0.73013592695E-01  0.10993003296E+00 -0.46797747977E-01  0.89106993333E+00  0.88000000000E+00 0. -1.
        -11    1    4    4    0    0  0.20616175914E-01 -0.31117862077E-01  0.98528880619E-02  0.38609436330E-01  0.51100000000E-03 0. -1.
         11    1    4    4    0    0  0.51513818316E-01 -0.59341865767E-01  0.47761959161E-01  0.91959754099E-01  0.51100000000E-03 0.  1.
</event>
<event>
 8    1  0.1101883E+005  0.1043930E+01  0.7957747E-01            NaN
         13   -1    0    0    0    0  0.00000000000E+00  0.00000000000E+00  0.74505805969E-08  0.10566000000E+00  0.10566000000E+00 0.  1.
     999900   -1    0    0    0    0 -0.00000000000E+00 -0.00000000000E+00 -0.74505805969E-08  0.93827000000E+00  0.93827000000E+00 0. -1.
     999902    2    1    2    0    0 -0.61319836008E-02  0.11229923214E-01 -0.20500641300E-01  0.10197641420E+01  0.10194777666E+01 0.  0.
     999903    2    3    3    0    0 -0.10477179124E+00 -0.60338482818E-01  0.41295807922E-01  0.12921900025E+00  0.19348010870E-01 0.  0.
         14    1    1    2    0    0  0.61319836008E-02 -0.11229923214E-01  0.20500641300E-01  0.24165857982E-01  0.00000000000E+00 0.  1.
     999901    1    3    3    0    0  0.98639807640E-01  0.71568406033E-01 -0.61796449222E-01  0.89054514177E+00  0.88000000000E+00 0.  1.
        -11    1    4    4    0    0 -0.88404018555E-01 -0.54557565252E-01  0.28732968267E-01  0.10778517064E+00  0.51100000000E-03 0.  1.
         11    1    4    4    0    0 -0.16367772687E-01 -0.57809175664E-02  0.12562839655E-01  0.21433829611E-01  0.51100000000E-03 0. -1.
</event>
<event>
 8    1  0.1101883E+005  0.1043930E+01  0.7957747E-01            NaN
         13   -1    0    0    0    0  0.00000000000E+00  0.00000000000E+00  0.74505805969E-08  0.10566000000E+00  0.10566000000E+00 0.  1.
     999900   -1    0    0    0    0 -0.00000000000E+00 -0.00000000000E+00 -0.74505805969E-08  0.93827000000E+00  0.93827000000E+00 0.  1.
     999902    2    1    2    0    0 -0.19542301340E-01  0.18625468041E-01 -0.27283093869E-02  0.10167960126E+01  0.10164339024E+01 0.  0.
     999903    2    3    3    0    0 -0.38144842828E-01  0.73698813069E-01  0.97019904260E-01  0.12925512112E+00  0.20186144524E-01 0.  0.
         14    1    1    2    0    0  0.19542301340E-01 -0.18625468041E-01  0.27283093869E-02  0.27133987424E-01  0.00000000000E+00 0. -1.
     999901    1    3    3    0    0  0.18602541488E-01 -0.55073345028E-01 -0.99748213647E-01  0.88754089146E+00  0.88000000000E+00 0.  1.
        -11    1    4    4    0    0 -0.22410106345E-01  0.52881596521E-01  0.78427789036E-01  0.97210366377E-01  0.51100000000E-03 0. -1.
         11    1    4    4    0    0 -0.15734736483E-01  0.20817216548E-01  0.18592115223E-01  0.32044754742E-01  0.51100000000E-03 0.  1.
</event>
<event>
 8    1  0.1101883E+005  0.1043930E+01  0.7957747E-01            NaN
         13   -1    0    0    0    0  0.00000000000E+00  0.00000000000E+00  0.74505805969E-08  0.10566000000E+00  0.10566000000E+00 0.  1.
     999900   -1    0    0    0    0 -0.00000000000E+00 -0.00000000000E+00 -0.74505805969E-08  0.93827000000E+00  0.93827000000E+00 0. -1.
     999902    2    1    2    0    0 -0.28230539930E-02  0.17171860198E-01  0.13202014012E-01  0.10220865664E+01  0.10218531272E+01 0.  0.
     999903    2    3    3    0    0 -0.66094989613E-01 -0.56440014511E-01  0.98325497447E-01  0.13266650067E+00  0.19454409813E-01 0.  0.
         14    1    1    2    0    0  0.28230539930E-02 -0.17171860198E-01 -0.13202014012E-01  0.21843433578E-01  0.00000000000E+00 0. -1.
     999901    1    3    3    0    0  0.63271935619E-01  0.73611874709E-01 -0.85123483435E-01  0.88942006575E+00  0.88000000000E+00 0. -1.
        -11    1    4    4    0    0 -0.33170918321E-01 -0.16551174991E-01  0.46154683387E-01  0.59201073769E-01  0.51100000000E-03 0. -1.
         11    1    4    4    0    0 -0.32924071292E-01 -0.39888839520E-01  0.52170814060E-01  0.73465426898E-01  0.51100000000E-03 0.  1.
</event>
<event>
 8    1  0.1101883E+005  0.1043930E+01  0.7957747E-01            NaN
         13   -1    0    0    0    0  0.00000000000E+00  0.00000000000E+00  0.74505805969E-08  0.10566000000E+00  0.10566000000E+00 0.  1.
     999900   -1    0    0    0    0 -0.00000000000E+00 -0.00000000000E+00 -0.74505805969E-08  0.93827000000E+00  0.93827000000E+00 0.  1.
     999902    2    1    2    0    0 -0.61405795764E-02  0.19657214985E-01 -0.10530553267E-01  0.10207998169E+01  0.10205377312E+01 0.  0.
     999903    2    3    3    0    0  0.13426898480E-01  0.76534589357E-01 -0.10667830172E+00  0.13352178186E+00  0.20247992581E-01 0.  0.
         14    1    1    2    0    0  0.61405795764E-02 -0.19657214985E-01  0.10530553267E-01  0.23130183108E-01  0.00000000000E+00 0.  1.
     999901    1    3    3    0    0 -0.19567478057E-01 -0.56877374372E-01  0.96147748451E-01  0.88727803503E+00  0.88000000000E+00 0. -1.
        -11    1    4    4    0    0  0.63765361852E-02  0.43029190630E-02 -0.95766666080E-02  0.12294266570E-01  0.51100000000E-03 0. -1.
         11    1    4    4    0    0  0.70503622952E-02  0.72231670294E-01 -0.97101635110E-01  0.12122751529E+00  0.51100000000E-03 0.  1.
</event>
<event>
 8    1  0.1101883E+005  0.1043930E+01  0.7957747E-01            NaN
         13   -1    0    0    0    0  0.00000000000E+00  0.00000000000E+00  0.74505805969E-08  0.10566000000E+00  0.10566000000E+00 0.  1.
     999900   -1    0    0    0    0 -0.00000000000E+00 -0.00000000000E+00 -0.74505805969E-08  0.93827000000E+00  0.93827000000E+00 0.  1.
     999902    2    1    2    0    0  0.23413831160E-01 -0.19638619849E-02  0.39473984710E-02  0.10201046732E+01  0.10198264058E+01 0.  0.
     999903    2    3    3    0    0  0.10808190246E+00 -0.51157361311E-01 -0.54364975044E-01  0.13275524055E+00  0.19225767294E-01 0.  0.
         14    1    1    2    0    0 -0.23413831160E-01  0.19638619849E-02 -0.39473984710E-02  0.23825326822E-01  0.00000000000E+00 0. -1.
     999901    1    3    3    0    0 -0.84668071297E-01  0.49193499326E-01  0.58312373515E-01  0.88734943262E+00  0.88000000000E+00 0.  1.
        -11    1    4    4    0    0  0.82731264881E-01 -0.30275935018E-01 -0.42669086076E-01  0.97887723732E-01  0.51100000000E-03 0.  1.
         11    1    4    4    0    0  0.25350637577E-01 -0.20881426293E-01 -0.11695888968E-01  0.34867516822E-01  0.51100000000E-03 0. -1.
</event>
<event>
 8    1  0.1101883E+005  0.1043930E+01  0.7957747E-01            NaN
         13   -1    0    0    0    0  0.00000000000E+00  0.00000000000E+00  0.74505805969E-08  0.10566000000E+00  0.10566000000E+00 0. -1.
     999900   -1    0    0    0    0 -0.00000000000E+00 -0.00000000000E+00 -0.74505805969E-08  0.93827000000E+00  0.93827000000E+00 0. -1.
     999902    2    1    2    0    0  0.20844712935E-01 -0.91686928758E-02 -0.95834452347E-03  0.10211377774E+01  0.10208833797E+01 0.  0.
     999903    2    3    3    0    0 -0.53982003950E-01  0.66591928242E-01 -0.95500496823E-01  0.12969124069E+00  0.18733162048E-01 0.  0.
         14    1    1    2    0    0 -0.20844712935E-01  0.91686928758E-02  0.95834452347E-03  0.22792222590E-01  0.00000000000E+00 0. -1.
     999901    1    3    3    0    0  0.74826716885E-01 -0.75760621117E-01  0.94542152299E-01  0.89144653672E+00  0.88000000000E+00 0.  1.
        -11    1    4    4    0    0 -0.27715231328E-01  0.46365889244E-01 -0.66202613554E-01  0.85445754109E-01  0.51100000000E-03 0. -1.
         11    1    4    4    0    0 -0.26266772622E-01  0.20226038998E-01 -0.29297883269E-01  0.44245486579E-01  0.51100000000E-03 0.  1.
</event>
<event>
 8    1  0.1101883E+005  0.1043930E+01  0.7957747E-01            NaN
         13   -1    0    0    0    0  0.00000000000E+00  0.00000000000E+00  0.74505805969E-08  0.10566000000E+00  0.10566000000E+00 0.  1.
     999900   -1    0    0    0    0 -0.00000000000E+00 -0.00000000000E+00 -0.74505805969E-08  0.93827000000E+00  0.93827000000E+00 0.  1.
     999902    2    1    2    0    0 -0.17971694725E-01 -0.21671984816E-01 -0.33110714153E-02  0.10155818090E+01  0.10151860868E+01 0.  0.
     999903    2    3    3    0    0 -0.33388624970E-01 -0.11876915362E+00 -0.33997628250E-01  0.12957548473E+00  0.20323764161E-01 0.  0.
         14    1    1    2    0    0  0.17971694725E-01  0.21671984816E-01  0.33110714153E-02  0.28348190967E-01  0.00000000000E+00 0. -1.
     999901    1    3    3    0    0  0.15416930245E-01  0.97097168799E-01  0.30686556835E-01  0.88600632430E+00  0.88000000000E+00 0. -1.
        -11    1    4    4    0    0 -0.17046489896E-01 -0.61274037219E-01 -0.70013446022E-02  0.63987267500E-01  0.51100000000E-03 0. -1.
         11    1    4    4    0    0 -0.16342135074E-01 -0.57495116396E-01 -0.26996283648E-01  0.65588217235E-01  0.51100000000E-03 0.  1.
</event>
<event>
 8    1  0.1101883E+005  0.1043930E+01  0.7957747E-01            NaN
         13   -1    0    0    0    0  0.00000000000E+00  0.00000000000E+00  0.74505805969E-08  0.10566000000E+00  0.10566000000E+00 0.  1.
     999900   -1    0    0    0    0 -0.00000000000E+00 -0.00000000000E+00 -0.74505805969E-08  0.93827000000E+00  0.93827000000E+00 0. -1.
     999902    2    1    2    0    0  0.15994059982E-01  0.16084926022E-01  0.42007033210E-02  0.10208609578E+01  0.10206002716E+01 0.  0.
     999903    2    3    3    0    0 -0.26061974505E-01 -0.26754953601E-01  0.12366172829E+00  0.13076270378E+00  0.20288114692E-01 0.  0.
         14    1    1    2    0    0 -0.15994059982E-01 -0.16084926022E-01 -0.42007033210E-02  0.23069042205E-01  0.00000000000E+00 0.  1.
     999901    1    3    3    0    0  0.42056034487E-01  0.42839879624E-01 -0.11946102497E+00  0.89009825402E+00  0.88000000000E+00 0. -1.
        -11    1    4    4    0    0 -0.18426611924E-01 -0.51133334530E-02  0.65457020716E-01  0.68195079646E-01  0.51100000000E-03 0. -1.
         11    1    4    4    0    0 -0.76353625812E-02 -0.21641620148E-01  0.58204707574E-01  0.62567624129E-01  0.51100000000E-03 0.  1.
</event>
<event>
 8    1  0.1101883E+005  0.1043930E+01  0.7957747E-01            NaN
         13   -1    0    0    0    0  0.00000000000E+00  0.00000000000E+00  0.74505805969E-08  0.10566000000E+00  0.10566000000E+00 0.  1.
     999900   -1    0    0    0    0 -0.00000000000E+00 -0.00000000000E+00 -0.74505805969E-08  0.93827000000E+00  0.93827000000E+00 0. -1.
     999902    2    1    2    0    0  0.14420722022E-01 -0.17370515972E-01 -0.10591404925E-01  0.10189926804E+01  0.10186874952E+01 0.  0.
     999903    2    3    3    0    0  0.64501236530E-01  0.43393844261E-01  0.10032516228E+00  0.12854175518E+00  0.20357048057E-01 0.  0.
         14    1    1    2    0    0 -0.14420722022E-01  0.17370515972E-01  0.10591404925E-01  0.24937319564E-01  0.00000000000E+00 0.  1.
     999901    1    3    3    0    0 -0.50080514508E-01 -0.60764360233E-01 -0.11091656720E+00  0.89045092526E+00  0.88000000000E+00 0. -1.
        -11    1    4    4    0    0  0.16496922057E-01  0.10912591125E-01  0.41407011268E-01  0.45891554622E-01  0.51100000000E-03 0. -1.
         11    1    4    4    0    0  0.48004314473E-01  0.32481253136E-01  0.58918151008E-01  0.82650200559E-01  0.51100000000E-03 0.  1.
</event>
<event>
 8    1  0.1101883E+005  0.1043930E+01  0.7957747E-01            NaN
         13   -1    0    0    0    0  0.00000000000E+00  0.00000000000E+00  0.74505805969E-08  0.10566000000E+00  0.10566000000E+00 0.  1.
     999900   -1    0    0    0    0 -0.00000000000E+00 -0.00000000000E+00 -0.74505805969E-08  0.93827000000E+00  0.93827000000E+00 0. -1.
     999902    2    1    2    0    0  0.16156204660E-01  0.12840890749E-01  0.13527271057E-03  0.10232919351E+01  0.10230837965E+01 0.  0.
     999903    2    3    3    0    0 -0.63001749531E-01  0.43902016329E-01 -0.10650943791E+00  0.13278428800E+00  0.19768644232E-01 0.  0.
         14    1    1    2    0    0 -0.16156204660E-01 -0.12840890749E-01 -0.13527271057E-03  0.20638064903E-01  0.00000000000E+00 0.  1.
     999901    1    3    3    0    0  0.79157954191E-01 -0.31061125580E-01  0.10664471062E+00  0.89050764710E+00  0.88000000000E+00 0.  1.
        -11    1    4    4    0    0 -0.37749757452E-01  0.23520559561E-01 -0.45207849880E-01  0.63421382211E-01  0.51100000000E-03 0. -1.
         11    1    4    4    0    0 -0.25251992078E-01  0.20381456768E-01 -0.61301588027E-01  0.69362905789E-01  0.51100000000E-03 0.  1.
</event>
<event>
 8    1  0.1101883E+005  0.1043930E+01  0.7957747E-01            NaN
         13   -1    0    0    0    0  0.00000000000E+00  0.00000000000E+00  0.74505805969E-08  0.10566000000E+00  0.10566000000E+00 0.  1.
     999900   -1    0    0    0    0 -0.00000000000E+00 -0.00000000000E+00 -0.74505805969E-08  0.93827000000E+00  0.93827000000E+00 0.  1.
     999902    2    1    2    0    0 -0.19617882165E-01 -0.32125859757E-02  0.15672292871E-01  0.10186159175E+01  0.10183013231E+01 0.  0.
     999903    2    3    3    0    0 -0.61188719166E-01  0.65523305739E-01 -0.90200802099E-01  0.12863733936E+00  0.19339530249E-01 0.  0.
         14    1    1    2    0    0  0.19617882165E-01  0.32125859757E-02 -0.15672292871E-01  0.25314082506E-01  0.00000000000E+00 0. -1.
     999901    1    3    3    0    0  0.41570837001E-01 -0.68735891714E-01  0.10587309497E+00  0.88997857813E+00  0.88000000000E+00 0. -1.
        -11    1    4    4    0    0 -0.18544005452E-01  0.89141950404E-02 -0.24451315312E-01  0.31960459210E-01  0.51100000000E-03 0. -1.
         11    1    4    4    0    0 -0.42644713714E-01  0.56609110698E-01 -0.65749486787E-01  0.96676880150E-01  0.51100000000E-03 0.  1.
</event>
<event>
 8    1  0.1101883E+005  0.1043930E+01  0.7957747E-01            NaN
         13   -1    0    0    0    0  0.00000000000E+00  0.00000000000E+00  0.74505805969E-08  0.10566000000E+00  0.10566000000E+00 0.  1.
     999900   -1    0    0    0    0 -0.00000000000E+00 -0.00000000000E+00 -0.74505805969E-08  0.93827000000E+00  0.93827000000E+00 0. -1.
     999902    2    1    2    0    0 -0.24677765986E-01 -0.25530569004E-01 -0.67012952907E-03  0.10084159019E+01  0.10077903453E+01 0.  0.
     999903    2    3    3    0    0  0.44292820772E-01  0.27060132231E-01  0.10395763797E+00  0.11798359489E+00  0.20465420670E-01 0.  0.
         14    1    1    2    0    0  0.24677765986E-01  0.25530569004E-01  0.67012952907E-03  0.35514098065E-01  0.00000000000E+00 0. -1.
     999901    1    3    3    0    0 -0.68970586758E-01 -0.52590701236E-01 -0.10462776750E+00  0.89043230704E+00  0.88000000000E+00 0. -1.
        -11    1    4    4    0    0  0.11389624218E-01 -0.59357769544E-03  0.34107160633E-01  0.35967143364E-01  0.51100000000E-03 0. -1.
         11    1    4    4    0    0  0.32903196554E-01  0.27653709927E-01  0.69850477337E-01  0.82016451529E-01  0.51100000000E-03 0.  1.
</event>
<event>
 8    1  0.1101883E+005  0.1043930E+01  0.7957747E-01            NaN
         13   -1    0    0    0    0  0.00000000000E+00  0.00000000000E+00  0.74505805969E-08  0.10566000000E+00  0.10566000000E+00 0. -1.
     999900   -1    0    0    0    0 -0.00000000000E+00 -0.00000000000E+00 -0.74505805969E-08  0.93827000000E+00  0.93827000000E+00 0.  1.
     999902    2    1    2    0    0 -0.18076721651E-01 -0.15898853688E-01  0.81224272496E-03  0.10198426350E+01  0.10195581391E+01 0.  0.
     999903    2    3    3    0    0  0.10811685996E+00 -0.67203158973E-01 -0.51496135665E-02  0.12934137419E+00  0.22296918502E-01 0.  0.
         14    1    1    2    0    0  0.18076721651E-01  0.15898853688E-01 -0.81224272496E-03  0.24087364997E-01  0.00000000000E+00 0. -1.
     999901    1    3    3    0    0 -0.12619358161E+00  0.51304305285E-01  0.59618562914E-02  0.89050126081E+00  0.88000000000E+00 0.  1.
        -11    1    4    4    0    0  0.31904962506E-01 -0.24077951426E-01  0.80691531967E-02  0.40780469979E-01  0.51100000000E-03 0.  1.
         11    1    4    4    0    0  0.76211897450E-01 -0.43125207547E-01 -0.13218766763E-01  0.88560904211E-01  0.51100000000E-03 0. -1.
</event>
<event>
 8    1  0.1101883E+005  0.1043930E+01  0.7957747E-01            NaN
         13   -1    0    0    0    0  0.00000000000E+00  0.00000000000E+00  0.74505805969E-08  0.10566000000E+00  0.10566000000E+00 0.  1.
     999900   -1    0    0    0    0 -0.00000000000E+00 -0.00000000000E+00 -0.74505805969E-08  0.93827000000E+00  0.93827000000E+00 0. -1.
     999902    2    1    2    0    0  0.11598814500E-01  0.18703566935E-01 -0.70502642021E-02  0.10208202155E+01  0.10205585972E+01 0.  0.
     999903    2    3    3    0    0  0.75374742415E-01 -0.58953271715E-01 -0.87780777218E-01  0.13142976734E+00  0.20284941532E-01 0.  0.
         14    1    1    2    0    0 -0.11598814500E-01 -0.18703566935E-01  0.70502642021E-02  0.23109784491E-01  0.00000000000E+00 0. -1.
     999901    1    3    3    0    0 -0.63775927914E-01  0.77656838650E-01  0.80730513016E-01  0.88939044817E+00  0.88000000000E+00 0. -1.
        -11    1    4    4    0    0  0.54030306394E-01 -0.33956020895E-01 -0.48177603959E-01  0.79960165134E-01  0.51100000000E-03 0.  1.
         11    1    4    4    0    0  0.21344436020E-01 -0.24997250819E-01 -0.39603173259E-01  0.51469602201E-01  0.51100000000E-03 0. -1.
</event>
<event>
 8    1  0.1101883E+005  0.1043930E+01  0.7957747E-01            NaN
         13   -1    0    0    0    0  0.00000000000E+00  0.00000000000E+00  0.74505805969E-08  0.10566000000E+00  0.10566000000E+00 0. -1.
     999900   -1    0    0    0    0 -0.00000000000E+00 -0.00000000000E+00 -0.74505805969E-08  0.93827000000E+00  0.93827000000E+00 0. -1.
     999902    2    1    2    0    0 -0.83712066545E-02 -0.76061789621E-02 -0.20812715420E-01  0.10202424467E+01  0.10199674259E+01 0.  0.
     999903    2    3    3    0    0  0.27987255286E-02  0.12780517685E+00  0.40618122921E-02  0.12946764641E+00  0.20084248894E-01 0.  0.
         14    1    1    2    0    0  0.83712066545E-02  0.76061789621E-02  0.20812715420E-01  0.23687553322E-01  0.00000000000E+00 0. -1.
     999901    1    3    3    0    0 -0.11169932183E-01 -0.13541135581E+00 -0.24874527712E-01  0.89077480027E+00  0.88000000000E+00 0.  1.
        -11    1    4    4    0    0 -0.35135492712E-02  0.40003979324E-01 -0.69300449691E-02  0.40754754747E-01  0.51100000000E-03 0. -1.
         11    1    4    4    0    0  0.63122747997E-02  0.87801197523E-01  0.10991857261E-01  0.88712891660E-01  0.51100000000E-03 0.  1.
</event>
<event>
 8    1  0.1101883E+005  0.1043930E+01  0.7957747E-01            NaN
         13   -1    0    0    0    0  0.00000000000E+00  0.00000000000E+00  0.74505805969E-08  0.10566000000E+00  0.10566000000E+00 0.  1.
     999900   -1    0    0    0    0 -0.00000000000E+00 -0.00000000000E+00 -0.74505805969E-08  0.93827000000E+00  0.93827000000E+00 0.  1.
     999902    2    1    2    0    0 -0.26113645649E-02  0.39957257711E-02  0.21908111159E-01  0.10215079041E+01  0.10212617920E+01 0.  0.
     999903    2    3    3    0    0 -0.52629717630E-02 -0.10709872773E+00  0.75653830880E-01  0.13289234550E+00  0.20953210068E-01 0.  0.
         14    1    1    2    0    0  0.26113645649E-02 -0.39957257711E-02 -0.21908111159E-01  0.22422095885E-01  0.00000000000E+00 0. -1.
     999901    1    3    3    0    0  0.26516071981E-02  0.11109445351E+00 -0.53745719722E-01  0.88861555861E+00  0.88000000000E+00 0.  1.
        -11    1    4    4    0    0  0.67686592380E-02 -0.44083649283E-01  0.24857570134E-01  0.51062146409E-01  0.51100000000E-03 0. -1.
         11    1    4    4    0    0 -0.12031631001E-01 -0.63015078452E-01  0.50796260746E-01  0.81830199093E-01  0.51100000000E-03 0.  1.
</event>
<event>
 8    1  0.1101883E+005  0.1043930E+01  0.7957747E-01            NaN
         13   -1    0    0    0    0  0.00000000000E+00  0.00000000000E+00  0.74505805969E-08  0.10566000000E+00  0.10566000000E+00 0. -1.
     999900   -1    0    0    0    0 -0.00000000000E+00 -0.00000000000E+00 -0.74505805969E-08  0.93827000000E+00  0.93827000000E+00 0.  1.
     999902    2    1    2    0    0 -0.19182193741E-01  0.10934714517E-01  0.94437838006E-02  0.10199152214E+01  0.10196324579E+01 0.  0.
     999903    2    3    3    0    0 -0.71922661022E-01 -0.80181559297E-01 -0.70351697129E-01  0.13005509138E+00  0.19052923257E-01 0.  0.
         14    1    1    2    0    0  0.19182193741E-01 -0.10934714517E-01 -0.94437838006E-02  0.24014778590E-01  0.00000000000E+00 0.  1.
     999901    1    3    3    0    0  0.52740467281E-01  0.91116273814E-01  0.79795480930E-01  0.88986013003E+00  0.88000000000E+00 0.  1.
        -11    1    4    4    0    0 -0.19491529320E-01 -0.35468615435E-01 -0.25922845584E-01  0.48064513316E-01  0.51100000000E-03 0. -1.
         11    1    4    4    0    0 -0.52431131702E-01 -0.44712943862E-01 -0.44428851545E-01  0.81990578062E-01  0.51100000000E-03 0.  1.
</event>
<event>
 8    1  0.1101883E+005  0.1043930E+01  0.7957747E-01            NaN
         13   -1    0    0    0    0  0.00000000000E+00  0.00000000000E+00  0.74505805969E-08  0.10566000000E+00  0.10566000000E+00 0.  1.
     999900   -1    0    0    0    0 -0.00000000000E+00 -0.00000000000E+00 -0.74505805969E-08  0.93827000000E+00  0.93827000000E+00 0.  1.
     999902    2    1    2    0    0  0.13076368750E-01  0.19160819590E-01 -0.10912925392E-01  0.10182936904E+01  0.10179709326E+01 0.  0.
     999903    2    3    3    0    0  0.11280915765E+00  0.63928780094E-01  0.35269529473E-02  0.13141190037E+00  0.21067823525E-01 0.  0.
         14    1    1    2    0    0 -0.13076368750E-01 -0.19160819590E-01  0.10912925392E-01  0.25636309556E-01  0.00000000000E+00 0.  1.
     999901    1    3    3    0    0 -0.99732788904E-01 -0.44767960504E-01 -0.14439878339E-01  0.88688179007E+00  0.88000000000E+00 0.  1.
        -11    1    4    4    0    0  0.88688629223E-01  0.39777881441E-01  0.37511877528E-02  0.97274278902E-01  0.51100000000E-03 0. -1.
         11    1    4    4    0    0  0.24120528431E-01  0.24150898654E-01 -0.22423480549E-03  0.34137621473E-01  0.51100000000E-03 0.  1.
</event>
<event>
 8    1  0.1101883E+005  0.1043930E+01  0.7957747E-01            NaN
         13   -1    0    0    0    0  0.00000000000E+00  0.00000000000E+00  0.74505805969E-08  0.10566000000E+00  0.10566000000E+00 0. -1.
     999900   -1    0    0    0    0 -0.00000000000E+00 -0.00000000000E+00 -0.74505805969E-08  0.93827000000E+00  0.93827000000E+00 0. -1.
     999902    2    1    2    0    0  0.60254576338E-02 -0.55236195427E-02 -0.21444628408E-01  0.10209803028E+01  0.10207223375E+01 0.  0.
     999903    2    3    3    0    0  0.64820501503E-01  0.10752078109E+00  0.26739802052E-01  0.13049861687E+00  0.23504387014E-01 0.  0.
         14    1    1    2    0    0 -0.60254576338E-02  0.55236195427E-02  0.21444628408E-01  0.22949697168E-01  0.00000000000E+00 0. -1.
     999901    1    3    3    0    0 -0.58795043869E-01 -0.11304440063E+00 -0.48184430460E-01  0.89048168596E+00  0.88000000000E+00 0. -1.
        -11    1    4    4    0    0  0.23220226712E-01  0.21615094744E-01  0.11981741623E-01  0.33914812437E-01  0.51100000000E-03 0. -1.
         11    1    4    4    0    0  0.41600274792E-01  0.85905686348E-01  0.14758060429E-01  0.96583804431E-01  0.51100000000E-03 0.  1.
</event>
<event>
 8    1  0.1101883E+005  0.1043930E+01  0.7957747E-01            NaN
         13   -1    0    0    0    0  0.00000000000E+00  0.00000000000E+00  0.74505805969E-08  0.10566000000E+00  0.10566000000E+00 0. -1.
     999900   -1    0    0    0    0 -0.00000000000E+00 -0.00000000000E+00 -0.74505805969E-08  0.93827000000E+00  0.93827000000E+00 0. -1.
     999902    2    1    2    0    0  0.20176379466E-01  0.34671819910E-02  0.11225353288E-01  0.10205822764E+01  0.10203151801E+01 0.  0.
     999903    2    3    3    0    0 -0.10742247559E+00  0.54730946442E-02 -0.66373187912E-01  0.12799781259E+00  0.20211306926E-01 0.  0.
         14    1    1    2    0    0 -0.20176379466E-01 -0.34671819910E-02 -0.11225353288E-01  0.23347723567E-01  0.00000000000E+00 0.  1.
     999901    1    3    3    0    0  0.12759885506E+00 -0.20059126532E-02  0.77598541200E-01  0.89258446384E+00  0.88000000000E+00 0.  1.
        -11    1    4    4    0    0 -0.42289336518E-01 -0.44363837453E-02 -0.34749072738E-01  0.54916560899E-01  0.51100000000E-03 0. -1.
         11    1    4    4    0    0 -0.65133139071E-01  0.99094783895E-02 -0.31624115174E-01  0.73081251691E-01  0.51100000000E-03 0.  1.
</event>
<event>
 8    1  0.1101883E+005  0.1043930E+01  0.7957747E-01            NaN
         13   -1    0    0    0    0  0.00000000000E+00  0.00000000000E+00  0.74505805969E-08  0.10566000000E+00  0.10566000000E+00 0.  1.
     999900   -1    0    0    0    0 -0.00000000000E+00 -0.00000000000E+00 -0.74505805969E-08  0.93827000000E+00  0.93827000000E+00 0. -1.
     999902    2    1    2    0    0  0.19973448037E-01  0.12918917904E-01 -0.57416487863E-02  0.10194595362E+01  0.10191658071E+01 0.  0.
     999903    2    3    3    0    0 -0.81372620619E-01 -0.68767336175E-01 -0.65960625077E-01  0.12784863744E+00  0.25377551570E-01 0.  0.
         14    1    1    2    0    0 -0.19973448037E-01 -0.12918917904E-01  0.57416487863E-02  0.24470463769E-01  0.00000000000E+00 0.  1.
     999901    1    3    3    0    0  0.10134606866E+00  0.81686254079E-01  0.60218976290E-01  0.89161089879E+00  0.88000000000E+00 0.  1.
        -11    1    4    4    0    0 -0.30334978412E-01 -0.37142135139E-01 -0.18853123374E-01  0.51531063446E-01  0.51100000000E-03 0.  1.
         11    1    4    4    0    0 -0.51037642207E-01 -0.31625201036E-01 -0.47107501703E-01  0.76317573994E-01  0.51100000000E-03 0. -1.
</event>
<event>
 8    1  0.1101883E+005  0.1043930E+01  0.7957747E-01            NaN
         13   -1    0    0    0    0  0.00000000000E+00  0.00000000000E+00  0.74505805969E-08  0.10566000000E+00  0.10566000000E+00 0.  1.
     999900   -1    0    0    0    0 -0.00000000000E+00 -0.00000000000E+00 -0.74505805969E-08  0.93827000000E+00  0.93827000000E+00 0. -1.
     999902    2    1    2    0    0 -0.14383558386E-02  0.14062622853E-01 -0.19058721158E-01  0.10202010919E+01  0.10199250986E+01 0.  0.
     999903    2    3    3    0    0  0.85365450710E-01 -0.66983626675E-01  0.65541868143E-01  0.12820296681E+00  0.19136295400E-01 0.  0.
         14    1    1    2    0    0  0.14383558386E-02 -0.14062622853E-01  0.19058721158E-01  0.23728908134E-01  0.00000000000E+00 0.  1.
     999901    1    3    3    0    0 -0.86803806549E-01  0.81046249528E-01 -0.84600589302E-01  0.89199812506E+00  0.88000000000E+00 0.  1.
        -11    1    4    4    0    0  0.26954920236E-01 -0.12619982906E-01  0.24021188746E-01  0.38250625135E-01  0.51100000000E-03 0.  1.
         11    1    4    4    0    0  0.58410530474E-01 -0.54363643768E-01  0.41520679397E-01  0.89952341674E-01  0.51100000000E-03 0. -1.
</event>
<event>
 8    1  0.1101883E+005  0.1043930E+01  0.7957747E-01            NaN
         13   -1    0    0    0    0  0.00000000000E+00  0.00000000000E+00  0.74505805969E-08  0.10566000000E+00  0.10566000000E+00 0. -1.
     999900   -1    0    0    0    0 -0.00000000000E+00 -0.00000000000E+00 -0.74505805969E-08  0.93827000000E+00  0.93827000000E+00 0.  1.
     999902    2    1    2    0    0 -0.60135463951E-02 -0.16775868565E-01 -0.15004041281E-01  0.10206337823E+01  0.10203678767E+01 0.  0.
     999903    2    3    3    0    0  0.42403948306E-01  0.71061559213E-01  0.95197530212E-01  0.12810700178E+00  0.22382897862E-01 0.  0.
         14    1    1    2    0    0  0.60135463951E-02  0.16775868565E-01  0.15004041281E-01  0.23296217742E-01  0.00000000000E+00 0.  1.
     999901    1    3    3    0    0 -0.48417494701E-01 -0.87837427778E-01 -0.11020157149E+00  0.89252678048E+00  0.88000000000E+00 0.  1.
        -11    1    4    4    0    0  0.38024393701E-01  0.45343674655E-01  0.59804994434E-01  0.84135615692E-01  0.51100000000E-03 0.  1.
         11    1    4    4    0    0  0.43795546049E-02  0.25717884558E-01  0.35392535778E-01  0.43971386088E-01  0.51100000000E-03 0. -1.
</event>
<event>
 8    1  0.1101883E+005  0.1043930E+01  0.7957747E-01            NaN
         13   -1    0    0    0    0  0.00000000000E+00  0.00000000000E+00  0.74505805969E-08  0.10566000000E+00  0.10566000000E+00 0.  1.
     999900   -1    0    0    0    0 -0.00000000000E+00 -0.00000000000E+00 -0.74505805969E-08  0.93827000000E+00  0.93827000000E+00 0.  1.
     999902    2    1    2    0    0 -0.26184214335E-01  0.35156542219E-02  0.18127648125E-03  0.10175102012E+01  0.10171671465E+01 0.  0.
     999903    2    3    3    0    0  0.64733151970E-01 -0.10422301090E+00 -0.20460446006E-01  0.12605090988E+00  0.20430004048E-01 0.  0.
         14    1    1    2    0    0  0.26184214335E-01 -0.35156542219E-02 -0.18127648125E-03  0.26419798753E-01  0.00000000000E+00 0.  1.
     999901    1    3    3    0    0 -0.90917366305E-01  0.10773866512E+00  0.20641722487E-01  0.89145929137E+00  0.88000000000E+00 0. -1.
        -11    1    4    4    0    0  0.46080275488E-01 -0.89120774291E-01 -0.15191356867E-01  0.10147385202E+00  0.51100000000E-03 0.  1.
         11    1    4    4    0    0  0.18652876482E-01 -0.15102236611E-01 -0.52690891395E-02  0.24577057860E-01  0.51100000000E-03 0. -1.
</event>
<event>
 8    1  0.1101883E+005  0.1043930E+01  0.7957747E-01            NaN
         13   -1    0    0    0    0  0.00000000000E+00  0.00000000000E+00  0.74505805969E-08  0.10566000000E+00  0.10566000000E+00 0.  1.
     999900   -1    0    0    0    0 -0.00000000000E+00 -0.00000000000E+00 -0.74505805969E-08  0.93827000000E+00  0.93827000000E+00 0.  1.
     999902    2    1    2    0    0  0.67826949069E-02  0.18291773230E-01  0.12665678568E-01  0.10206703067E+01  0.10204052439E+01 0.  0.
     999903    2    3    3    0    0  0.36667711935E-01 -0.11931147330E+00 -0.24376204359E-01  0.12870625543E+00  0.19782620834E-01 0.  0.
         14    1    1    2    0    0 -0.67826949069E-02 -0.18291773230E-01 -0.12665678568E-01  0.23259693284E-01  0.00000000000E+00 0. -1.
     999901    1    3    3    0    0 -0.29885017028E-01  0.13760324653E+00  0.37041882927E-01  0.89196405129E+00  0.88000000000E+00 0. -1.
        -11    1    4    4    0    0  0.23797017212E-01 -0.10177389876E+00 -0.18259419312E-01  0.10610321396E+00  0.51100000000E-03 0. -1.
         11    1    4    4    0    0  0.12870694723E-01 -0.17537574542E-01 -0.61167850470E-02  0.22603041472E-01  0.51100000000E-03 0.  1.
</event>
<event>
 8    1  0.1101883E+005  0.1043930E+01  0.7957747E-01            NaN
         13   -1    0    0    0    0  0.00000000000E+00  0.00000000000E+00  0.74505805969E-08  0.10566000000E+00  0.10566000000E+00 0. -1.
     999900   -1    0    0    0    0 -0.00000000000E+00 -0.00000000000E+00 -0.74505805969E-08  0.93827000000E+00  0.93827000000E+00 0. -1.
     999902    2    1    2    0    0  0.15420445134E-01  0.32966670745E-02  0.17125761950E-01  0.10206501833E+01  0.10203846563E+01 0.  0.
     999903    2    3    3    0    0 -0.24672039535E-01 -0.11338416665E+00 -0.53301612437E-01  0.12925698201E+00  0.20040626955E-01 0.  0.
         14    1    1    2    0    0 -0.15420445134E-01 -0.32966670745E-02 -0.17125761950E-01  0.23279816672E-01  0.00000000000E+00 0.  1.
     999901    1    3    3    0    0  0.40092484669E-01  0.11668083373E+00  0.70427374387E-01  0.89139320131E+00  0.88000000000E+00 0.  1.
        -11    1    4    4    0    0 -0.24290626202E-01 -0.65569699527E-01 -0.30814064043E-01  0.76414577675E-01  0.51100000000E-03 0.  1.
         11    1    4    4    0    0 -0.38141333353E-03 -0.47814467125E-01 -0.22487548394E-01  0.52842404339E-01  0.51100000000E-03 0. -1.
</event>
<event>
 8    1  0.1101883E+005  0.1043930E+01  0.7957747E-01            NaN
         13   -1    0    0    0    0  0.00000000000E+00  0.00000000000E+00  0.74505805969E-08  0.10566000000E+00  0.10566000000E+00 0. -1.
     999900   -1    0    0    0    0 -0.00000000000E+00 -0.00000000000E+00 -0.74505805969E-08  0.93827000000E+00  0.93827000000E+00 0.  1.
     999902    2    1    2    0    0  0.41404690856E-02 -0.66354108444E-02  0.22276628256E-01  0.10203202493E+01  0.10200470532E+01 0.  0.
     999903    2    3    3    0    0 -0.20353090992E-02 -0.15860514173E-01  0.13115537536E+00  0.13354078160E+00  0.19383226548E-01 0.  0.
         14    1    1    2    0    0 -0.41404690856E-02  0.66354108444E-02 -0.22276628256E-01  0.23609750693E-01  0.00000000000E+00 0.  1.
     999901    1    3    3    0    0  0.61757781847E-02  0.92251033289E-02 -0.10887874711E+00  0.88677946770E+00  0.88000000000E+00 0.  1.
        -11    1    4    4    0    0  0.75112620249E-02 -0.13092379034E-02  0.35397851750E-01  0.36213287487E-01  0.51100000000E-03 0. -1.
         11    1    4    4    0    0 -0.95465711241E-02 -0.14551276270E-01  0.95757523615E-01  0.97327494117E-01  0.51100000000E-03 0.  1.
</event>
<event>
 8    1  0.1101883E+005  0.1043930E+01  0.7957747E-01            NaN
         13   -1    0    0    0    0  0.00000000000E+00  0.00000000000E+00  0.74505805969E-08  0.10566000000E+00  0.10566000000E+00 0. -1.
     999900   -1    0    0    0    0 -0.00000000000E+00 -0.00000000000E+00 -0.74505805969E-08  0.93827000000E+00  0.93827000000E+00 0. -1.
     999902    2    1    2    0    0  0.95403881940E-02 -0.12383861679E-01  0.17041793758E-01  0.10208042185E+01  0.10205422337E+01 0.  0.
     999903    2    3    3    0    0  0.10268034193E+00  0.75375503816E-01  0.23415384670E-01  0.13152508351E+00  0.22931379350E-01 0.  0.
         14    1    1    2    0    0 -0.95403881940E-02  0.12383861679E-01 -0.17041793758E-01  0.23125781532E-01  0.00000000000E+00 0. -1.
     999901    1    3    3    0    0 -0.93139953733E-01 -0.87759365495E-01 -0.63735909120E-02  0.88927913496E+00  0.88000000000E+00 0. -1.
        -11    1    4    4    0    0  0.69761880736E-01  0.37877468458E-01  0.17360546807E-01  0.81259290713E-01  0.51100000000E-03 0.  1.
         11    1    4    4    0    0  0.32918461190E-01  0.37498035357E-01  0.60548378635E-02  0.50265792795E-01  0.51100000000E-03 0. -1.
</event>
<event>
 8    1  0.1101883E+005  0.1043930E+01  0.7957747E-01            NaN
         13   -1    0    0    0    0  0.00000000000E+00  0.00000000000E+00  0.74505805969E-08  0.10566000000E+00  0.10566000000E+00 0.  1.
     999900   -1    0    0    0    0 -0.00000000000E+00 -0.00000000000E+00 -0.74505805969E-08  0.93827000000E+00  0.93827000000E+00 0. -1.
     999902    2    1    2    0    0  0.33728700450E-02  0.82829027595E-02 -0.24827121438E-01  0.10175412014E+01  0.10171989618E+01 0.  0.
     999903    2    3    3    0    0  0.11537321459E+00  0.53138027192E-01 -0.12479103072E-01  0.12922339068E+00  0.20207130066E-01 0.  0.
         14    1    1    2    0    0 -0.33728700450E-02 -0.82829027595E-02  0.24827121438E-01  0.26388798559E-01  0.00000000000E+00 0.  1.
     999901    1    3    3    0    0 -0.11200034455E+00 -0.44855124432E-01 -0.12348018366E-01  0.88831781077E+00  0.88000000000E+00 0.  1.
        -11    1    4    4    0    0  0.82456144529E-01  0.32969877407E-01 -0.16782491072E-01  0.90376665763E-01  0.51100000000E-03 0. -1.
         11    1    4    4    0    0  0.32917070062E-01  0.20168149785E-01  0.43033880007E-02  0.38846724913E-01  0.51100000000E-03 0.  1.
</event>
<event>
 8    1  0.1101883E+005  0.1043930E+01  0.7957747E-01            NaN
         13   -1    0    0    0    0  0.00000000000E+00  0.00000000000E+00  0.74505805969E-08  0.10566000000E+00  0.10566000000E+00 0.  1.
     999900   -1    0    0    0    0 -0.00000000000E+00 -0.00000000000E+00 -0.74505805969E-08  0.93827000000E+00  0.93827000000E+00 0. -1.
     999902    2    1    2    0    0 -0.20253986083E-02 -0.12300570057E-01 -0.17209876731E-01  0.10226794442E+01  0.10224586346E+01 0.  0.
     999903    2    3    3    0    0  0.49142401886E-01  0.37172328568E-01  0.11324795173E+00  0.13021938546E+00  0.18309344689E-01 0.  0.
         14    1    1    2    0    0  0.20253986083E-02  0.12300570057E-01  0.17209876731E-01  0.21250555766E-01  0.00000000000E+00 0.  1.
     999901    1    3    3    0    0 -0.51167800495E-01 -0.49472898625E-01 -0.13045782846E+00  0.89246005878E+00  0.88000000000E+00 0. -1.
        -11    1    4    4    0    0  0.22465146646E-01  0.17986669268E-01  0.34767372435E-01  0.45135732986E-01  0.51100000000E-03 0.  1.
         11    1    4    4    0    0  0.26677255241E-01  0.19185659300E-01  0.78480579297E-01  0.85083652471E-01  0.51100000000E-03 0. -1.
</event>
<event>
 8    1  0.1101883E+005  0.1043930E+01  0.7957747E-01            NaN
         13   -1    0    0    0    0  0.00000000000E+00  0.00000000000E+00  0.74505805969E-08  0.10566000000E+00  0.10566000000E+00 0. -1.
     999900   -1    0    0    0    0 -0.00000000000E+00 -0.00000000000E+00 -0.74505805969E-08  0.93827000000E+00  0.93827000000E+00 0.  1.
     999902    2    1    2    0    0  0.19756275174E-01  0.13717991463E-01  0.13362461075E-02  0.10198410139E+01  0.10195564792E+01 0.  0.
     999903    2    3    3    0    0 -0.92260446159E-01  0.34645059032E-01 -0.80292647764E-01  0.12874676279E+00  0.20409546858E-01 0.  0.
         14    1    1    2    0    0 -0.19756275174E-01 -0.13717991463E-01 -0.13362461075E-02  0.24088986118E-01  0.00000000000E+00 0. -1.
     999901    1    3    3    0    0  0.11201672133E+00 -0.20927067569E-01  0.81628893871E-01  0.89109425109E+00  0.88000000000E+00 0. -1.
        -11    1    4    4    0    0 -0.27333104830E-01  0.20140341520E-01 -0.30568475122E-01  0.45688343902E-01  0.51100000000E-03 0.  1.
         11    1    4    4    0    0 -0.64927341329E-01  0.14504717512E-01 -0.49724172642E-01  0.83058418888E-01  0.51100000000E-03 0. -1.
</event>
<event>
 8    1  0.1101883E+005  0.1043930E+01  0.7957747E-01            NaN
         13   -1    0    0    0    0  0.00000000000E+00  0.00000000000E+00  0.74505805969E-08  0.10566000000E+00  0.10566000000E+00 0.  1.
     999900   -1    0    0    0    0 -0.00000000000E+00 -0.00000000000E+00 -0.74505805969E-08  0.93827000000E+00  0.93827000000E+00 0.  1.
     999902    2    1    2    0    0  0.95728521341E-02 -0.19810529488E-01  0.78915090817E-02  0.10205553879E+01  0.10202876689E+01 0.  0.
     999903    2    3    3    0    0 -0.88983089671E-01  0.29252960181E-01  0.87982358086E-01  0.13008638573E+00  0.20195209598E-01 0.  0.
         14    1    1    2    0    0 -0.95728521341E-02  0.19810529488E-01 -0.78915090817E-02  0.23374612129E-01  0.00000000000E+00 0. -1.
     999901    1    3    3    0    0  0.98555941805E-01 -0.49063489670E-01 -0.80090849004E-01  0.89046900214E+00  0.88000000000E+00 0.  1.
        -11    1    4    4    0    0 -0.54412431201E-01  0.89109398725E-02  0.57821378860E-01  0.79898000556E-01  0.51100000000E-03 0.  1.
         11    1    4    4    0    0 -0.34570658470E-01  0.20342020309E-01  0.30160979226E-01  0.50188385172E-01  0.51100000000E-03 0. -1.
</event>
<event>
 8    1  0.1101883E+005  0.1043930E+01  0.7957747E-01            NaN
         13   -1    0    0    0    0  0.00000000000E+00  0.00000000000E+00  0.74505805969E-08  0.10566000000E+00  0.10566000000E+00 0.  1.
     999900   -1    0    0    0    0 -0.00000000000E+00 -0.00000000000E+00 -0.74505805969E-08  0.93827000000E+00  0.93827000000E+00 0.  1.
     999902    2    1    2    0    0  0.19099590818E-01 -0.13753675427E-01 -0.45527811548E-02  0.10199573954E+01  0.10196756360E+01 0.  0.
     999903    2    3    3    0    0  0.47240805588E-02 -0.11910605681E+00 -0.53306939674E-01  0.13221714757E+00  0.20764743920E-01 0.  0.
         14    1    1    2    0    0 -0.19099590818E-01  0.13753675427E-01  0.45527811548E-02  0.23972604644E-01  0.00000000000E+00 0.  1.
     999901    1    3    3    0    0  0.14375510259E-01  0.10535238138E+00  0.48754158519E-01  0.88774024778E+00  0.88000000000E+00 0. -1.
        -11    1    4    4    0    0  0.11502244254E-02 -0.17956656604E-01 -0.16794917178E-01  0.24618994630E-01  0.51100000000E-03 0.  1.
         11    1    4    4    0    0  0.35738561334E-02 -0.10114940020E+00 -0.36512022496E-01  0.10759815294E+00  0.51100000000E-03 0. -1.
</event>
<event>
 8    1  0.1101883E+005  0.1043930E+01  0.7957747E-01            NaN
         13   -1    0    0    0    0  0.00000000000E+00  0.00000000000E+00  0.74505805969E-08  0.10566000000E+00  0.10566000000E+00 0. -1.
     999900   -1    0    0    0    0 -0.00000000000E+00 -0.00000000000E+00 -0.74505805969E-08  0.93827000000E+00  0.93827000000E+00 0.  1.
     999902    2    1    2    0    0  0.23635392132E-02 -0.19718153720E-01 -0.13083329135E-01  0.10201483809E+01  0.10198711457E+01 0.  0.
     999903    2    3    3    0    0 -0.12718490040E+00  0.50054153991E-05  0.17669108226E-01  0.12991385363E+00  0.19733551744E-01 0.  0.
         14    1    1    2    0    0 -0.23635392132E-02  0.19718153720E-01  0.13083329135E-01  0.23781619057E-01  0.00000000000E+00 0. -1.
     999901    1    3    3    0    0  0.12954843962E+00 -0.19723159135E-01 -0.30752437361E-01  0.89023452731E+00  0.88000000000E+00 0.  1.
        -11    1    4    4    0    0 -0.11489724358E+00 -0.58627231885E-02  0.16692682002E-01  0.11625254775E+00  0.51100000000E-03 0.  1.
         11    1    4    4    0    0 -0.12287656823E-01  0.58677286039E-02  0.97642622357E-03  0.13661305880E-01  0.51100000000E-03 0. -1.
</event>
<event>
 8    1  0.1101883E+005  0.1043930E+01  0.7957747E-01            NaN
         13   -1    0    0    0    0  0.00000000000E+00  0.00000000000E+00  0.74505805969E-08  0.10566000000E+00  0.10566000000E+00 0.  1.
     999900   -1    0    0    0    0 -0.00000000000E+00 -0.00000000000E+00 -0.74505805969E-08  0.93827000000E+00  0.93827000000E+00 0. -1.
     999902    2    1    2    0    0 -0.46447664984E-02  0.22030044133E-01 -0.52985805396E-02  0.10208005457E+01  0.10205384767E+01 0.  0.
     999903    2    3    3    0    0  0.11052037698E+00  0.63461644380E-01 -0.28676571675E-01  0.13202266668E+00  0.19118177690E-01 0.  0.
         14    1    1    2    0    0  0.46447664984E-02 -0.22030044133E-01  0.52985805396E-02  0.23129454296E-01  0.00000000000E+00 0.  1.
     999901    1    3    3    0    0 -0.11516514348E+00 -0.41431600248E-01  0.23377991136E-01  0.88877787902E+00  0.88000000000E+00 0.  1.
        -11    1    4    4    0    0  0.52965246939E-01  0.19505746858E-01 -0.12092065089E-01  0.57725823537E-01  0.51100000000E-03 0.  1.
         11    1    4    4    0    0  0.57555130044E-01  0.43955897522E-01 -0.16584506586E-01  0.74296843143E-01  0.51100000000E-03 0. -1.
</event>
<event>
 8    1  0.1101883E+005  0.1043930E+01  0.7957747E-01            NaN
         13   -1    0    0    0    0  0.00000000000E+00  0.00000000000E+00  0.74505805969E-08  0.10566000000E+00  0.10566000000E+00 0. -1.
     999900   -1    0    0    0    0 -0.00000000000E+00 -0.00000000000E+00 -0.74505805969E-08  0.93827000000E+00  0.93827000000E+00 0. -1.
     999902    2    1    2    0    0  0.86085147803E-02 -0.38724035268E-02 -0.21687290196E-01  0.10202775035E+01  0.10200033056E+01 0.  0.
     999903    2    3    3    0    0  0.48705825318E-01 -0.85067684660E-01 -0.87880743274E-01  0.13315742072E+00  0.19977619027E-01 0.  0.
         14    1    1    2    0    0 -0.86085147803E-02  0.38724035268E-02  0.21687290196E-01  0.23652496525E-01  0.00000000000E+00 0. -1.
     999901    1    3    3    0    0 -0.40097310538E-01  0.81195281133E-01  0.66193453078E-01  0.88712008275E+00  0.88000000000E+00 0.  1.
        -11    1    4    4    0    0  0.14725620811E-01 -0.10611814903E-01 -0.17361498141E-01  0.25122445393E-01  0.51100000000E-03 0.  1.
         11    1    4    4    0    0  0.33980204508E-01 -0.74455869757E-01 -0.70519245133E-01  0.10803497533E+00  0.51100000000E-03 0. -1.
</event>
<event>
 8    1  0.1101883E+005  0.1043930E+01  0.7957747E-01            NaN
         13   -1    0    0    0    0  0.00000000000E+00  0.00000000000E+00  0.74505805969E-08  0.10566000000E+00  0.10566000000E+00 0.  1.
     999900   -1    0    0    0    0 -0.00000000000E+00 -0.00000000000E+00 -0.74505805969E-08  0.93827000000E+00  0.93827000000E+00 0. -1.
     999902    2    1    2    0    0  0.27638552611E-02 -0.23071544507E-01  0.13182282529E-02  0.10206561351E+01  0.10203907454E+01 0.  0.
     999903    2    3    3    0    0  0.85571320624E-02  0.57310087428E-01  0.11442882917E+00  0.12976401096E+00  0.19674119150E-01 0.  0.
         14    1    1    2    0    0 -0.27638552611E-02  0.23071544507E-01 -0.13182282529E-02  0.23273864904E-01  0.00000000000E+00 0. -1.
     999901    1    3    3    0    0 -0.57932768013E-02 -0.80381631934E-01 -0.11311060092E+00  0.89089212414E+00  0.88000000000E+00 0. -1.
        -11    1    4    4    0    0  0.46841163854E-02  0.46010433362E-01  0.71129649297E-01  0.84844499259E-01  0.51100000000E-03 0. -1.
         11    1    4    4    0    0  0.38730156771E-02  0.11299654065E-01  0.43299179876E-01  0.44919511700E-01  0.51100000000E-03 0.  1.
</event>
<event>
 8    1  0.1101883E+005  0.1043930E+01  0.7957747E-01            NaN
         13   -1    0    0    0    0  0.00000000000E+00  0.00000000000E+00  0.74505805969E-08  0.10566000000E+00  0.10566000000E+00 0. -1.
     999900   -1    0    0    0    0 -0.00000000000E+00 -0.00000000000E+00 -0.74505805969E-08  0.93827000000E+00  0.93827000000E+00 0. -1.
     999902    2    1    2    0    0  0.10463352714E-01 -0.20627073829E-01  0.44973572130E-02  0.10203676540E+01  0.10200955667E+01 0.  0.
     999903    2    3    3    0    0  0.11104917138E+00  0.37149924932E-02 -0.67133875889E-01  0.13141260644E+00  0.20410688530E-01 0.  0.
         14    1    1    2    0    0 -0.10463352714E-01  0.20627073829E-01 -0.44973572130E-02  0.23562345950E-01  0.00000000000E+00 0.  1.
     999901    1    3    3    0    0 -0.10058581867E+00 -0.24342066322E-01  0.71631233102E-01  0.88895504761E+00  0.88000000000E+00 0.  1.
        -11    1    4    4    0    0  0.47285027810E-01 -0.28923795502E-02 -0.39168342925E-01  0.61470805453E-01  0.51100000000E-03 0.  1.
         11    1    4    4    0    0  0.63764143572E-01  0.66073720434E-02 -0.27965532964E-01  0.69941800990E-01  0.51100000000E-03 0. -1.
</event>
<event>
 8    1  0.1101883E+005  0.1043930E+01  0.7957747E-01            NaN
         13   -1    0    0    0    0  0.00000000000E+00  0.00000000000E+00  0.74505805969E-08  0.10566000000E+00  0.10566000000E+00 0. -1.
     999900   -1    0    0    0    0 -0.00000000000E+00 -0.00000000000E+00 -0.74505805969E-08  0.93827000000E+00  0.93827000000E+00 0.  1.
     999902    2    1    2    0    0 -0.88481184787E-02 -0.13953062345E-01  0.16926375767E-01  0.10202766842E+01  0.10200024672E+01 0.  0.
     999903    2    3    3    0    0  0.43377156831E-01  0.11233536098E+00 -0.38446841769E-01  0.12800854155E+00  0.20179593824E-01 0.  0.
         14    1    1    2    0    0  0.88481184787E-02  0.13953062345E-01 -0.16926375767E-01  0.23653315751E-01  0.00000000000E+00 0.  1.
     999901    1    3    3    0    0 -0.52225275309E-01 -0.12628842333E+00  0.55373217536E-01  0.89226814269E+00  0.88000000000E+00 0. -1.
        -11    1    4    4    0    0  0.21358842347E-01  0.69500185431E-01 -0.31900675866E-01  0.79400189943E-01  0.51100000000E-03 0. -1.
         11    1    4    4    0    0  0.22018314484E-01  0.42835175552E-01 -0.65461659030E-02  0.48608351611E-01  0.51100000000E-03 0.  1.
</event>
<event>
 8    1  0.1101883E+005  0.1043930E+01  0.7957747E-01            NaN
         13   -1    0    0    0    0  0.00000000000E+00  0.00000000000E+00  0.74505805969E-08  0.10566000000E+00  0.10566000000E+00 0. -1.
     999900   -1    0    0    0    0 -0.00000000000E+00 -0.00000000000E+00 -0.74505805969E-08  0.93827000000E+00  0.93827000000E+00 0.  1.
     999902    2    1    2    0    0  0.49947898150E-02 -0.21027105716E-01  0.95251167505E-02  0.10203118936E+01  0.10200385019E+01 0.  0.
     999903    2    3    3    0    0 -0.33186554333E-01  0.79156411321E-01  0.93510288409E-01  0.12983558220E+00  0.27313358019E-01 0.  0.
         14    1    1    2    0    0 -0.49947898150E-02  0.21027105716E-01 -0.95251167505E-02  0.23618106385E-01  0.00000000000E+00 0. -1.
     999901    1    3    3    0    0  0.38181344148E-01 -0.10018351704E+00 -0.83985171658E-01  0.89047631141E+00  0.88000000000E+00 0.  1.
        -11    1    4    4    0    0 -0.85100936122E-02  0.26037701834E-01  0.13139126520E-01  0.30385545524E-01  0.51100000000E-03 0. -1.
         11    1    4    4    0    0 -0.24676460720E-01  0.53118709486E-01  0.80371161889E-01  0.99450036679E-01  0.51100000000E-03 0.  1.
</event>
<event>
 8    1  0.1101883E+005  0.1043930E+01  0.7957747E-01            NaN
         13   -1    0    0    0    0  0.00000000000E+00  0.00000000000E+00  0.74505805969E-08  0.10566000000E+00  0.10566000000E+00 0. -1.
     999900   -1    0    0    0    0 -0.00000000000E+00 -0.00000000000E+00 -0.74505805969E-08  0.93827000000E+00  0.93827000000E+00 0. -1.
     999902    2    1    2    0    0  0.21819952671E-01  0.54889642667E-02  0.38387314089E-02  0.10211051249E+01  0.10208499896E+01 0.  0.
     999903    2    3    3    0    0 -0.59084876011E-01  0.11094848106E+00  0.24419933947E-01  0.13088555264E+00  0.27094403359E-01 0.  0.
         14    1    1    2    0    0 -0.21819952671E-01 -0.54889642667E-02 -0.38387314089E-02  0.22824875073E-01  0.00000000000E+00 0.  1.
     999901    1    3    3    0    0  0.80904828682E-01 -0.10545951679E+00 -0.20581202538E-01  0.89021957229E+00  0.88000000000E+00 0.  1.
        -11    1    4    4    0    0 -0.14501491077E-01  0.48203424870E-01  0.18696016864E-01  0.53699772627E-01  0.51100000000E-03 0.  1.
         11    1    4    4    0    0 -0.44583384935E-01  0.62745056188E-01  0.57239170824E-02  0.77185780012E-01  0.51100000000E-03 0. -1.
</event>
<event>
 8    1  0.1101883E+005  0.1043930E+01  0.7957747E-01            NaN
         13   -1    0    0    0    0  0.00000000000E+00  0.00000000000E+00  0.74505805969E-08  0.10566000000E+00  0.10566000000E+00 0.  1.
     999900   -1    0    0    0    0 -0.00000000000E+00 -0.00000000000E+00 -0.74505805969E-08  0.93827000000E+00  0.93827000000E+00 0.  1.
     999902    2    1    2    0    0 -0.20506668383E-01 -0.47745269603E-03 -0.13317977905E-01  0.10194735091E+01  0.10191801195E+01 0.  0.
     999903    2    3    3    0    0  0.68540797577E-01 -0.37731441688E-01  0.98631415384E-01  0.12714510685E+00  0.17782560873E-01 0.  0.
         14    1    1    2    0    0  0.20506668383E-01  0.47745269603E-03  0.13317977905E-01  0.24456490851E-01  0.00000000000E+00 0. -1.
     999901    1    3    3    0    0 -0.89047465959E-01  0.37253988992E-01 -0.11194939329E+00  0.89232840230E+00  0.88000000000E+00 0.  1.
        -11    1    4    4    0    0  0.15475446755E-01 -0.97819438447E-02  0.36210210778E-01  0.40578520959E-01  0.51100000000E-03 0.  1.
         11    1    4    4    0    0  0.53065350822E-01 -0.27949497843E-01  0.62421204607E-01  0.86566585893E-01  0.51100000000E-03 0. -1.
</event>
<event>
 8    1  0.1101883E+005  0.1043930E+01  0.7957747E-01            NaN
         13   -1    0    0    0    0  0.00000000000E+00  0.00000000000E+00  0.74505805969E-08  0.10566000000E+00  0.10566000000E+00 0.  1.
     999900   -1    0    0    0    0 -0.00000000000E+00 -0.00000000000E+00 -0.74505805969E-08  0.93827000000E+00  0.93827000000E+00 0. -1.
     999902    2    1    2    0    0  0.23525734979E-02  0.22248089745E-01 -0.91249045893E-02  0.10197685434E+01  0.10194822736E+01 0.  0.
     999903    2    3    3    0    0  0.36953217150E-02 -0.28274276139E-02  0.12725948730E+00  0.12890868527E+00  0.20020546448E-01 0.  0.
         14    1    1    2    0    0 -0.23525734979E-02 -0.22248089745E-01  0.91249045893E-02  0.24161456560E-01  0.00000000000E+00 0. -1.
     999901    1    3    3    0    0 -0.13427482171E-02  0.25075517359E-01 -0.13638439189E+00  0.89085985817E+00  0.88000000000E+00 0. -1.
        -11    1    4    4    0    0 -0.19940945553E-02 -0.90073489647E-02  0.32843954730E-01  0.34118839836E-01  0.51100000000E-03 0. -1.
         11    1    4    4    0    0  0.56894162703E-02  0.61799213508E-02  0.94415532574E-01  0.94789845435E-01  0.51100000000E-03 0.  1.
</event>
<event>
 8    1  0.1101883E+005  0.1043930E+01  0.7957747E-01            NaN
         13   -1    0    0    0    0  0.00000000000E+00  0.00000000000E+00  0.74505805969E-08  0.10566000000E+00  0.10566000000E+00 0.  1.
     999900   -1    0    0    0    0 -0.00000000000E+00 -0.00000000000E+00 -0.74505805969E-08  0.93827000000E+00  0.93827000000E+00 0. -1.
     999902    2    1    2    0    0 -0.18344668611E-02 -0.74578789997E-02 -0.22550310460E-01  0.10201077052E+01  0.10198295095E+01 0.  0.
     999903    2    3    3    0    0 -0.37471221260E-02  0.11389181029E+00  0.56059231681E-01  0.12830679386E+00  0.18292362357E-01 0.  0.
         14    1    1    2    0    0  0.18344668611E-02  0.74578789997E-02  0.22550310460E-01  0.23822294803E-01  0.00000000000E+00 0.  1.
     999901    1    3    3    0    0  0.19126552648E-02 -0.12134968929E+00 -0.78609542140E-01  0.89180091133E+00  0.88000000000E+00 0. -1.
        -11    1    4    4    0    0  0.33897612744E-02  0.77417905498E-02  0.76860048390E-02  0.11435103576E-01  0.51100000000E-03 0.  1.
         11    1    4    4    0    0 -0.71368834003E-02  0.10615001974E+00  0.48373226842E-01  0.11687169029E+00  0.51100000000E-03 0. -1.
</event>
<event>
 8    1  0.1101883E+005  0.1043930E+01  0.7957747E-01            NaN
         13   -1    0    0    0    0  0.00000000000E+00  0.00000000000E+00  0.74505805969E-08  0.10566000000E+00  0.10566000000E+00 0.  1.
     999900   -1    0    0    0    0 -0.00000000000E+00 -0.00000000000E+00 -0.74505805969E-08  0.93827000000E+00  0.93827000000E+00 0. -1.
     999902    2    1    2    0    0  0.16370500011E-01  0.16297510754E-01  0.57791044623E-02  0.10201182345E+01  0.10198402876E+01 0.  0.
     999903    2    3    3    0    0  0.26120193347E-01  0.80635720837E-01 -0.98690469111E-01  0.13155290005E+00  0.19544125548E-01 0.  0.
         14    1    1    2    0    0 -0.16370500011E-01 -0.16297510754E-01 -0.57791044623E-02  0.23811765490E-01  0.00000000000E+00 0.  1.
     999901    1    3    3    0    0 -0.97496933354E-02 -0.64338210083E-01  0.10446957357E+00  0.88856533446E+00  0.88000000000E+00 0.  1.
        -11    1    4    4    0    0  0.17573034915E-01  0.36236654516E-01 -0.34481459164E-01  0.53020173837E-01  0.51100000000E-03 0.  1.
         11    1    4    4    0    0  0.85471584318E-02  0.44399066321E-01 -0.64209009947E-01  0.78532726215E-01  0.51100000000E-03 0. -1.
</event>
<event>
 8    1  0.1101883E+005  0.1043930E+01  0.7957747E-01            NaN
         13   -1    0    0    0    0  0.00000000000E+00  0.00000000000E+00  0.74505805969E-08  0.10566000000E+00  0.10566000000E+00 0.  1.
     999900   -1    0    0    0    0 -0.00000000000E+00 -0.00000000000E+00 -0.74505805969E-08  0.93827000000E+00  0.93827000000E+00 0. -1.
     999902    2    1    2    0    0 -0.13375872805E-01  0.10655536113E-02  0.19117049438E-01  0.10205738240E+01  0.10203065320E+01 0.  0.
     999903    2    3    3    0    0 -0.54465273402E-01 -0.51924944691E-01 -0.10380677993E+00  0.12950334443E+00  0.18237400313E-01 0.  0.
         14    1    1    2    0    0  0.13375872805E-01 -0.10655536113E-02 -0.19117049438E-01  0.23356175993E-01  0.00000000000E+00 0. -1.
     999901    1    3    3    0    0  0.41089400596E-01  0.52990498302E-01  0.12292382937E+00  0.89107047958E+00  0.88000000000E+00 0.  1.
        -11    1    4    4    0    0 -0.32321618665E-01 -0.36012179541E-01 -0.78958461730E-01  0.92608120099E-01  0.51100000000E-03 0. -1.
         11    1    4    4    0    0 -0.22143654736E-01 -0.15912765150E-01 -0.24848318201E-01  0.36895224328E-01  0.51100000000E-03 0.  1.
</event>
<event>
 8    1  0.1101883E+005  0.1043930E+01  0.7957747E-01            NaN
         13   -1    0    0    0    0  0.00000000000E+00  0.00000000000E+00  0.74505805969E-08  0.10566000000E+00  0.10566000000E+00 0.  1.
     999900   -1    0    0    0    0 -0.00000000000E+00 -0.00000000000E+00 -0.74505805969E-08  0.93827000000E+00  0.93827000000E+00 0. -1.
     999902    2    1    2    0    0 -0.14608835882E-01 -0.17937017858E-01  0.21485690906E-03  0.10207955915E+01  0.10205334089E+01 0.  0.
     999903    2    3    3    0    0 -0.11304049378E+00 -0.72933156660E-02  0.66306949369E-01  0.13278081434E+00  0.20069564934E-01 0.  0.
         14    1    1    2    0    0  0.14608835882E-01  0.17937017858E-01 -0.21485690906E-03  0.23134408550E-01  0.00000000000E+00 0. -1.
     999901    1    3    3    0    0  0.98431657895E-01 -0.10643702192E-01 -0.66092092460E-01  0.88801477711E+00  0.88000000000E+00 0. -1.
        -11    1    4    4    0    0 -0.10883397932E+00 -0.10856992948E-01  0.64391100430E-01  0.12692196140E+00  0.51100000000E-03 0. -1.
         11    1    4    4    0    0 -0.42065144591E-02  0.35636772825E-02  0.19158489391E-02  0.58588529445E-02  0.51100000000E-03 0.  1.
</event>
<event>
 8    1  0.1101883E+005  0.1043930E+01  0.7957747E-01            NaN
         13   -1    0    0    0    0  0.00000000000E+00  0.00000000000E+00  0.74505805969E-08  0.10566000000E+00  0.10566000000E+00 0. -1.
     999900   -1    0    0    0    0 -0.00000000000E+00 -0.00000000000E+00 -0.74505805969E-08  0.93827000000E+00  0.93827000000E+00 0. -1.
     999902    2    1    2    0    0 -0.11893708339E-01  0.18003405524E-01  0.11444482556E-01  0.10195054409E+01  0.10192128261E+01 0.  0.
     999903    2    3    3    0    0 -0.11543013177E+00 -0.54724011531E-01  0.15411193049E-01  0.13044706090E+00  0.21449896684E-01 0.  0.
         14    1    1    2    0    0  0.11893708339E-01 -0.18003405524E-01 -0.11444482556E-01  0.24424559146E-01  0.00000000000E+00 0.  1.
     999901    1    3    3    0    0  0.10353642343E+00  0.72727417055E-01 -0.39667104933E-02  0.88905837995E+00  0.88000000000E+00 0. -1.
        -11    1    4    4    0    0 -0.57353903862E-01 -0.32156230959E-01  0.17700566255E-01  0.68095995804E-01  0.51100000000E-03 0. -1.
         11    1    4    4    0    0 -0.58076227911E-01 -0.22567780572E-01 -0.22893732061E-02  0.62351065099E-01  0.51100000000E-03 0.  1.
</event>
<event>
 8    1  0.1101883E+005  0.1043930E+01  0.7957747E-01            NaN
         13   -1    0    0    0    0  0.00000000000E+00  0.00000000000E+00  0.74505805969E-08  0.10566000000E+00  0.10566000000E+00 0. -1.
     999900   -1    0    0    0    0 -0.00000000000E+00 -0.00000000000E+00 -0.74505805969E-08  0.93827000000E+00  0.93827000000E+00 0.  1.
     999902    2    1    2    0    0 -0.94952640933E-02  0.17988704199E-01  0.12906507006E-01  0.10198399306E+01  0.10195553701E+01 0.  0.
     999903    2    3    3    0    0  0.74891016018E-03 -0.64455230189E-01 -0.10828743210E+00  0.12765726083E+00  0.20375738686E-01 0.  0.
         14    1    1    2    0    0  0.94952640933E-02 -0.17988704199E-01 -0.12906507006E-01  0.24090069366E-01  0.00000000000E+00 0. -1.
     999901    1    3    3    0    0 -0.10244174254E-01  0.82443934388E-01  0.12119393910E+00  0.89218266980E+00  0.88000000000E+00 0. -1.
        -11    1    4    4    0    0 -0.28923386447E-02 -0.25583128604E-01 -0.26093393694E-01  0.36660447454E-01  0.51100000000E-03 0. -1.
         11    1    4    4    0    0  0.36412488049E-02 -0.38872101585E-01 -0.82194038404E-01  0.90996813376E-01  0.51100000000E-03 0.  1.
</event>
<event>
 8    1  0.1101883E+005  0.1043930E+01  0.7957747E-01            NaN
         13   -1    0    0    0    0  0.00000000000E+00  0.00000000000E+00  0.74505805969E-08  0.10566000000E+00  0.10566000000E+00 0. -1.
     999900   -1    0    0    0    0 -0.00000000000E+00 -0.00000000000E+00 -0.74505805969E-08  0.93827000000E+00  0.93827000000E+00 0.  1.
     999902    2    1    2    0    0 -0.47852979246E-02 -0.16560398610E-01 -0.19858123736E-01  0.10176337844E+01  0.10172939733E+01 0.  0.
     999903    2    3    3    0    0  0.11123055384E+00 -0.61251948964E-01 -0.64078079474E-02  0.12879300924E+00  0.20555823212E-01 0.  0.
         14    1    1    2    0    0  0.47852979246E-02  0.16560398610E-01  0.19858123736E-01  0.26296215634E-01  0.00000000000E+00 0. -1.
     999901    1    3    3    0    0 -0.11601585176E+00  0.44691550355E-01 -0.13450315789E-01  0.88884077513E+00  0.88000000000E+00 0.  1.
        -11    1    4    4    0    0  0.96685547406E-01 -0.56248108207E-01  0.65433879622E-03  0.11185988572E+00  0.51100000000E-03 0.  1.
         11    1    4    4    0    0  0.14545006429E-01 -0.50038407578E-02 -0.70621467437E-02  0.16933123515E-01  0.51100000000E-03 0. -1.
</event>
<event>
 8    1  0.1101883E+005  0.1043930E+01  0.7957747E-01            NaN
         13   -1    0    0    0    0  0.00000000000E+00  0.00000000000E+00  0.74505805969E-08  0.10566000000E+00  0.10566000000E+00 0.  1.
     999900   -1    0    0    0    0 -0.00000000000E+00 -0.00000000000E+00 -0.74505805969E-08  0.93827000000E+00  0.93827000000E+00 0.  1.
     999902    2    1    2    0    0  0.21086342440E-01 -0.20333261739E-02  0.98117134957E-02  0.10205839516E+01  0.10203168941E+01 0.  0.
     999903    2    3    3    0    0 -0.51890312282E-01  0.68545106324E-01  0.96220324053E-01  0.13054274177E+00  0.19799509042E-01 0.  0.
         14    1    1    2    0    0 -0.21086342440E-01  0.20333261739E-02 -0.98117134957E-02  0.23346048371E-01  0.00000000000E+00 0. -1.
     999901    1    3    3    0    0  0.72976654722E-01 -0.70578432498E-01 -0.86408610557E-01  0.89004120986E+00  0.88000000000E+00 0.  1.
        -11    1    4    4    0    0 -0.64704343708E-02  0.22383837326E-01  0.22139823313E-01  0.32145537664E-01  0.51100000000E-03 0.  1.
         11    1    4    4    0    0 -0.45419877911E-01  0.46161268998E-01  0.74080500740E-01  0.98397204106E-01  0.51100000000E-03 0. -1.
</event>
<event>
 8    1  0.1101883E+005  0.1043930E+01  0.7957747E-01            NaN
         13   -1    0    0    0    0  0.00000000000E+00  0.00000000000E+00  0.74505805969E-08  0.10566000000E+00  0.10566000000E+00 0.  1.
     999900   -1    0    0    0    0 -0.00000000000E+00 -0.00000000000E+00 -0.74505805969E-08  0.93827000000E+00  0.93827000000E+00 0.  1.
     999902    2    1    2    0    0  0.16483487062E-01 -0.18229401806E-01 -0.63874850237E-02  0.10185367647E+01  0.10182201749E+01 0.  0.
     999903    2    3    3    0    0  0.52359174338E-01 -0.22561268440E-02  0.11647914572E+00  0.12913335822E+00  0.19012090117E-01 0.  0.
         14    1    1    2    0    0 -0.16483487062E-01  0.18229401806E-01  0.63874850237E-02  0.25393235336E-01  0.00000000000E+00 0.  1.
     999901    1    3    3    0    0 -0.35875687276E-01 -0.15973274962E-01 -0.12286663074E+00  0.88940340645E+00  0.88000000000E+00 0.  1.
        -11    1    4    4    0    0  0.18190771470E-01  0.70003244017E-02  0.31123313794E-01  0.36726427691E-01  0.51100000000E-03 0.  1.
         11    1    4    4    0    0  0.34168402868E-01 -0.92564512457E-02  0.85355831926E-01  0.92406930525E-01  0.51100000000E-03 0. -1.
</event>
<event>
 8    1  0.1101883E+005  0.1043930E+01  0.7957747E-01            NaN
         13   -1    0    0    0    0  0.00000000000E+00  0.00000000000E+00  0.74505805969E-08  0.10566000000E+00  0.10566000000E+00 0. -1.
     999900   -1    0    0    0    0 -0.00000000000E+00 -0.00000000000E+00 -0.74505805969E-08  0.93827000000E+00  0.93827000000E+00 0. -1.
     999902    2    1    2    0    0 -0.20117129625E-01  0.97980752178E-02 -0.96758397208E-02  0.10195512581E+01  0.10192597534E+01 0.  0.
     999903    2    3    3    0    0  0.65650598673E-01  0.74017329563E-01  0.79538747289E-01  0.12857457020E+00  0.20406900793E-01 0.  0.
         14    1    1    2    0    0  0.20117129625E-01 -0.97980752178E-02  0.96758397208E-02  0.24378741900E-01  0.00000000000E+00 0. -1.
     999901    1    3    3    0    0 -0.85767728298E-01 -0.64219254345E-01 -0.89214587010E-01  0.89097668790E+00  0.88000000000E+00 0. -1.
        -11    1    4    4    0    0  0.33776026045E-01  0.26345651717E-01  0.42255323360E-01  0.60172142832E-01  0.51100000000E-03 0.  1.
         11    1    4    4    0    0  0.31874572628E-01  0.47671677846E-01  0.37283423930E-01  0.68402427368E-01  0.51100000000E-03 0. -1.
</event>
<event>
 8    1  0.1101883E+005  0.1043930E+01  0.7957747E-01            NaN
         13   -1    0    0    0    0  0.00000000000E+00  0.00000000000E+00  0.74505805969E-08  0.10566000000E+00  0.10566000000E+00 0. -1.
     999900   -1    0    0    0    0 -0.00000000000E+00 -0.00000000000E+00 -0.74505805969E-08  0.93827000000E+00  0.93827000000E+00 0. -1.
     999902    2    1    2    0    0  0.13931443010E-01 -0.22513125913E-02 -0.20709349849E-01  0.10188694596E+01  0.10185612132E+01 0.  0.
     999903    2    3    3    0    0 -0.44938402222E-01 -0.21620922685E-01  0.11464486882E+00  0.12636645964E+00  0.18387818903E-01 0.  0.
         14    1    1    2    0    0 -0.13931443010E-01  0.22513125913E-02  0.20709349849E-01  0.25060540375E-01  0.00000000000E+00 0.  1.
     999901    1    3    3    0    0  0.58869845231E-01  0.19369610094E-01 -0.13535421866E+00  0.89250299999E+00  0.88000000000E+00 0. -1.
        -11    1    4    4    0    0 -0.28844983287E-01 -0.11913748434E-01  0.49123542594E-01  0.58200979550E-01  0.51100000000E-03 0. -1.
         11    1    4    4    0    0 -0.16093418934E-01 -0.97071742514E-02  0.65521326222E-01  0.68165480090E-01  0.51100000000E-03 0.  1.
</event>
<event>
 8    1  0.1101883E+005  0.1043930E+01  0.7957747E-01            NaN
         13   -1    0    0    0    0  0.00000000000E+00  0.00000000000E+00  0.74505805969E-08  0.10566000000E+00  0.10566000000E+00 0.  1.
     999900   -1    0    0    0    0 -0.00000000000E+00 -0.00000000000E+00 -0.74505805969E-08  0.93827000000E+00  0.93827000000E+00 0. -1.
     999902    2    1    2    0    0  0.97906157360E-02 -0.20425750143E-01  0.82435658863E-02  0.10198255646E+01  0.10195406605E+01 0.  0.
     999903    2    3    3    0    0 -0.29849405485E-01  0.94406762154E-01 -0.77527629188E-01  0.12734893466E+00  0.20089652135E-01 0.  0.
         14    1    1    2    0    0 -0.97906157360E-02  0.20425750143E-01 -0.82435658863E-02  0.24104435357E-01  0.00000000000E+00 0. -1.
     999901    1    3    3    0    0  0.39640021221E-01 -0.11483251230E+00  0.85771195075E-01  0.89247662998E+00  0.88000000000E+00 0.  1.
        -11    1    4    4    0    0 -0.16026198022E-01  0.23242418447E-01 -0.17440258714E-01  0.33188443520E-01  0.51100000000E-03 0. -1.
         11    1    4    4    0    0 -0.13823207463E-01  0.71164343707E-01 -0.60087370475E-01  0.94160491138E-01  0.51100000000E-03 0.  1.
</event>
<event>
 8    1  0.1101883E+005  0.1043930E+01  0.7957747E-01            NaN
         13   -1    0    0    0    0  0.00000000000E+00  0.00000000000E+00  0.74505805969E-08  0.10566000000E+00  0.10566000000E+00 0.  1.
     999900   -1    0    0    0    0 -0.00000000000E+00 -0.00000000000E+00 -0.74505805969E-08  0.93827000000E+00  0.93827000000E+00 0. -1.
     999902    2    1    2    0    0 -0.22350360345E-02 -0.54838585247E-02  0.23573887198E-01  0.10196236994E+01  0.10193339454E+01 0.  0.
     999903    2    3    3    0    0  0.84253027488E-02  0.53248084745E-01 -0.11350157856E+00  0.12701361248E+00  0.18533892353E-01 0.  0.
         14    1    1    2    0    0  0.22350360345E-02  0.54838585247E-02 -0.23573887198E-01  0.24306300582E-01  0.00000000000E+00 0. -1.
     999901    1    3    3    0    0 -0.10660338783E-01 -0.58731943270E-01  0.13707546576E+00  0.89261008693E+00  0.88000000000E+00 0.  1.
        -11    1    4    4    0    0  0.18353996706E-02  0.11494990332E-01 -0.45292095901E-01  0.46766853292E-01  0.51100000000E-03 0. -1.
         11    1    4    4    0    0  0.65899030782E-02  0.41753094413E-01 -0.68209482657E-01  0.80246759193E-01  0.51100000000E-03 0.  1.
</event>
<event>
 8    1  0.1101883E+005  0.1043930E+01  0.7957747E-01            NaN
         13   -1    0    0    0    0  0.00000000000E+00  0.00000000000E+00  0.74505805969E-08  0.10566000000E+00  0.10566000000E+00 0. -1.
     999900   -1    0    0    0    0 -0.00000000000E+00 -0.00000000000E+00 -0.74505805969E-08  0.93827000000E+00  0.93827000000E+00 0.  1.
     999902    2    1    2    0    0 -0.88687323493E-02 -0.84291774953E-02 -0.21070610665E-01  0.10195645310E+01  0.10192733474E+01 0.  0.
     999903    2    3    3    0    0 -0.12026787536E+00 -0.42756593121E-01 -0.24591048945E-01  0.13187058935E+00  0.22195597472E-01 0.  0.
         14    1    1    2    0    0  0.88687323493E-02  0.84291774953E-02  0.21070610665E-01  0.24365469019E-01  0.00000000000E+00 0. -1.
     999901    1    3    3    0    0  0.11139914301E+00  0.34327415626E-01  0.35204382798E-02  0.88769394163E+00  0.88000000000E+00 0. -1.
        -11    1    4    4    0    0 -0.11262287124E+00 -0.36893170300E-01 -0.27750309421E-01  0.12171835497E+00  0.51100000000E-03 0.  1.
         11    1    4    4    0    0 -0.76450041177E-02 -0.58634228205E-02  0.31592604764E-02  0.10152234379E-01  0.51100000000E-03 0. -1.
</event>
<event>
 8    1  0.1101883E+005  0.1043930E+01  0.7957747E-01            NaN
         13   -1    0    0    0    0  0.00000000000E+00  0.00000000000E+00  0.74505805969E-08  0.10566000000E+00  0.10566000000E+00 0.  1.
     999900   -1    0    0    0    0 -0.00000000000E+00 -0.00000000000E+00 -0.74505805969E-08  0.93827000000E+00  0.93827000000E+00 0. -1.
     999902    2    1    2    0    0 -0.14426829824E-01  0.13397495065E-01  0.15358758806E-01  0.10189596623E+01  0.10186536583E+01 0.  0.
     999903    2    3    3    0    0  0.57512458539E-02 -0.12578882913E+00  0.77545483584E-02  0.12775945382E+00  0.20160323845E-01 0.  0.
         14    1    1    2    0    0  0.14426829824E-01 -0.13397495065E-01 -0.15358758806E-01  0.24970337700E-01  0.00000000000E+00 0. -1.
     999901    1    3    3    0    0 -0.20178075678E-01  0.13918632419E+00  0.76042104475E-02  0.89120020848E+00  0.88000000000E+00 0. -1.
        -11    1    4    4    0    0 -0.15304677206E-02 -0.80305365744E-01 -0.32882669476E-02  0.80388854447E-01  0.51100000000E-03 0. -1.
         11    1    4    4    0    0  0.72817135745E-02 -0.45483463384E-01  0.11042815306E-01  0.47370599372E-01  0.51100000000E-03 0.  1.
</event>
<event>
 8    1  0.1101883E+005  0.1043930E+01  0.7957747E-01            NaN
         13   -1    0    0    0    0  0.00000000000E+00  0.00000000000E+00  0.74505805969E-08  0.10566000000E+00  0.10566000000E+00 0.  1.
     999900   -1    0    0    0    0 -0.00000000000E+00 -0.00000000000E+00 -0.74505805969E-08  0.93827000000E+00  0.93827000000E+00 0.  1.
     999902    2    1    2    0    0 -0.96029860536E-02 -0.14699243732E-01 -0.16065389661E-01  0.10201312216E+01  0.10198535814E+01 0.  0.
     999903    2    3    3    0    0 -0.12679525722E-01  0.46125674141E-01 -0.12112590233E+00  0.13179184556E+00  0.20230129828E-01 0.  0.
         14    1    1    2    0    0  0.96029860536E-02  0.14699243732E-01  0.16065389661E-01  0.23798778381E-01  0.00000000000E+00 0.  1.
     999901    1    3    3    0    0  0.30765396687E-02 -0.60824917872E-01  0.10506051267E+00  0.88833937606E+00  0.88000000000E+00 0. -1.
        -11    1    4    4    0    0  0.47145665470E-02  0.19934270913E-01 -0.47139844562E-01  0.51400664985E-01  0.51100000000E-03 0. -1.
         11    1    4    4    0    0 -0.17394092269E-01  0.26191403228E-01 -0.73986057772E-01  0.80391180577E-01  0.51100000000E-03 0.  1.
</event>
<event>
 8    1  0.1101883E+005  0.1043930E+01  0.7957747E-01            NaN
         13   -1    0    0    0    0  0.00000000000E+00  0.00000000000E+00  0.74505805969E-08  0.10566000000E+00  0.10566000000E+00 0.  1.
     999900   -1    0    0    0    0 -0.00000000000E+00 -0.00000000000E+00 -0.74505805969E-08  0.93827000000E+00  0.93827000000E+00 0.  1.
     999902    2    1    2    0    0  0.10285130578E-01 -0.14496613643E-01 -0.15673228228E-01  0.10202321984E+01  0.10199569368E+01 0.  0.
     999903    2    3    3    0    0 -0.97415739591E-01 -0.62565107294E-01 -0.58964134844E-01  0.13130916454E+00  0.19002855652E-01 0.  0.
         14    1    1    2    0    0 -0.10285130578E-01  0.14496613643E-01  0.15673228228E-01  0.23697801611E-01  0.00000000000E+00 0.  1.
     999901    1    3    3    0    0  0.10770087017E+00  0.48068493651E-01  0.43290906616E-01  0.88892303385E+00  0.88000000000E+00 0. -1.
        -11    1    4    4    0    0 -0.45949449922E-01 -0.34352145335E-01 -0.19564429175E-01  0.60617240511E-01  0.51100000000E-03 0.  1.
         11    1    4    4    0    0 -0.51466289669E-01 -0.28212961959E-01 -0.39399705668E-01  0.70691924026E-01  0.51100000000E-03 0. -1.
</event>
<event>
 8    1  0.1101883E+005  0.1043930E+01  0.7957747E-01            NaN
         13   -1    0    0    0    0  0.00000000000E+00  0.00000000000E+00  0.74505805969E-08  0.10566000000E+00  0.10566000000E+00 0. -1.
     999900   -1    0    0    0    0 -0.00000000000E+00 -0.00000000000E+00 -0.74505805969E-08  0.93827000000E+00  0.93827000000E+00 0.  1.
     999902    2    1    2    0    0  0.32579104732E-02  0.16695746744E-01  0.19303945309E-01  0.10182005569E+01  0.10178754196E+01 0.  0.
     999903    2    3    3    0    0 -0.11420508167E+00  0.48606759776E-01  0.32104233843E-01  0.12973012141E+00  0.19844515495E-01 0.  0.
         14    1    1    2    0    0 -0.32579104732E-02 -0.16695746744E-01 -0.19303945309E-01  0.25729443144E-01  0.00000000000E+00 0.  1.
     999901    1    3    3    0    0  0.11746299214E+00 -0.31911013032E-01 -0.12800288534E-01  0.88847043545E+00  0.88000000000E+00 0. -1.
        -11    1    4    4    0    0 -0.80121346045E-01  0.26465807140E-01  0.27864240920E-01  0.88862512246E-01  0.51100000000E-03 0. -1.
         11    1    4    4    0    0 -0.34083735624E-01  0.22140952636E-01  0.42399929228E-02  0.40867609163E-01  0.51100000000E-03 0.  1.
</event>
<event>
 8    1  0.1101883E+005  0.1043930E+01  0.7957747E-01            NaN
         13   -1    0    0    0    0  0.00000000000E+00  0.00000000000E+00  0.74505805969E-08  0.10566000000E+00  0.10566000000E+00 0. -1.
     999900   -1    0    0    0    0 -0.00000000000E+00 -0.00000000000E+00 -0.74505805969E-08  0.93827000000E+00  0.93827000000E+00 0.  1.
     999902    2    1    2    0    0 -0.22200195313E-01  0.48906114366E-02 -0.53796988382E-02  0.10205696081E+01  0.10203022185E+01 0.  0.
     999903    2    3    3    0    0 -0.18720072016E-01  0.66375693360E-01  0.10826000836E+00  0.13112792385E+00  0.26797933431E-01 0.  0.
         14    1    1    2    0    0  0.22200195313E-01 -0.48906114366E-02  0.53796988382E-02  0.23360391944E-01  0.00000000000E+00 0. -1.
     999901    1    3    3    0    0 -0.34801232972E-02 -0.61485081923E-01 -0.11363970720E+00  0.88944168421E+00  0.88000000000E+00 0.  1.
        -11    1    4    4    0    0 -0.72080090220E-02  0.47049986722E-01  0.91255473143E-01  0.10292462846E+00  0.51100000000E-03 0.  1.
         11    1    4    4    0    0 -0.11512062994E-01  0.19325706639E-01  0.17004535220E-01  0.28203295384E-01  0.51100000000E-03 0. -1.
</event>
<event>
 8    1  0.1101883E+005  0.1043930E+01  0.7957747E-01            NaN
         13   -1    0    0    0    0  0.00000000000E+00  0.00000000000E+00  0.74505805969E-08  0.10566000000E+00  0.10566000000E+00 0.  1.
     999900   -1    0    0    0    0 -0.00000000000E+00 -0.00000000000E+00 -0.74505805969E-08  0.93827000000E+00  0.93827000000E+00 0. -1.
     999902    2    1    2    0    0  0.18974743609E-01 -0.11686883955E-02  0.14248913826E-01  0.10201720903E+01  0.10198954140E+01 0.  0.
     999903    2    3    3    0    0  0.47328596913E-01 -0.93642764453E-01 -0.74865477223E-01  0.13039865261E+00  0.19748556992E-01 0.  0.
         14    1    1    2    0    0 -0.18974743609E-01  0.11686883955E-02 -0.14248913826E-01  0.23757909690E-01  0.00000000000E+00 0. -1.
     999901    1    3    3    0    0 -0.28353853305E-01  0.92474076058E-01  0.89114391049E-01  0.88977343770E+00  0.88000000000E+00 0.  1.
        -11    1    4    4    0    0  0.43691437928E-01 -0.70456566252E-01 -0.62790456745E-01  0.10399986565E+00  0.51100000000E-03 0.  1.
         11    1    4    4    0    0  0.36371589852E-02 -0.23186198201E-01 -0.12075020478E-01  0.26398786962E-01  0.51100000000E-03 0. -1.
</event>
<event>
 8    1  0.1101883E+005  0.1043930E+01  0.7957747E-01            NaN
         13   -1    0    0    0    0  0.00000000000E+00  0.00000000000E+00  0.74505805969E-08  0.10566000000E+00  0.10566000000E+00 0. -1.
     999900   -1    0    0    0    0 -0.00000000000E+00 -0.00000000000E+00 -0.74505805969E-08  0.93827000000E+00  0.93827000000E+00 0.  1.
     999902    2    1    2    0    0  0.89384373531E-02 -0.15608231845E-01  0.15676570255E-01  0.10200706744E+01  0.10197916029E+01 0.  0.
     999903    2    3    3    0    0 -0.32898144887E-01  0.12234405866E+00  0.50843051977E-02  0.12827847317E+00  0.19472028505E-01 0.  0.
         14    1    1    2    0    0 -0.89384373531E-02  0.15608231845E-01 -0.15676570255E-01  0.23859325611E-01  0.00000000000E+00 0.  1.
     999901    1    3    3    0    0  0.41836582240E-01 -0.13795229050E+00  0.10592265057E-01  0.89179220122E+00  0.88000000000E+00 0.  1.
        -11    1    4    4    0    0 -0.16679527105E-01  0.90819753141E-01  0.81020225903E-02  0.92694865424E-01  0.51100000000E-03 0. -1.
         11    1    4    4    0    0 -0.16218617782E-01  0.31524305520E-01 -0.30177173925E-02  0.35583607750E-01  0.51100000000E-03 0.  1.
</event>
<event>
 8    1  0.1101883E+005  0.1043930E+01  0.7957747E-01            NaN
         13   -1    0    0    0    0  0.00000000000E+00  0.00000000000E+00  0.74505805969E-08  0.10566000000E+00  0.10566000000E+00 0. -1.
     999900   -1    0    0    0    0 -0.00000000000E+00 -0.00000000000E+00 -0.74505805969E-08  0.93827000000E+00  0.93827000000E+00 0.  1.
     999902    2    1    2    0    0 -0.15938202490E-02  0.11106323177E-01 -0.18780270868E-01  0.10220533172E+01  0.10218191591E+01 0.  0.
     999903    2    3    3    0    0 -0.49486168306E-01  0.12232927272E+00  0.69524975497E-04  0.13356047178E+00  0.20617055333E-01 0.  0.
         14    1    1    2    0    0  0.15938202490E-02 -0.11106323177E-01  0.18780270868E-01  0.21876682824E-01  0.00000000000E+00 0. -1.
     999901    1    3    3    0    0  0.47892348057E-01 -0.11122294955E+00 -0.18849795843E-01  0.88849284539E+00  0.88000000000E+00 0. -1.
        -11    1    4    4    0    0 -0.90454651701E-02  0.30867095817E-01  0.82831990180E-02  0.33218527229E-01  0.51100000000E-03 0.  1.
         11    1    4    4    0    0 -0.40440703136E-01  0.91462176908E-01 -0.82136740425E-02  0.10034194456E+00  0.51100000000E-03 0. -1.
</event>
<event>
 8    1  0.1101883E+005  0.1043930E+01  0.7957747E-01            NaN
         13   -1    0    0    0    0  0.00000000000E+00  0.00000000000E+00  0.74505805969E-08  0.10566000000E+00  0.10566000000E+00 0. -1.
     999900   -1    0    0    0    0 -0.00000000000E+00 -0.00000000000E+00 -0.74505805969E-08  0.93827000000E+00  0.93827000000E+00 0. -1.
     999902    2    1    2    0    0 -0.90727566085E-04  0.18460664124E-01 -0.13809732804E-01  0.10208754327E+01  0.10206150773E+01 0.  0.
     999903    2    3    3    0    0 -0.11394507067E-01 -0.12645238949E+00 -0.88007245746E-02  0.12893784597E+00  0.20675438844E-01 0.  0.
         14    1    1    2    0    0  0.90727566085E-04 -0.18460664124E-01  0.13809732804E-01  0.23054567260E-01  0.00000000000E+00 0. -1.
     999901    1    3    3    0    0  0.11303779501E-01  0.14491305361E+00 -0.50090082298E-02  0.89193758677E+00  0.88000000000E+00 0. -1.
        -11    1    4    4    0    0 -0.39225919510E-04 -0.49448843552E-01 -0.12517590188E-01  0.51011183602E-01  0.51100000000E-03 0.  1.
         11    1    4    4    0    0 -0.11355281148E-01 -0.77003545933E-01  0.37168656136E-02  0.77926662364E-01  0.51100000000E-03 0. -1.
</event>
<event>
 8    1  0.1101883E+005  0.1043930E+01  0.7957747E-01            NaN
         13   -1    0    0    0    0  0.00000000000E+00  0.00000000000E+00  0.74505805969E-08  0.10566000000E+00  0.10566000000E+00 0. -1.
     999900   -1    0    0    0    0 -0.00000000000E+00 -0.00000000000E+00 -0.74505805969E-08  0.93827000000E+00  0.93827000000E+00 0. -1.
     999902    2    1    2    0    0 -0.18710887819E-02 -0.22297593297E-01  0.87400948790E-02  0.10199076583E+01  0.10196247146E+01 0.  0.
     999903    2    3    3    0    0 -0.75879423014E-01 -0.39070024036E-01  0.98775563865E-01  0.13206480421E+00  0.20008670077E-01 0.  0.
         14    1    1    2    0    0  0.18710887819E-02  0.22297593297E-01 -0.87400948790E-02  0.24022341655E-01  0.00000000000E+00 0. -1.
     999901    1    3    3    0    0  0.74008334233E-01  0.16772430739E-01 -0.90035468986E-01  0.88784285414E+00  0.88000000000E+00 0. -1.
        -11    1    4    4    0    0 -0.45450154835E-01 -0.33913206378E-01  0.61182142878E-01  0.83422646023E-01  0.51100000000E-03 0.  1.
         11    1    4    4    0    0 -0.30429268180E-01 -0.51568176585E-02  0.37593420987E-01  0.48642158184E-01  0.51100000000E-03 0. -1.
</event>
<event>
 8    1  0.1101883E+005  0.1043930E+01  0.7957747E-01            NaN
         13   -1    0    0    0    0  0.00000000000E+00  0.00000000000E+00  0.74505805969E-08  0.10566000000E+00  0.10566000000E+00 0.  1.
     999900   -1    0    0    0    0 -0.00000000000E+00 -0.00000000000E+00 -0.74505805969E-08  0.93827000000E+00  0.93827000000E+00 0. -1.
     999902    2    1    2    0    0 -0.11084920203E-01 -0.77302072761E-02 -0.19945847091E-01  0.10198370887E+01  0.10195524602E+01 0.  0.
     999903    2    3    3    0    0  0.74680434200E-01  0.97232099581E-01  0.31571608774E-01  0.12797004132E+00  0.18663240721E-01 0.  0.
         14    1    1    2    0    0  0.11084920203E-01  0.77302072761E-02  0.19945847091E-01  0.24092911335E-01  0.00000000000E+00 0. -1.
     999901    1    3    3    0    0 -0.85765354403E-01 -0.10496230686E+00 -0.51517455865E-01  0.89186704734E+00  0.88000000000E+00 0. -1.
        -11    1    4    4    0    0  0.41586838833E-01  0.59674569121E-01  0.98546819515E-02  0.73402283624E-01  0.51100000000E-03 0. -1.
         11    1    4    4    0    0  0.33093595367E-01  0.37557530460E-01  0.21716926822E-01  0.54567757698E-01  0.51100000000E-03 0.  1.
</event>
<event>
 8    1  0.1279489E+005  0.1043930E+01  0.7957747E-01            NaN
         13   -1    0    0    0    0  0.00000000000E+00  0.00000000000E+00  0.74505805969E-08  0.10566000000E+00  0.10566000000E+00 0. -1.
     999900   -1    0    0    0    0 -0.00000000000E+00 -0.00000000000E+00 -0.74505805969E-08  0.93827000000E+00  0.93827000000E+00 0. -1.
     999902    2    1    2    0    0  0.14354277557E-01 -0.14278121753E-01 -0.12563852379E-01  0.10201022760E+01  0.10198239520E+01 0.  0.
     999903    2    3    3    0    0  0.83971357021E-01 -0.45451018229E-01  0.87920957013E-01  0.13110537827E+00  0.18480846085E-01 0.  0.
         14    1    1    2    0    0 -0.14354277557E-01  0.14278121753E-01  0.12563852379E-01  0.23827724012E-01  0.00000000000E+00 0. -1.
     999901    1    3    3    0    0 -0.69617079464E-01  0.31172896475E-01 -0.10048480939E+00  0.88899689771E+00  0.88000000000E+00 0. -1.
        -11    1    4    4    0    0  0.35718709532E-01 -0.10741169787E-01  0.40538238185E-01  0.55089098877E-01  0.51100000000E-03 0. -1.
         11    1    4    4    0    0  0.48252647489E-01 -0.34709848442E-01  0.47382718828E-01  0.76016279395E-01  0.51100000000E-03 0.  1.
</event>
<event>
 8    1  0.1101883E+005  0.1043930E+01  0.7957747E-01            NaN
         13   -1    0    0    0    0  0.00000000000E+00  0.00000000000E+00  0.74505805969E-08  0.10566000000E+00  0.10566000000E+00 0. -1.
     999900   -1    0    0    0    0 -0.00000000000E+00 -0.00000000000E+00 -0.74505805969E-08  0.93827000000E+00  0.93827000000E+00 0.  1.
     999902    2    1    2    0    0 -0.47063125844E-02 -0.22518529224E-01 -0.38069255392E-02  0.10206120623E+01  0.10203456549E+01 0.  0.
     999903    2    3    3    0    0 -0.63834808946E-02 -0.12121474842E-01  0.12846427812E+00  0.13066454533E+00  0.19556934158E-01 0.  0.
         14    1    1    2    0    0  0.47063125844E-02  0.22518529224E-01  0.38069255392E-02  0.23317937701E-01  0.00000000000E+00 0.  1.
     999901    1    3    3    0    0  0.16771683102E-02 -0.10397054382E-01 -0.13227120366E+00  0.88994751696E+00  0.88000000000E+00 0.  1.
        -11    1    4    4    0    0 -0.20557323859E-02 -0.44407316417E-02  0.11086352426E+00  0.11097264647E+00  0.51100000000E-03 0.  1.
         11    1    4    4    0    0 -0.43277485087E-02 -0.76807432007E-02  0.17600753866E-01  0.19691898865E-01  0.51100000000E-03 0. -1.
</event>
<event>
 8    1  0.1101883E+005  0.1043930E+01  0.7957747E-01            NaN
         13   -1    0    0    0    0  0.00000000000E+00  0.00000000000E+00  0.74505805969E-08  0.10566000000E+00  0.10566000000E+00 0. -1.
     999900   -1    0    0    0    0 -0.00000000000E+00 -0.00000000000E+00 -0.74505805969E-08  0.93827000000E+00  0.93827000000E+00 0.  1.
     999902    2    1    2    0    0 -0.38113660122E-02 -0.15155079242E-01  0.18289897741E-01  0.10198733315E+01  0.10195895689E+01 0.  0.
     999903    2    3    3    0    0  0.74612424708E-01 -0.10251630093E+00 -0.26080596202E-01  0.13096894145E+00  0.19901262475E-01 0.  0.
         14    1    1    2    0    0  0.38113660122E-02  0.15155079242E-01 -0.18289897741E-01  0.24056668454E-01  0.00000000000E+00 0.  1.
     999901    1    3    3    0    0 -0.78423790720E-01  0.87361221689E-01  0.44370493943E-01  0.88890439010E+00  0.88000000000E+00 0. -1.
        -11    1    4    4    0    0  0.63709078620E-01 -0.95782772255E-01 -0.26822438039E-01  0.11812235378E+00  0.51100000000E-03 0.  1.
         11    1    4    4    0    0  0.10903346088E-01 -0.67335286759E-02  0.74184183666E-03  0.12846587666E-01  0.51100000000E-03 0. -1.
</event>
<event>
 8    1  0.1101883E+005  0.1043930E+01  0.7957747E-01            NaN
         13   -1    0    0    0    0  0.00000000000E+00  0.00000000000E+00  0.74505805969E-08  0.10566000000E+00  0.10566000000E+00 0.  1.
     999900   -1    0    0    0    0 -0.00000000000E+00 -0.00000000000E+00 -0.74505805969E-08  0.93827000000E+00  0.93827000000E+00 0. -1.
     999902    2    1    2    0    0  0.21387022304E-01  0.74975935928E-02 -0.77846948595E-02  0.10199671098E+01  0.10196855814E+01 0.  0.
     999903    2    3    3    0    0  0.18997933968E-01 -0.12436459659E+00 -0.25550547662E-01  0.12996207022E+00  0.20244377735E-01 0.  0.
         14    1    1    2    0    0 -0.21387022304E-01 -0.74975935928E-02  0.77846948595E-02  0.23962890200E-01  0.00000000000E+00 0.  1.
     999901    1    3    3    0    0  0.23890883361E-02  0.13186219019E+00  0.17765852803E-01  0.89000503958E+00  0.88000000000E+00 0.  1.
        -11    1    4    4    0    0 -0.22035280592E-02 -0.23710564344E-01  0.60112500097E-03  0.23825802604E-01  0.51100000000E-03 0.  1.
         11    1    4    4    0    0  0.21201462027E-01 -0.10065403225E+00 -0.26151672663E-01  0.10613626762E+00  0.51100000000E-03 0. -1.
</event>
<event>
 8    1  0.1101883E+005  0.1043930E+01  0.7957747E-01            NaN
         13   -1    0    0    0    0  0.00000000000E+00  0.00000000000E+00  0.74505805969E-08  0.10566000000E+00  0.10566000000E+00 0. -1.
     999900   -1    0    0    0    0 -0.00000000000E+00 -0.00000000000E+00 -0.74505805969E-08  0.93827000000E+00  0.93827000000E+00 0. -1.
     999902    2    1    2    0    0 -0.14851927441E-01  0.32071491849E-02 -0.17885813389E-01  0.10204615558E+01  0.10201916579E+01 0.  0.
     999903    2    3    3    0    0 -0.12941483595E+00  0.14864724757E-01  0.13229232849E-01  0.13241386268E+00  0.19729638194E-01 0.  0.
         14    1    1    2    0    0  0.14851927441E-01 -0.32071491849E-02  0.17885813389E-01  0.23468444243E-01  0.00000000000E+00 0. -1.
     999901    1    3    3    0    0  0.11456290851E+00 -0.11657575572E-01 -0.31115046238E-01  0.88804769308E+00  0.88000000000E+00 0. -1.
        -11    1    4    4    0    0 -0.31795594935E-01  0.10712839991E-01 -0.15608337312E-02  0.33591994893E-01  0.51100000000E-03 0.  1.
         11    1    4    4    0    0 -0.97619241012E-01  0.41518847656E-02  0.14790066580E-01  0.98821867789E-01  0.51100000000E-03 0. -1.
</event>
<event>
 8    1  0.1101883E+005  0.1043930E+01  0.7957747E-01            NaN
         13   -1    0    0    0    0  0.00000000000E+00  0.00000000000E+00  0.74505805969E-08  0.10566000000E+00  0.10566000000E+00 0. -1.
     999900   -1    0    0    0    0 -0.00000000000E+00 -0.00000000000E+00 -0.74505805969E-08  0.93827000000E+00  0.93827000000E+00 0. -1.
     999902    2    1    2    0    0 -0.22124154359E-01  0.14714519307E-02 -0.55337648016E-02  0.10210768617E+01  0.10208210870E+01 0.  0.
     999903    2    3    3    0    0  0.94519928066E-01  0.67205836474E-01 -0.54285467029E-01  0.12961537642E+00  0.20064710742E-01 0.  0.
         14    1    1    2    0    0  0.22124154359E-01 -0.14714519307E-02  0.55337648016E-02  0.22853138291E-01  0.00000000000E+00 0.  1.
     999901    1    3    3    0    0 -0.11664408243E+00 -0.65734384543E-01  0.48751702227E-01  0.89146148528E+00  0.88000000000E+00 0.  1.
        -11    1    4    4    0    0  0.32764226599E-01  0.27076018047E-01 -0.99721306304E-02  0.43661307908E-01  0.51100000000E-03 0. -1.
         11    1    4    4    0    0  0.61755701467E-01  0.40129818426E-01 -0.44313336399E-01  0.85954068516E-01  0.51100000000E-03 0.  1.
</event>
<event>
 8    1  0.1101883E+005  0.1043930E+01  0.7957747E-01            NaN
         13   -1    0    0    0    0  0.00000000000E+00  0.00000000000E+00  0.74505805969E-08  0.10566000000E+00  0.10566000000E+00 0. -1.
     999900   -1    0    0    0    0 -0.00000000000E+00 -0.00000000000E+00 -0.74505805969E-08  0.93827000000E+00  0.93827000000E+00 0.  1.
     999902    2    1    2    0    0  0.14598019211E-01  0.25304395704E-01 -0.76038554055E-03  0.10147068449E+01  0.10142859500E+01 0.  0.
     999903    2    3    3    0    0  0.46020459481E-01  0.36157633591E-01  0.11095666270E+00  0.12702116778E+00  0.19943392647E-01 0.  0.
         14    1    1    2    0    0 -0.14598019211E-01 -0.25304395704E-01  0.76038554055E-03  0.29223155082E-01  0.00000000000E+00 0. -1.
     999901    1    3    3    0    0 -0.31422440270E-01 -0.10853237887E-01 -0.11171704824E+00  0.88768567714E+00  0.88000000000E+00 0.  1.
        -11    1    4    4    0    0  0.11183496015E-01  0.21068546126E-01  0.43550313903E-01  0.49657277221E-01  0.51100000000E-03 0. -1.
         11    1    4    4    0    0  0.34836963466E-01  0.15089087465E-01  0.67406348793E-01  0.77363890561E-01  0.51100000000E-03 0.  1.
</event>
<event>
 8    1  0.1101883E+005  0.1043930E+01  0.7957747E-01            NaN
         13   -1    0    0    0    0  0.00000000000E+00  0.00000000000E+00  0.74505805969E-08  0.10566000000E+00  0.10566000000E+00 0.  1.
     999900   -1    0    0    0    0 -0.00000000000E+00 -0.00000000000E+00 -0.74505805969E-08  0.93827000000E+00  0.93827000000E+00 0.  1.
     999902    2    1    2    0    0 -0.78361337441E-02 -0.87510570640E-02  0.20162377793E-01  0.10205953162E+01  0.10203285216E+01 0.  0.
     999903    2    3    3    0    0  0.12407663251E+00  0.31677304043E-01  0.34491035086E-02  0.12968860734E+00  0.20218215321E-01 0.  0.
         14    1    1    2    0    0  0.78361337441E-02  0.87510570640E-02 -0.20162377793E-01  0.23334683843E-01  0.00000000000E+00 0. -1.
     999901    1    3    3    0    0 -0.13191276626E+00 -0.40428361107E-01  0.16713274285E-01  0.89090670882E+00  0.88000000000E+00 0.  1.
        -11    1    4    4    0    0  0.63727295382E-01  0.67665965078E-02  0.58498992127E-02  0.64354001016E-01  0.51100000000E-03 0.  1.
         11    1    4    4    0    0  0.60349337131E-01  0.24910707535E-01 -0.24007957041E-02  0.65334606320E-01  0.51100000000E-03 0. -1.
</event>
<event>
 8    1  0.1101883E+005  0.1043930E+01  0.7957747E-01            NaN
         13   -1    0    0    0    0  0.00000000000E+00  0.00000000000E+00  0.74505805969E-08  0.10566000000E+00  0.10566000000E+00 0. -1.
     999900   -1    0    0    0    0 -0.00000000000E+00 -0.00000000000E+00 -0.74505805969E-08  0.93827000000E+00  0.93827000000E+00 0. -1.
     999902    2    1    2    0    0 -0.22736504581E-01 -0.26375365130E-02  0.51324060126E-02  0.10204726593E+01  0.10202030198E+01 0.  0.
     999903    2    3    3    0    0  0.31514242706E-01  0.92499085802E-01 -0.82372613935E-01  0.12937712630E+00  0.20098878468E-01 0.  0.
         14    1    1    2    0    0  0.22736504581E-01  0.26375365130E-02 -0.51324060126E-02  0.23457340661E-01  0.00000000000E+00 0.  1.
     999901    1    3    3    0    0 -0.54250747287E-01 -0.95136622315E-01  0.87505019947E-01  0.89109553304E+00  0.88000000000E+00 0.  1.
        -11    1    4    4    0    0  0.14533406412E-01  0.36570994477E-01 -0.45975451792E-01  0.60519920914E-01  0.51100000000E-03 0. -1.
         11    1    4    4    0    0  0.16980836294E-01  0.55928091325E-01 -0.36397162143E-01  0.68857205386E-01  0.51100000000E-03 0.  1.
</event>
<event>
 8    1  0.1101883E+005  0.1043930E+01  0.7957747E-01            NaN
         13   -1    0    0    0    0  0.00000000000E+00  0.00000000000E+00  0.74505805969E-08  0.10566000000E+00  0.10566000000E+00 0. -1.
     999900   -1    0    0    0    0 -0.00000000000E+00 -0.00000000000E+00 -0.74505805969E-08  0.93827000000E+00  0.93827000000E+00 0.  1.
     999902    2    1    2    0    0  0.57535226357E-02  0.21825367048E-01  0.58217818807E-02  0.10206202850E+01  0.10203540676E+01 0.  0.
     999903    2    3    3    0    0  0.12916830807E+00 -0.40740666807E-02  0.14841232927E-01  0.13158522358E+00  0.19833281120E-01 0.  0.
         14    1    1    2    0    0 -0.57535226357E-02 -0.21825367048E-01 -0.58217818807E-02  0.23309715008E-01  0.00000000000E+00 0. -1.
     999901    1    3    3    0    0 -0.12341478543E+00  0.25899433728E-01 -0.90194510466E-02  0.88903506142E+00  0.88000000000E+00 0.  1.
        -11    1    4    4    0    0  0.73861700158E-01 -0.40541110659E-02 -0.12427381028E-02  0.73985080156E-01  0.51100000000E-03 0. -1.
         11    1    4    4    0    0  0.55306607911E-01 -0.19955614819E-04  0.16083971030E-01  0.57600143419E-01  0.51100000000E-03 0.  1.
</event>
<event>
 8    1  0.1101883E+005  0.1043930E+01  0.7957747E-01            NaN
         13   -1    0    0    0    0  0.00000000000E+00  0.00000000000E+00  0.74505805969E-08  0.10566000000E+00  0.10566000000E+00 0. -1.
     999900   -1    0    0    0    0 -0.00000000000E+00 -0.00000000000E+00 -0.74505805969E-08  0.93827000000E+00  0.93827000000E+00 0.  1.
     999902    2    1    2    0    0 -0.17054332632E-01  0.15103929765E-01  0.17698159810E-03  0.10211482029E+01  0.10208940406E+01 0.  0.
     999903    2    3    3    0    0  0.54458800177E-01 -0.18400248094E-01  0.11553374428E+00  0.13011293942E+00  0.16643343710E-01 0.  0.
         14    1    1    2    0    0  0.17054332632E-01 -0.15103929765E-01 -0.17698159810E-03  0.22781797084E-01  0.00000000000E+00 0. -1.
     999901    1    3    3    0    0 -0.71513132809E-01  0.33504177859E-01 -0.11535676268E+00  0.89103526350E+00  0.88000000000E+00 0.  1.
        -11    1    4    4    0    0  0.33190322866E-01 -0.28750134151E-02  0.59359014483E-01  0.68070676179E-01  0.51100000000E-03 0. -1.
         11    1    4    4    0    0  0.21268477311E-01 -0.15525234679E-01  0.56174729799E-01  0.62042263240E-01  0.51100000000E-03 0.  1.
</event>
<event>
 8    1  0.1101883E+005  0.1043930E+01  0.7957747E-01            NaN
         13   -1    0    0    0    0  0.00000000000E+00  0.00000000000E+00  0.74505805969E-08  0.10566000000E+00  0.10566000000E+00 0. -1.
     999900   -1    0    0    0    0 -0.00000000000E+00 -0.00000000000E+00 -0.74505805969E-08  0.93827000000E+00  0.93827000000E+00 0. -1.
     999902    2    1    2    0    0 -0.20094992187E-01  0.11658917076E-01  0.15365210582E-02  0.10206469599E+01  0.10203813585E+01 0.  0.
     999903    2    3    3    0    0 -0.94043295717E-01 -0.69755934465E-01  0.57711123553E-01  0.13202312746E+00  0.19735768061E-01 0.  0.
         14    1    1    2    0    0  0.20094992187E-01 -0.11658917076E-01 -0.15365210582E-02  0.23283040080E-01  0.00000000000E+00 0. -1.
     999901    1    3    3    0    0  0.73948303530E-01  0.81414851540E-01 -0.56174602495E-01  0.88862383246E+00  0.88000000000E+00 0. -1.
        -11    1    4    4    0    0 -0.59496262046E-01 -0.32788967511E-01  0.36913069738E-01  0.77315958420E-01  0.51100000000E-03 0. -1.
         11    1    4    4    0    0 -0.34547033671E-01 -0.36966966953E-01  0.20798053815E-01  0.54707169043E-01  0.51100000000E-03 0.  1.
</event>
<event>
 8    1  0.1101883E+005  0.1043930E+01  0.7957747E-01            NaN
         13   -1    0    0    0    0  0.00000000000E+00  0.00000000000E+00  0.74505805969E-08  0.10566000000E+00  0.10566000000E+00 0. -1.
     999900   -1    0    0    0    0 -0.00000000000E+00 -0.00000000000E+00 -0.74505805969E-08  0.93827000000E+00  0.93827000000E+00 0.  1.
     999902    2    1    2    0    0  0.42238895906E-02 -0.19639872183E-01  0.81824375949E-02  0.10222385706E+01  0.10220084037E+01 0.  0.
     999903    2    3    3    0    0  0.65426823990E-01  0.81474315605E-01  0.77495045220E-01  0.13163533927E+00  0.20090970873E-01 0.  0.
         14    1    1    2    0    0 -0.42238895906E-02  0.19639872183E-01 -0.81824375949E-02  0.21691429359E-01  0.00000000000E+00 0.  1.
     999901    1    3    3    0    0 -0.61202934399E-01 -0.10111418779E+00 -0.69312607625E-01  0.89060323137E+00  0.88000000000E+00 0.  1.
        -11    1    4    4    0    0  0.39693856546E-01  0.34481835456E-01  0.33917476586E-01  0.62572003027E-01  0.51100000000E-03 0. -1.
         11    1    4    4    0    0  0.25732967444E-01  0.46992480149E-01  0.43577568634E-01  0.69063336244E-01  0.51100000000E-03 0.  1.
</event>
<event>
 8    1  0.1101883E+005  0.1043930E+01  0.7957747E-01            NaN
         13   -1    0    0    0    0  0.00000000000E+00  0.00000000000E+00  0.74505805969E-08  0.10566000000E+00  0.10566000000E+00 0. -1.
     999900   -1    0    0    0    0 -0.00000000000E+00 -0.00000000000E+00 -0.74505805969E-08  0.93827000000E+00  0.93827000000E+00 0.  1.
     999902    2    1    2    0    0  0.12317057294E-01 -0.20040278813E-01  0.32785732568E-02  0.10201798059E+01  0.10199033115E+01 0.  0.
     999903    2    3    3    0    0 -0.11888706727E+00 -0.45159242248E-01 -0.16637756290E-01  0.12987528230E+00  0.20427483825E-01 0.  0.
         14    1    1    2    0    0 -0.12317057294E-01  0.20040278813E-01 -0.32785732568E-02  0.23750194060E-01  0.00000000000E+00 0.  1.
     999901    1    3    3    0    0  0.13120412456E+00  0.25118963435E-01  0.19916329547E-01  0.89030452364E+00  0.88000000000E+00 0.  1.
        -11    1    4    4    0    0 -0.94540026613E-02 -0.88781146464E-02  0.18508947772E-02  0.13110530823E-01  0.51100000000E-03 0. -1.
         11    1    4    4    0    0 -0.10943306461E+00 -0.36281127601E-01 -0.18488651067E-01  0.11676475148E+00  0.51100000000E-03 0.  1.
</event>
<event>
 8    1  0.1101883E+005  0.1043930E+01  0.7957747E-01            NaN
         13   -1    0    0    0    0  0.00000000000E+00  0.00000000000E+00  0.74505805969E-08  0.10566000000E+00  0.10566000000E+00 0.  1.
     999900   -1    0    0    0    0 -0.00000000000E+00 -0.00000000000E+00 -0.74505805969E-08  0.93827000000E+00  0.93827000000E+00 0.  1.
     999902    2    1    2    0    0 -0.21914267874E-01 -0.16293345847E-01 -0.12818054872E-02  0.10165922737E+01  0.10162246305E+01 0.  0.
     999903    2    3    3    0    0 -0.86589301050E-01  0.51883743859E-01 -0.76637911267E-01  0.12838648775E+00  0.20496118160E-01 0.  0.
         14    1    1    2    0    0  0.21914267874E-01  0.16293345847E-01  0.12818054872E-02  0.27337726325E-01  0.00000000000E+00 0. -1.
     999901    1    3    3    0    0  0.64675033176E-01 -0.68177089705E-01  0.75356105780E-01  0.88820578593E+00  0.88000000000E+00 0. -1.
        -11    1    4    4    0    0 -0.22630047578E-01  0.13890145770E-01 -0.95886087246E-02  0.28235752888E-01  0.51100000000E-03 0. -1.
         11    1    4    4    0    0 -0.63959253472E-01  0.37993598089E-01 -0.67049302542E-01  0.10015073486E+00  0.51100000000E-03 0.  1.
</event>
<event>
 8    1  0.1101883E+005  0.1043930E+01  0.7957747E-01            NaN
         13   -1    0    0    0    0  0.00000000000E+00  0.00000000000E+00  0.74505805969E-08  0.10566000000E+00  0.10566000000E+00 0.  1.
     999900   -1    0    0    0    0 -0.00000000000E+00 -0.00000000000E+00 -0.74505805969E-08  0.93827000000E+00  0.93827000000E+00 0.  1.
     999902    2    1    2    0    0  0.87262814557E-02  0.10750971362E-01  0.20154494267E-01  0.10194772903E+01  0.10191839924E+01 0.  0.
     999903    2    3    3    0    0 -0.31176395868E-01 -0.10941364868E+00 -0.53513832099E-01  0.12736811430E+00  0.20386077077E-01 0.  0.
         14    1    1    2    0    0 -0.87262814557E-02 -0.10750971362E-01 -0.20154494267E-01  0.24452709716E-01  0.00000000000E+00 0. -1.
     999901    1    3    3    0    0  0.39902677324E-01  0.12016462004E+00  0.73668326366E-01  0.89210917598E+00  0.88000000000E+00 0. -1.
        -11    1    4    4    0    0 -0.18232065755E-01 -0.59501471180E-01 -0.18100546332E-01  0.64812994012E-01  0.51100000000E-03 0. -1.
         11    1    4    4    0    0 -0.12944330113E-01 -0.49912177495E-01 -0.35413285768E-01  0.62555120288E-01  0.51100000000E-03 0.  1.
</event>
<event>
 8    1  0.1101883E+005  0.1043930E+01  0.7957747E-01            NaN
         13   -1    0    0    0    0  0.00000000000E+00  0.00000000000E+00  0.74505805969E-08  0.10566000000E+00  0.10566000000E+00 0.  1.
     999900   -1    0    0    0    0 -0.00000000000E+00 -0.00000000000E+00 -0.74505805969E-08  0.93827000000E+00  0.93827000000E+00 0.  1.
     999902    2    1    2    0    0  0.13398184594E-01  0.23113658290E-02 -0.25133504993E-01  0.10153547164E+01  0.10149525374E+01 0.  0.
     999903    2    3    3    0    0 -0.83085259189E-01  0.86644443466E-01 -0.32983709409E-01  0.12603882837E+00  0.19683528449E-01 0.  0.
         14    1    1    2    0    0 -0.13398184594E-01 -0.23113658290E-02  0.25133504993E-01  0.28575283649E-01  0.00000000000E+00 0.  1.
     999901    1    3    3    0    0  0.96483443783E-01 -0.84333077637E-01  0.78502044169E-02  0.88931588798E+00  0.88000000000E+00 0. -1.
        -11    1    4    4    0    0 -0.51078946431E-01  0.62992397891E-01 -0.15506652401E-01  0.82570081447E-01  0.51100000000E-03 0. -1.
         11    1    4    4    0    0 -0.32006312758E-01  0.23652045575E-01 -0.17477057009E-01  0.43468746921E-01  0.51100000000E-03 0.  1.
</event>
<event>
 8    1  0.1101883E+005  0.1043930E+01  0.7957747E-01            NaN
         13   -1    0    0    0    0  0.00000000000E+00  0.00000000000E+00  0.74505805969E-08  0.10566000000E+00  0.10566000000E+00 0.  1.
     999900   -1    0    0    0    0 -0.00000000000E+00 -0.00000000000E+00 -0.74505805969E-08  0.93827000000E+00  0.93827000000E+00 0.  1.
     999902    2    1    2    0    0 -0.94674443967E-03  0.17083778968E-01  0.16070279131E-01  0.10204564894E+01  0.10201864737E+01 0.  0.
     999903    2    3    3    0    0 -0.11007858274E+00  0.21147319870E-01  0.66232779709E-01  0.13228840454E+00  0.23429412090E-01 0.  0.
         14    1    1    2    0    0  0.94674443967E-03 -0.17083778968E-01 -0.16070279131E-01  0.23473510607E-01  0.00000000000E+00 0.  1.
     999901    1    3    3    0    0  0.10913183830E+00 -0.40635409013E-02 -0.50162500578E-01  0.88816808486E+00  0.88000000000E+00 0. -1.
        -11    1    4    4    0    0 -0.64619526821E-01  0.59034991928E-02  0.26800496330E-01  0.70207280775E-01  0.51100000000E-03 0.  1.
         11    1    4    4    0    0 -0.45459055919E-01  0.15243820677E-01  0.39432283379E-01  0.62081123760E-01  0.51100000000E-03 0. -1.
</event>
<event>
 8    1  0.1101883E+005  0.1043930E+01  0.7957747E-01            NaN
         13   -1    0    0    0    0  0.00000000000E+00  0.00000000000E+00  0.74505805969E-08  0.10566000000E+00  0.10566000000E+00 0.  1.
     999900   -1    0    0    0    0 -0.00000000000E+00 -0.00000000000E+00 -0.74505805969E-08  0.93827000000E+00  0.93827000000E+00 0.  1.
     999902    2    1    2    0    0  0.20031084713E-01 -0.69075219438E-02 -0.75257642232E-02  0.10214445527E+01  0.10211970323E+01 0.  0.
     999903    2    3    3    0    0 -0.11213623298E+00  0.55368767979E-01 -0.26521710433E-01  0.12919605471E+00  0.18654334981E-01 0.  0.
         14    1    1    2    0    0 -0.20031084713E-01  0.69075219438E-02  0.75257642232E-02  0.22485447323E-01  0.00000000000E+00 0.  1.
     999901    1    3    3    0    0  0.13216731769E+00 -0.62276289923E-01  0.18995946209E-01  0.89224849797E+00  0.88000000000E+00 0. -1.
        -11    1    4    4    0    0 -0.77436080767E-01  0.44201068386E-01 -0.25442345768E-01  0.92723541403E-01  0.51100000000E-03 0.  1.
         11    1    4    4    0    0 -0.34700152214E-01  0.11167699593E-01 -0.10793646649E-02  0.36472513307E-01  0.51100000000E-03 0. -1.
</event>
<event>
 8    1  0.1101883E+005  0.1043930E+01  0.7957747E-01            NaN
         13   -1    0    0    0    0  0.00000000000E+00  0.00000000000E+00  0.74505805969E-08  0.10566000000E+00  0.10566000000E+00 0.  1.
     999900   -1    0    0    0    0 -0.00000000000E+00 -0.00000000000E+00 -0.74505805969E-08  0.93827000000E+00  0.93827000000E+00 0. -1.
     999902    2    1    2    0    0  0.67649105421E-02  0.82851000920E-02  0.16746082430E-01  0.10240594647E+01  0.10238666656E+01 0.  0.
     999903    2    3    3    0    0  0.27835424573E-01 -0.10390337775E+00 -0.74033586959E-01  0.13205544589E+00  0.19670943557E-01 0.  0.
         14    1    1    2    0    0 -0.67649105421E-02 -0.82851000920E-02 -0.16746082430E-01  0.19870535346E-01  0.00000000000E+00 0. -1.
     999901    1    3    3    0    0 -0.21070514031E-01  0.11218847785E+00  0.90779669389E-01  0.89200401877E+00  0.88000000000E+00 0. -1.
        -11    1    4    4    0    0  0.15939499507E-01 -0.80628640249E-01 -0.48099198974E-01  0.95230453826E-01  0.51100000000E-03 0.  1.
         11    1    4    4    0    0  0.11895925066E-01 -0.23274737505E-01 -0.25934387985E-01  0.36824992060E-01  0.51100000000E-03 0. -1.
</event>
<event>
 7    1  0.1101883E+005  0.1043930E+01  0.7957747E-01            NaN
         13   -1    0    0    0    0  0.00000000000E+00  0.00000000000E+00  0.74505805969E-08  0.10566000000E+00  0.10566000000E+00 0.  1.
     999900   -1    0    0    0    0 -0.00000000000E+00 -0.00000000000E+00 -0.74505805969E-08  0.93827000000E+00  0.93827000000E+00 0. -1.
     999903    2    1    2    0    0 -0.11829007252E-01  0.76508084512E-01 -0.81215711585E-01  0.11402075199E+00  0.20281214665E-01 0.  0.
         14    1    1    2    0    0  0.21858280449E-01 -0.31276126130E-01 -0.19679575219E-01  0.42933275797E-01  0.00000000000E+00 0.  1.
     999901    1    1    2    0    0 -0.10029273196E-01 -0.45231958382E-01  0.10089528680E+00  0.88697597221E+00  0.88000000000E+00 0.  1.
        -11    1    3    3    0    0 -0.16491931067E-01  0.50551687180E-01 -0.59978331763E-01  0.80156835449E-01  0.51100000000E-03 0.  1.
         11    1    3    3    0    0  0.46629238145E-02  0.25956397332E-01 -0.21237379822E-01  0.33863916543E-01  0.51100000000E-03 0. -1.
</event>
<event>
 8    1  0.1101883E+005  0.1043930E+01  0.7957747E-01            NaN
         13   -1    0    0    0    0  0.00000000000E+00  0.00000000000E+00  0.74505805969E-08  0.10566000000E+00  0.10566000000E+00 0.  1.
     999900   -1    0    0    0    0 -0.00000000000E+00 -0.00000000000E+00 -0.74505805969E-08  0.93827000000E+00  0.93827000000E+00 0.  1.
     999902    2    1    2    0    0 -0.44686810663E-03  0.55410021700E-02  0.22072840268E-01  0.10211679115E+01  0.10209141936E+01 0.  0.
     999903    2    3    3    0    0 -0.79385557837E-01  0.15187711283E-01  0.10455370208E+00  0.13374046752E+00  0.20550004051E-01 0.  0.
         14    1    1    2    0    0  0.44686810663E-03 -0.55410021700E-02 -0.22072840268E-01  0.22762088517E-01  0.00000000000E+00 0. -1.
     999901    1    3    3    0    0  0.78938689730E-01 -0.96467091132E-02 -0.82480861814E-01  0.88742744396E+00  0.88000000000E+00 0.  1.
        -11    1    4    4    0    0 -0.28586533614E-01 -0.42099569996E-02  0.39721029329E-01  0.49121634073E-01  0.51100000000E-03 0. -1.
         11    1    4    4    0    0 -0.50799024222E-01  0.19397668283E-01  0.64832672752E-01  0.84618833447E-01  0.51100000000E-03 0.  1.
</event>
<event>
 8    1  0.1101883E+005  0.1043930E+01  0.7957747E-01            NaN
         13   -1    0    0    0    0  0.00000000000E+00  0.00000000000E+00  0.74505805969E-08  0.10566000000E+00  0.10566000000E+00 0.  1.
     999900   -1    0    0    0    0 -0.00000000000E+00 -0.00000000000E+00 -0.74505805969E-08  0.93827000000E+00  0.93827000000E+00 0.  1.
     999902    2    1    2    0    0 -0.29228744409E-02  0.96134437304E-02  0.20440597909E-01  0.10211532676E+01  0.10208992195E+01 0.  0.
     999903    2    3    3    0    0 -0.60691099488E-01  0.21949075207E-01  0.11579430017E+00  0.13403339738E+00  0.19785353183E-01 0.  0.
         14    1    1    2    0    0  0.29228744409E-02 -0.96134437304E-02 -0.20440597909E-01  0.22776732387E-01  0.00000000000E+00 0. -1.
     999901    1    3    3    0    0  0.57768225047E-01 -0.12335631477E-01 -0.95353702264E-01  0.88711987023E+00  0.88000000000E+00 0.  1.
        -11    1    4    4    0    0 -0.36404674692E-01  0.23208875906E-01  0.74541805831E-01  0.86143451277E-01  0.51100000000E-03 0.  1.
         11    1    4    4    0    0 -0.24286424796E-01 -0.12598006985E-02  0.41252494343E-01  0.47889946102E-01  0.51100000000E-03 0. -1.
</event>
<event>
 8    1  0.1101883E+005  0.1043930E+01  0.7957747E-01            NaN
         13   -1    0    0    0    0  0.00000000000E+00  0.00000000000E+00  0.74505805969E-08  0.10566000000E+00  0.10566000000E+00 0. -1.
     999900   -1    0    0    0    0 -0.00000000000E+00 -0.00000000000E+00 -0.74505805969E-08  0.93827000000E+00  0.93827000000E+00 0.  1.
     999902    2    1    2    0    0 -0.66432406082E-02  0.21835908145E-01 -0.35747084434E-03  0.10211031010E+01  0.10208479199E+01 0.  0.
     999903    2    3    3    0    0 -0.29882500118E-01 -0.75161903279E-01 -0.10007536551E+00  0.12987232447E+00  0.17591656063E-01 0.  0.
         14    1    1    2    0    0  0.66432406082E-02 -0.21835908145E-01  0.35747084434E-03  0.22826898951E-01  0.00000000000E+00 0. -1.
     999901    1    3    3    0    0  0.23239259510E-01  0.96997811424E-01  0.99717894668E-01  0.89123077658E+00  0.88000000000E+00 0. -1.
        -11    1    4    4    0    0 -0.29153774932E-01 -0.53923293158E-01 -0.78285234436E-01  0.99430896554E-01  0.51100000000E-03 0. -1.
         11    1    4    4    0    0 -0.72872518617E-03 -0.21238610121E-01 -0.21790131077E-01  0.30441427917E-01  0.51100000000E-03 0.  1.
</event>
<event>
 8    1  0.1101883E+005  0.1043930E+01  0.7957747E-01            NaN
         13   -1    0    0    0    0  0.00000000000E+00  0.00000000000E+00  0.74505805969E-08  0.10566000000E+00  0.10566000000E+00 0.  1.
     999900   -1    0    0    0    0 -0.00000000000E+00 -0.00000000000E+00 -0.74505805969E-08  0.93827000000E+00  0.93827000000E+00 0. -1.
     999902    2    1    2    0    0 -0.13944132035E-01  0.86815954849E-02  0.19081990003E-01  0.10187520084E+01  0.10184408296E+01 0.  0.
     999903    2    3    3    0    0 -0.95413998047E-01  0.79966751777E-03 -0.84453691032E-01  0.12890983076E+00  0.19515328523E-01 0.  0.
         14    1    1    2    0    0  0.13944132035E-01 -0.86815954849E-02 -0.19081990003E-01  0.25177991597E-01  0.00000000000E+00 0. -1.
     999901    1    3    3    0    0  0.81469866012E-01  0.78819279671E-02  0.10353568104E+00  0.88984217764E+00  0.88000000000E+00 0.  1.
        -11    1    4    4    0    0 -0.46917602206E-01 -0.88174994385E-02 -0.37286315037E-01  0.60576729056E-01  0.51100000000E-03 0. -1.
         11    1    4    4    0    0 -0.48496395841E-01  0.96171669563E-02 -0.47167375995E-01  0.68333101708E-01  0.51100000000E-03 0.  1.
</event>
<event>
 8    1  0.1101883E+005  0.1043930E+01  0.7957747E-01            NaN
         13   -1    0    0    0    0  0.00000000000E+00  0.00000000000E+00  0.74505805969E-08  0.10566000000E+00  0.10566000000E+00 0. -1.
     999900   -1    0    0    0    0 -0.00000000000E+00 -0.00000000000E+00 -0.74505805969E-08  0.93827000000E+00  0.93827000000E+00 0. -1.
     999902    2    1    2    0    0 -0.50697199201E-02 -0.80954489346E-02  0.20995254188E-01  0.10208640283E+01  0.10206034123E+01 0.  0.
     999903    2    3    3    0    0 -0.34983959029E-01 -0.95964200666E-01  0.83940339511E-01  0.13374630046E+00  0.20225901450E-01 0.  0.
         14    1    1    2    0    0  0.50697199201E-02  0.80954489346E-02 -0.20995254188E-01  0.23065971732E-01  0.00000000000E+00 0.  1.
     999901    1    3    3    0    0  0.29914239109E-01  0.87868751732E-01 -0.62945085323E-01  0.88711772781E+00  0.88000000000E+00 0. -1.
        -11    1    4    4    0    0 -0.30858029494E-01 -0.93725711229E-01  0.76174698855E-01  0.12465782284E+00  0.51100000000E-03 0.  1.
         11    1    4    4    0    0 -0.41259295349E-02 -0.22384894368E-02  0.77656406562E-02  0.90884776110E-02  0.51100000000E-03 0. -1.
</event>
<event>
 8    1  0.1101883E+005  0.1043930E+01  0.7957747E-01            NaN
         13   -1    0    0    0    0  0.00000000000E+00  0.00000000000E+00  0.74505805969E-08  0.10566000000E+00  0.10566000000E+00 0. -1.
     999900   -1    0    0    0    0 -0.00000000000E+00 -0.00000000000E+00 -0.74505805969E-08  0.93827000000E+00  0.93827000000E+00 0. -1.
     999902    2    1    2    0    0 -0.86970751276E-03  0.42804857554E-02 -0.22649381234E-01  0.10208632833E+01  0.10206026503E+01 0.  0.
     999903    2    3    3    0    0 -0.43033087674E-01 -0.66032099102E-01  0.99573547820E-01  0.12864130721E+00  0.20533137812E-01 0.  0.
         14    1    1    2    0    0  0.86970751276E-03 -0.42804857554E-02  0.22649381234E-01  0.23066716710E-01  0.00000000000E+00 0. -1.
     999901    1    3    3    0    0  0.42163380161E-01  0.70312584857E-01 -0.12222292905E+00  0.89222197608E+00  0.88000000000E+00 0. -1.
        -11    1    4    4    0    0 -0.36946235208E-01 -0.54492832964E-01  0.68873035425E-01  0.95279847135E-01  0.51100000000E-03 0.  1.
         11    1    4    4    0    0 -0.60868524663E-02 -0.11539266138E-01  0.30700512395E-01  0.33361460074E-01  0.51100000000E-03 0. -1.
</event>
<event>
 8    1  0.1101883E+005  0.1043930E+01  0.7957747E-01            NaN
         13   -1    0    0    0    0  0.00000000000E+00  0.00000000000E+00  0.74505805969E-08  0.10566000000E+00  0.10566000000E+00 0. -1.
     999900   -1    0    0    0    0 -0.00000000000E+00 -0.00000000000E+00 -0.74505805969E-08  0.93827000000E+00  0.93827000000E+00 0.  1.
     999902    2    1    2    0    0 -0.13062723245E-02  0.18182217430E-01  0.15186320283E-01  0.10202039868E+01  0.10199280617E+01 0.  0.
     999903    2    3    3    0    0 -0.81038432803E-01  0.83176015479E-01 -0.57559052026E-01  0.13123081489E+00  0.20567089372E-01 0.  0.
         14    1    1    2    0    0  0.13062723245E-02 -0.18182217430E-01 -0.15186320283E-01  0.23726013188E-01  0.00000000000E+00 0.  1.
     999901    1    3    3    0    0  0.79732160479E-01 -0.64993798049E-01  0.72745372309E-01  0.88897317192E+00  0.88000000000E+00 0. -1.
        -11    1    4    4    0    0 -0.33882245059E-01  0.21059565993E-01 -0.21246492848E-01  0.45201619765E-01  0.51100000000E-03 0. -1.
         11    1    4    4    0    0 -0.47156187744E-01  0.62116449486E-01 -0.36312559178E-01  0.86029195128E-01  0.51100000000E-03 0.  1.
</event>
<event>
 8    1  0.1101883E+005  0.1043930E+01  0.7957747E-01            NaN
         13   -1    0    0    0    0  0.00000000000E+00  0.00000000000E+00  0.74505805969E-08  0.10566000000E+00  0.10566000000E+00 0. -1.
     999900   -1    0    0    0    0 -0.00000000000E+00 -0.00000000000E+00 -0.74505805969E-08  0.93827000000E+00  0.93827000000E+00 0.  1.
     999902    2    1    2    0    0 -0.14142439668E-01  0.13703331257E-01 -0.14543514480E-01  0.10194493198E+01  0.10191553424E+01 0.  0.
     999903    2    3    3    0    0 -0.11222726214E+00 -0.63453707847E-01 -0.64173573487E-02  0.13060744667E+00  0.19894502835E-01 0.  0.
         14    1    1    2    0    0  0.14142439668E-01 -0.13703331257E-01  0.14543514480E-01  0.24480680153E-01  0.00000000000E+00 0. -1.
     999901    1    3    3    0    0  0.98084822473E-01  0.77157039104E-01 -0.81261571317E-02  0.88884187318E+00  0.88000000000E+00 0. -1.
        -11    1    4    4    0    0 -0.89527388961E-01 -0.57047682652E-01 -0.51393599144E-05  0.10615956206E+00  0.51100000000E-03 0. -1.
         11    1    4    4    0    0 -0.22699873181E-01 -0.64060251958E-02 -0.64122179888E-02  0.24447884607E-01  0.51100000000E-03 0.  1.
</event>
<event>
 8    1  0.1101883E+005  0.1043930E+01  0.7957747E-01            NaN
         13   -1    0    0    0    0  0.00000000000E+00  0.00000000000E+00  0.74505805969E-08  0.10566000000E+00  0.10566000000E+00 0.  1.
     999900   -1    0    0    0    0 -0.00000000000E+00 -0.00000000000E+00 -0.74505805969E-08  0.93827000000E+00  0.93827000000E+00 0.  1.
     999902    2    1    2    0    0  0.13769841695E-01 -0.44118759522E-03  0.21329200732E-01  0.10185383086E+01  0.10182217578E+01 0.  0.
     999903    2    3    3    0    0  0.40620478553E-01 -0.12103920288E+00  0.12699265849E-01  0.12986552646E+00  0.20081625868E-01 0.  0.
         14    1    1    2    0    0 -0.13769841695E-01  0.44118759522E-03 -0.21329200732E-01  0.25391691370E-01  0.00000000000E+00 0. -1.
     999901    1    3    3    0    0 -0.26850636858E-01  0.12059801529E+00  0.86299348826E-02  0.88867278217E+00  0.88000000000E+00 0.  1.
        -11    1    4    4    0    0  0.61266072386E-02 -0.34332698306E-01 -0.38554610441E-02  0.35091240931E-01  0.51100000000E-03 0.  1.
         11    1    4    4    0    0  0.34493871314E-01 -0.86706504577E-01  0.16554726893E-01  0.94774285530E-01  0.51100000000E-03 0. -1.
</event>
<event>
 8    1  0.1314679E+005  0.1043930E+01  0.7957747E-01            NaN
         13   -1    0    0    0    0  0.00000000000E+00  0.00000000000E+00  0.74505805969E-08  0.10566000000E+00  0.10566000000E+00 0.  1.
     999900   -1    0    0    0    0 -0.00000000000E+00 -0.00000000000E+00 -0.74505805969E-08  0.93827000000E+00  0.93827000000E+00 0. -1.
     999902    2    1    2    0    0  0.19528478557E-01  0.61533170900E-02 -0.12147008283E-01  0.10201229717E+01  0.10198451367E+01 0.  0.
     999903    2    3    3    0    0 -0.47316769402E-01  0.10685897638E-01 -0.11991838101E+00  0.13102033408E+00  0.20804921573E-01 0.  0.
         14    1    1    2    0    0 -0.19528478557E-01 -0.61533170900E-02  0.12147008283E-01  0.23807028294E-01  0.00000000000E+00 0.  1.
     999901    1    3    3    0    0  0.66845247959E-01 -0.45325805483E-02  0.10777137273E+00  0.88910263763E+00  0.88000000000E+00 0.  1.
        -11    1    4    4    0    0 -0.90233420961E-02 -0.10901265273E-02 -0.46481110577E-01  0.47364161978E-01  0.51100000000E-03 0.  1.
         11    1    4    4    0    0 -0.38293427306E-01  0.11776024166E-01 -0.73437270436E-01  0.83656172098E-01  0.51100000000E-03 0. -1.
</event>
<event>
 8    1  0.1101883E+005  0.1043930E+01  0.7957747E-01            NaN
         13   -1    0    0    0    0  0.00000000000E+00  0.00000000000E+00  0.74505805969E-08  0.10566000000E+00  0.10566000000E+00 0. -1.
     999900   -1    0    0    0    0 -0.00000000000E+00 -0.00000000000E+00 -0.74505805969E-08  0.93827000000E+00  0.93827000000E+00 0. -1.
     999902    2    1    2    0    0  0.17296397737E-01  0.44055055973E-02 -0.16290730674E-01  0.10197646993E+01  0.10194783372E+01 0.  0.
     999903    2    3    3    0    0 -0.54201294959E-01  0.76001687075E-01 -0.90126958523E-01  0.13089478650E+00  0.17220327109E-01 0.  0.
         14    1    1    2    0    0 -0.17296397737E-01 -0.44055055973E-02  0.16290730674E-01  0.24165300746E-01  0.00000000000E+00 0. -1.
     999901    1    3    3    0    0  0.71497692696E-01 -0.71596181478E-01  0.73836227849E-01  0.88886991276E+00  0.88000000000E+00 0.  1.
        -11    1    4    4    0    0 -0.13601544350E-01  0.23137294117E-01 -0.16199072151E-01  0.31352949579E-01  0.51100000000E-03 0.  1.
         11    1    4    4    0    0 -0.40599750609E-01  0.52864392958E-01 -0.73927886373E-01  0.99541836917E-01  0.51100000000E-03 0. -1.
</event>
<event>
 8    1  0.1101883E+005  0.1043930E+01  0.7957747E-01            NaN
         13   -1    0    0    0    0  0.00000000000E+00  0.00000000000E+00  0.74505805969E-08  0.10566000000E+00  0.10566000000E+00 0.  1.
     999900   -1    0    0    0    0 -0.00000000000E+00 -0.00000000000E+00 -0.74505805969E-08  0.93827000000E+00  0.93827000000E+00 0. -1.
     999902    2    1    2    0    0 -0.30005545977E-02 -0.16932188184E-01 -0.16404768759E-01  0.10201640840E+01  0.10198872190E+01 0.  0.
     999903    2    3    3    0    0 -0.97825892753E-02  0.12160174722E+00 -0.36840047725E-01  0.12906630718E+00  0.20450881446E-01 0.  0.
         14    1    1    2    0    0  0.30005545977E-02  0.16932188184E-01  0.16404768759E-01  0.23765915986E-01  0.00000000000E+00 0.  1.
     999901    1    3    3    0    0  0.67820346776E-02 -0.13853393541E+00  0.20435278966E-01  0.89109777683E+00  0.88000000000E+00 0.  1.
        -11    1    4    4    0    0 -0.15550223962E-01  0.93335870545E-01 -0.24936253537E-01  0.97854341024E-01  0.51100000000E-03 0.  1.
         11    1    4    4    0    0  0.57676346863E-02  0.28265876678E-01 -0.11903794188E-01  0.31211966156E-01  0.51100000000E-03 0. -1.
</event>
<event>
 8    1  0.1101883E+005  0.1043930E+01  0.7957747E-01            NaN
         13   -1    0    0    0    0  0.00000000000E+00  0.00000000000E+00  0.74505805969E-08  0.10566000000E+00  0.10566000000E+00 0. -1.
     999900   -1    0    0    0    0 -0.00000000000E+00 -0.00000000000E+00 -0.74505805969E-08  0.93827000000E+00  0.93827000000E+00 0. -1.
     999902    2    1    2    0    0  0.11715594441E-01  0.13670451541E-02 -0.20327209548E-01  0.10204285232E+01  0.10201578562E+01 0.  0.
     999903    2    3    3    0    0  0.36240507908E-01 -0.14353448478E-01  0.12091862070E+00  0.12868921716E+00  0.20498924002E-01 0.  0.
         14    1    1    2    0    0 -0.11715594441E-01 -0.13670451541E-02  0.20327209548E-01  0.23501476838E-01  0.00000000000E+00 0. -1.
     999901    1    3    3    0    0 -0.24524913468E-01  0.15720493632E-01 -0.14124583025E+00  0.89173930600E+00  0.88000000000E+00 0. -1.
        -11    1    4    4    0    0  0.10972099435E-01 -0.11146001231E-01  0.25417970083E-01  0.29848863187E-01  0.51100000000E-03 0. -1.
         11    1    4    4    0    0  0.25268408473E-01 -0.32074472473E-02  0.95500650618E-01  0.98840353976E-01  0.51100000000E-03 0.  1.
</event>
<event>
 8    1  0.1101883E+005  0.1043930E+01  0.7957747E-01            NaN
         13   -1    0    0    0    0  0.00000000000E+00  0.00000000000E+00  0.74505805969E-08  0.10566000000E+00  0.10566000000E+00 0.  1.
     999900   -1    0    0    0    0 -0.00000000000E+00 -0.00000000000E+00 -0.74505805969E-08  0.93827000000E+00  0.93827000000E+00 0. -1.
     999902    2    1    2    0    0  0.41562715223E-02  0.24315822227E-01 -0.15636235591E-01  0.10147233969E+01  0.10143029855E+01 0.  0.
     999903    2    3    3    0    0  0.77112460196E-01 -0.58246491249E-02 -0.99043987146E-01  0.12726190108E+00  0.20140060099E-01 0.  0.
         14    1    1    2    0    0 -0.41562715223E-02 -0.24315822227E-01  0.15636235591E-01  0.29206603141E-01  0.00000000000E+00 0. -1.
     999901    1    3    3    0    0 -0.72956188674E-01  0.30140471352E-01  0.83407751554E-01  0.88746149578E+00  0.88000000000E+00 0. -1.
        -11    1    4    4    0    0  0.19362935596E-01 -0.22017696298E-02 -0.40495523412E-01  0.44943515681E-01  0.51100000000E-03 0.  1.
         11    1    4    4    0    0  0.57749524600E-01 -0.36228794951E-02 -0.58548463734E-01  0.82318385394E-01  0.51100000000E-03 0. -1.
</event>
<event>
 8    1  0.1101883E+005  0.1043930E+01  0.7957747E-01            NaN
         13   -1    0    0    0    0  0.00000000000E+00  0.00000000000E+00  0.74505805969E-08  0.10566000000E+00  0.10566000000E+00 0. -1.
     999900   -1    0    0    0    0 -0.00000000000E+00 -0.00000000000E+00 -0.74505805969E-08  0.93827000000E+00  0.93827000000E+00 0. -1.
     999902    2    1    2    0    0  0.70391275370E-02  0.12668358316E-01 -0.18107716000E-01  0.10207367683E+01  0.10204732354E+01 0.  0.
     999903    2    3    3    0    0  0.21263975945E-01 -0.20105281923E-01  0.12368532864E+00  0.12867078119E+00  0.20043212789E-01 0.  0.
         14    1    1    2    0    0 -0.70391275370E-02 -0.12668358316E-01  0.18107716000E-01  0.23193231721E-01  0.00000000000E+00 0. -1.
     999901    1    3    3    0    0 -0.14224848408E-01  0.32773640239E-01 -0.14179304464E+00  0.89206598709E+00  0.88000000000E+00 0. -1.
        -11    1    4    4    0    0  0.85596016862E-02 -0.20347899244E-01  0.65837847025E-01  0.69441968626E-01  0.51100000000E-03 0. -1.
         11    1    4    4    0    0  0.12704374259E-01  0.24261732088E-03  0.57847481611E-01  0.59228812568E-01  0.51100000000E-03 0.  1.
</event>
<event>
 8    1  0.1101883E+005  0.1043930E+01  0.7957747E-01            NaN
         13   -1    0    0    0    0  0.00000000000E+00  0.00000000000E+00  0.74505805969E-08  0.10566000000E+00  0.10566000000E+00 0.  1.
     999900   -1    0    0    0    0 -0.00000000000E+00 -0.00000000000E+00 -0.74505805969E-08  0.93827000000E+00  0.93827000000E+00 0. -1.
     999902    2    1    2    0    0  0.49138966186E-02  0.16656443952E-01 -0.15802273339E-01  0.10204503205E+01  0.10201801612E+01 0.  0.
     999903    2    3    3    0    0  0.16353073034E-01  0.12295788586E+00  0.40981884995E-01  0.13216247758E+00  0.20033494191E-01 0.  0.
         14    1    1    2    0    0 -0.49138966186E-02 -0.16656443952E-01  0.15802273339E-01  0.23479679465E-01  0.00000000000E+00 0.  1.
     999901    1    3    3    0    0 -0.11439176415E-01 -0.10630144191E+00 -0.56784158333E-01  0.88828784296E+00  0.88000000000E+00 0.  1.
        -11    1    4    4    0    0  0.13641757989E-01  0.63214293644E-01  0.30263804074E-01  0.71402405001E-01  0.51100000000E-03 0.  1.
         11    1    4    4    0    0  0.27113150444E-02  0.59743592214E-01  0.10718080921E-01  0.60760072577E-01  0.51100000000E-03 0. -1.
</event>
<event>
 8    1  0.1101883E+005  0.1043930E+01  0.7957747E-01            NaN
         13   -1    0    0    0    0  0.00000000000E+00  0.00000000000E+00  0.74505805969E-08  0.10566000000E+00  0.10566000000E+00 0.  1.
     999900   -1    0    0    0    0 -0.00000000000E+00 -0.00000000000E+00 -0.74505805969E-08  0.93827000000E+00  0.93827000000E+00 0. -1.
     999902    2    1    2    0    0  0.18507719505E-01 -0.35978627862E-02 -0.15896182641E-01  0.10192689189E+01  0.10189705394E+01 0.  0.
     999903    2    3    3    0    0 -0.12195062192E+00 -0.15374647774E-01 -0.27200961017E-01  0.12798050523E+00  0.23038738205E-01 0.  0.
         14    1    1    2    0    0 -0.18507719505E-01  0.35978627862E-02  0.15896182641E-01  0.24661081089E-01  0.00000000000E+00 0.  1.
     999901    1    3    3    0    0  0.14045834143E+00  0.11776784987E-01  0.11304778375E-01  0.89128841368E+00  0.88000000000E+00 0.  1.
        -11    1    4    4    0    0 -0.56920666321E-01 -0.72850837633E-02 -0.24481228707E-01  0.62390915844E-01  0.51100000000E-03 0.  1.
         11    1    4    4    0    0 -0.65029955602E-01 -0.80895640104E-02 -0.27197323099E-02  0.65589589389E-01  0.51100000000E-03 0. -1.
</event>
<event>
 8    1  0.1101883E+005  0.1043930E+01  0.7957747E-01            NaN
         13   -1    0    0    0    0  0.00000000000E+00  0.00000000000E+00  0.74505805969E-08  0.10566000000E+00  0.10566000000E+00 0.  1.
     999900   -1    0    0    0    0 -0.00000000000E+00 -0.00000000000E+00 -0.74505805969E-08  0.93827000000E+00  0.93827000000E+00 0. -1.
     999902    2    1    2    0    0  0.11430033906E-01 -0.20032179132E-01 -0.17089996305E-02  0.10208030773E+01  0.10205410663E+01 0.  0.
     999903    2    3    3    0    0  0.98924355904E-01  0.48672552103E-01 -0.67883559927E-01  0.13133432069E+00  0.22033623479E-01 0.  0.
         14    1    1    2    0    0 -0.11430033906E-01  0.20032179132E-01  0.17089996305E-02  0.23126922744E-01  0.00000000000E+00 0.  1.
     999901    1    3    3    0    0 -0.87494321998E-01 -0.68704731235E-01  0.66174560296E-01  0.88946875657E+00  0.88000000000E+00 0.  1.
        -11    1    4    4    0    0  0.83219213128E-01  0.33736947466E-01 -0.61116049047E-01  0.10862343960E+00  0.51100000000E-03 0.  1.
         11    1    4    4    0    0  0.15705142776E-01  0.14935604637E-01 -0.67675108804E-02  0.22710881093E-01  0.51100000000E-03 0. -1.
</event>
<event>
 8    1  0.1101883E+005  0.1043930E+01  0.7957747E-01            NaN
         13   -1    0    0    0    0  0.00000000000E+00  0.00000000000E+00  0.74505805969E-08  0.10566000000E+00  0.10566000000E+00 0.  1.
     999900   -1    0    0    0    0 -0.00000000000E+00 -0.00000000000E+00 -0.74505805969E-08  0.93827000000E+00  0.93827000000E+00 0.  1.
     999902    2    1    2    0    0 -0.17151118919E-01 -0.15038219599E-01  0.38014995413E-02  0.10208051145E+01  0.10205431503E+01 0.  0.
     999903    2    3    3    0    0 -0.79881024294E-01  0.10130564603E+00  0.91768597151E-02  0.13091757636E+00  0.20282630187E-01 0.  0.
         14    1    1    2    0    0  0.17151118919E-01  0.15038219599E-01 -0.38014995413E-02  0.23124885462E-01  0.00000000000E+00 0.  1.
     999901    1    3    3    0    0  0.62729905374E-01 -0.11634386563E+00 -0.53753601738E-02  0.88988753817E+00  0.88000000000E+00 0. -1.
        -11    1    4    4    0    0 -0.61709456730E-01  0.87310152298E-01  0.22081866896E-02  0.10694043648E+00  0.51100000000E-03 0. -1.
         11    1    4    4    0    0 -0.18171567563E-01  0.13995493732E-01  0.69686730255E-02  0.23977139889E-01  0.51100000000E-03 0.  1.
</event>
<event>
 8    1  0.1101883E+005  0.1043930E+01  0.7957747E-01            NaN
         13   -1    0    0    0    0  0.00000000000E+00  0.00000000000E+00  0.74505805969E-08  0.10566000000E+00  0.10566000000E+00 0.  1.
     999900   -1    0    0    0    0 -0.00000000000E+00 -0.00000000000E+00 -0.74505805969E-08  0.93827000000E+00  0.93827000000E+00 0.  1.
     999902    2    1    2    0    0  0.20595955971E-01 -0.34318630557E-02 -0.11800872611E-01  0.10199460120E+01  0.10196639818E+01 0.  0.
     999903    2    3    3    0    0 -0.58020336941E-01  0.36948509654E-01  0.10580762327E+00  0.12773367498E+00  0.19725281183E-01 0.  0.
         14    1    1    2    0    0 -0.20595955971E-01  0.34318630557E-02  0.11800872611E-01  0.23983988008E-01  0.00000000000E+00 0.  1.
     999901    1    3    3    0    0  0.78616292912E-01 -0.40380372710E-01 -0.11760849588E+00  0.89221233701E+00  0.88000000000E+00 0.  1.
        -11    1    4    4    0    0 -0.49453828140E-01  0.25015429687E-01  0.71935174357E-01  0.90809599002E-01  0.51100000000E-03 0.  1.
         11    1    4    4    0    0 -0.85665088004E-02  0.11933079967E-01  0.33872448913E-01  0.36924075979E-01  0.51100000000E-03 0. -1.
</event>
<event>
 8    1  0.1101883E+005  0.1043930E+01  0.7957747E-01            NaN
         13   -1    0    0    0    0  0.00000000000E+00  0.00000000000E+00  0.74505805969E-08  0.10566000000E+00  0.10566000000E+00 0.  1.
     999900   -1    0    0    0    0 -0.00000000000E+00 -0.00000000000E+00 -0.74505805969E-08  0.93827000000E+00  0.93827000000E+00 0.  1.
     999902    2    1    2    0    0  0.12828263535E-01  0.11880507092E-01  0.15690294269E-01  0.10204375304E+01  0.10201670732E+01 0.  0.
     999903    2    3    3    0    0  0.24017258209E-01 -0.99850134885E-02  0.12878278085E+00  0.13286037593E+00  0.19757167395E-01 0.  0.
         14    1    1    2    0    0 -0.12828263535E-01 -0.11880507092E-01 -0.15690294269E-01  0.23492469609E-01  0.00000000000E+00 0. -1.
     999901    1    3    3    0    0 -0.11188994674E-01  0.21865520580E-01 -0.11309248658E+00  0.88757715446E+00  0.88000000000E+00 0.  1.
        -11    1    4    4    0    0  0.24360983480E-01 -0.19227971207E-02  0.91275113715E-01  0.94491069258E-01  0.51100000000E-03 0.  1.
         11    1    4    4    0    0 -0.34372527132E-03 -0.80622163679E-02  0.37507667136E-01  0.38369306676E-01  0.51100000000E-03 0. -1.
</event>
<event>
 8    1  0.1101883E+005  0.1043930E+01  0.7957747E-01            NaN
         13   -1    0    0    0    0  0.00000000000E+00  0.00000000000E+00  0.74505805969E-08  0.10566000000E+00  0.10566000000E+00 0. -1.
     999900   -1    0    0    0    0 -0.00000000000E+00 -0.00000000000E+00 -0.74505805969E-08  0.93827000000E+00  0.93827000000E+00 0. -1.
     999902    2    1    2    0    0 -0.22856941207E-01 -0.23691402359E-02  0.55735940300E-02  0.10202843336E+01  0.10200102960E+01 0.  0.
     999903    2    3    3    0    0 -0.34488267991E-01 -0.46690965809E-01 -0.11549349471E+00  0.13081429370E+00  0.20103362913E-01 0.  0.
         14    1    1    2    0    0  0.22856941207E-01  0.23691402359E-02 -0.55735940300E-02  0.23645666351E-01  0.00000000000E+00 0.  1.
     999901    1    3    3    0    0  0.11631326784E-01  0.44321825573E-01  0.12106708874E+00  0.88947003995E+00  0.88000000000E+00 0.  1.
        -11    1    4    4    0    0 -0.36153043342E-01 -0.37573363535E-01 -0.98489271579E-01  0.11144145516E+00  0.51100000000E-03 0.  1.
         11    1    4    4    0    0  0.16647753511E-02 -0.91176022743E-02 -0.17004223128E-01  0.19372838548E-01  0.51100000000E-03 0. -1.
</event>
<event>
 7    1  0.1101883E+005  0.1043930E+01  0.7957747E-01            NaN
         13   -1    0    0    0    0  0.00000000000E+00  0.00000000000E+00  0.74505805969E-08  0.10566000000E+00  0.10566000000E+00 0.  1.
     999900   -1    0    0    0    0 -0.00000000000E+00 -0.00000000000E+00 -0.74505805969E-08  0.93827000000E+00  0.93827000000E+00 0. -1.
     999903    2    1    2    0    0 -0.94511306776E-01 -0.42956231537E-02  0.45546806799E-01  0.10693878435E+00  0.20262095213E-01 0.  0.
         14    1    1    2    0    0 -0.14886660596E-01 -0.16829745223E-01  0.39970491921E-01  0.45852952058E-01  0.00000000000E+00 0.  1.
     999901    1    1    2    0    0  0.10939796737E+00  0.21125368376E-01 -0.85517298720E-01  0.89113826359E+00  0.88000000000E+00 0. -1.
        -11    1    3    3    0    0 -0.37142624203E-01 -0.11495490651E-01  0.19988751303E-01  0.43721072009E-01  0.51100000000E-03 0.  1.
         11    1    3    3    0    0 -0.57368682573E-01  0.71998674976E-02  0.25558055495E-01  0.63217712343E-01  0.51100000000E-03 0. -1.
</event>
<event>
 8    1  0.1101883E+005  0.1043930E+01  0.7957747E-01            NaN
         13   -1    0    0    0    0  0.00000000000E+00  0.00000000000E+00  0.74505805969E-08  0.10566000000E+00  0.10566000000E+00 0.  1.
     999900   -1    0    0    0    0 -0.00000000000E+00 -0.00000000000E+00 -0.74505805969E-08  0.93827000000E+00  0.93827000000E+00 0. -1.
     999902    2    1    2    0    0 -0.47834845466E-02  0.20819470654E-01 -0.10510981069E-01  0.10201221692E+01  0.10198443153E+01 0.  0.
     999903    2    3    3    0    0  0.10667475389E+00 -0.53430034028E-01 -0.45500201821E-01  0.12930222478E+00  0.20359894741E-01 0.  0.
         14    1    1    2    0    0  0.47834845466E-02 -0.20819470654E-01  0.10510981069E-01  0.23807830765E-01  0.00000000000E+00 0. -1.
     999901    1    3    3    0    0 -0.11145823844E+00  0.74249504682E-01  0.34989220753E-01  0.89081994445E+00  0.88000000000E+00 0.  1.
        -11    1    4    4    0    0  0.97731736112E-01 -0.42925985500E-01 -0.36454439584E-01  0.11279769395E+00  0.51100000000E-03 0. -1.
         11    1    4    4    0    0  0.89430177815E-02 -0.10504048528E-01 -0.90457622370E-02  0.16504530832E-01  0.51100000000E-03 0.  1.
</event>
<event>
 8    1  0.1101883E+005  0.1043930E+01  0.7957747E-01            NaN
         13   -1    0    0    0    0  0.00000000000E+00  0.00000000000E+00  0.74505805969E-08  0.10566000000E+00  0.10566000000E+00 0.  1.
     999900   -1    0    0    0    0 -0.00000000000E+00 -0.00000000000E+00 -0.74505805969E-08  0.93827000000E+00  0.93827000000E+00 0. -1.
     999902    2    1    2    0    0 -0.21978623748E-01  0.73621921653E-02 -0.16275903552E-02  0.10206940187E+01  0.10204295022E+01 0.  0.
     999903    2    3    3    0    0 -0.25441603008E-02  0.77442057384E-01  0.10410875737E+00  0.13138582631E+00  0.20490412126E-01 0.  0.
         14    1    1    2    0    0  0.21978623748E-01 -0.73621921653E-02  0.16275903552E-02  0.23235981273E-01  0.00000000000E+00 0.  1.
     999901    1    3    3    0    0 -0.19434463447E-01 -0.70079865218E-01 -0.10573634773E+00  0.88930819242E+00  0.88000000000E+00 0. -1.
        -11    1    4    4    0    0  0.19834739681E-02  0.31042010893E-01  0.57983034934E-01  0.65801474683E-01  0.51100000000E-03 0.  1.
         11    1    4    4    0    0 -0.45276342689E-02  0.46400046490E-01  0.46125722438E-01  0.65584351623E-01  0.51100000000E-03 0. -1.
</event>
<event>
 8    1  0.1101883E+005  0.1043930E+01  0.7957747E-01            NaN
         13   -1    0    0    0    0  0.00000000000E+00  0.00000000000E+00  0.74505805969E-08  0.10566000000E+00  0.10566000000E+00 0.  1.
     999900   -1    0    0    0    0 -0.00000000000E+00 -0.00000000000E+00 -0.74505805969E-08  0.93827000000E+00  0.93827000000E+00 0. -1.
     999902    2    1    2    0    0 -0.78307850617E-02  0.21240275980E-01  0.45067436542E-02  0.10208479451E+01  0.10205869614E+01 0.  0.
     999903    2    3    3    0    0  0.50367471558E-02 -0.13050716148E-01  0.12905437328E+00  0.13132360170E+00  0.19878809960E-01 0.  0.
         14    1    1    2    0    0  0.78307850617E-02 -0.21240275980E-01 -0.45067436542E-02  0.23082054864E-01  0.00000000000E+00 0.  1.
     999901    1    3    3    0    0 -0.12867532218E-01  0.34290992128E-01 -0.12454762963E+00  0.88952434344E+00  0.88000000000E+00 0. -1.
        -11    1    4    4    0    0 -0.28889932456E-02 -0.13533817428E-01  0.50403235442E-01  0.52271003053E-01  0.51100000000E-03 0.  1.
         11    1    4    4    0    0  0.79257404015E-02  0.48310127977E-03  0.78651137839E-01  0.79052598643E-01  0.51100000000E-03 0. -1.
</event>
<event>
 8    1  0.1101883E+005  0.1043930E+01  0.7957747E-01            NaN
         13   -1    0    0    0    0  0.00000000000E+00  0.00000000000E+00  0.74505805969E-08  0.10566000000E+00  0.10566000000E+00 0.  1.
     999900   -1    0    0    0    0 -0.00000000000E+00 -0.00000000000E+00 -0.74505805969E-08  0.93827000000E+00  0.93827000000E+00 0.  1.
     999902    2    1    2    0    0  0.50161188666E-02  0.24828313133E-02  0.23048823030E-01  0.10202113545E+01  0.10199356028E+01 0.  0.
     999903    2    3    3    0    0 -0.75930133006E-01 -0.11538859895E-01  0.10602348461E+00  0.13249873325E+00  0.20405995169E-01 0.  0.
         14    1    1    2    0    0 -0.50161188666E-02 -0.24828313133E-02 -0.23048823030E-01  0.23718645469E-01  0.00000000000E+00 0. -1.
     999901    1    3    3    0    0  0.80946251873E-01  0.14021691208E-01 -0.82974661576E-01  0.88771262128E+00  0.88000000000E+00 0. -1.
        -11    1    4    4    0    0 -0.47976285715E-01  0.78710389849E-03  0.54664848750E-01  0.72738231581E-01  0.51100000000E-03 0. -1.
         11    1    4    4    0    0 -0.27953847290E-01 -0.12325963793E-01  0.51358635856E-01  0.59760501670E-01  0.51100000000E-03 0.  1.
</event>
<event>
 8    1  0.1101883E+005  0.1043930E+01  0.7957747E-01            NaN
         13   -1    0    0    0    0  0.00000000000E+00  0.00000000000E+00  0.74505805969E-08  0.10566000000E+00  0.10566000000E+00 0.  1.
     999900   -1    0    0    0    0 -0.00000000000E+00 -0.00000000000E+00 -0.74505805969E-08  0.93827000000E+00  0.93827000000E+00 0. -1.
     999902    2    1    2    0    0  0.61579370010E-02 -0.14292560939E-01  0.17759983376E-01  0.10203161376E+01  0.10200428453E+01 0.  0.
     999903    2    3    3    0    0 -0.38536983630E-01 -0.75564603915E-01  0.10058079572E+00  0.13317962833E+00  0.20620583496E-01 0.  0.
         14    1    1    2    0    0 -0.61579370010E-02  0.14292560939E-01 -0.17759983376E-01  0.23613862365E-01  0.00000000000E+00 0. -1.
     999901    1    3    3    0    0  0.44694920631E-01  0.61272042975E-01 -0.82820812340E-01  0.88713650930E+00  0.88000000000E+00 0. -1.
        -11    1    4    4    0    0 -0.12849120775E-01 -0.46860235309E-01  0.51855022502E-01  0.71064660961E-01  0.51100000000E-03 0. -1.
         11    1    4    4    0    0 -0.25687862856E-01 -0.28704368606E-01  0.48725773214E-01  0.62114967371E-01  0.51100000000E-03 0.  1.
</event>
<event>
 7    1  0.1101883E+005  0.1043930E+01  0.7957747E-01            NaN
         13   -1    0    0    0    0  0.00000000000E+00  0.00000000000E+00  0.74505805969E-08  0.10566000000E+00  0.10566000000E+00 0.  1.
     999900   -1    0    0    0    0 -0.00000000000E+00 -0.00000000000E+00 -0.74505805969E-08  0.93827000000E+00  0.93827000000E+00 0.  1.
     999903    2    1    2    0    0 -0.80479767744E-03  0.31866942985E-01 -0.88560870412E-01  0.96392448375E-01  0.20792464527E-01 0.  0.
         14    1    1    2    0    0 -0.22356969357E-01  0.41837946456E-01 -0.30156964365E-01  0.56211122940E-01  0.00000000000E+00 0. -1.
     999901    1    1    2    0    0  0.23161767034E-01 -0.73704889440E-01  0.11871783478E+00  0.89132642869E+00  0.88000000000E+00 0. -1.
        -11    1    3    3    0    0  0.86941322755E-02  0.12644372998E-01 -0.49554157626E-01  0.51878162685E-01  0.51100000000E-03 0.  1.
         11    1    3    3    0    0 -0.94989299529E-02  0.19222569986E-01 -0.39006712785E-01  0.44514285690E-01  0.51100000000E-03 0. -1.
</event>
<event>
 8    1  0.1101883E+005  0.1043930E+01  0.7957747E-01            NaN
         13   -1    0    0    0    0  0.00000000000E+00  0.00000000000E+00  0.74505805969E-08  0.10566000000E+00  0.10566000000E+00 0.  1.
     999900   -1    0    0    0    0 -0.00000000000E+00 -0.00000000000E+00 -0.74505805969E-08  0.93827000000E+00  0.93827000000E+00 0.  1.
     999902    2    1    2    0    0 -0.19072116974E-01 -0.14497866237E-01 -0.52318277283E-02  0.10194084627E+01  0.10191134912E+01 0.  0.
     999903    2    3    3    0    0  0.31504394576E-01  0.17838191915E-01  0.12157925076E+00  0.12829418616E+00  0.19161315704E-01 0.  0.
         14    1    1    2    0    0  0.19072116974E-01  0.14497866237E-01  0.52318277283E-02  0.24521537323E-01  0.00000000000E+00 0.  1.
     999901    1    3    3    0    0 -0.50576511550E-01 -0.32336058151E-01 -0.12681107849E+00  0.89111427651E+00  0.88000000000E+00 0.  1.
        -11    1    4    4    0    0  0.17165509756E-01 -0.96305969688E-03  0.55908622897E-01  0.58494593292E-01  0.51100000000E-03 0.  1.
         11    1    4    4    0    0  0.14338884820E-01  0.18801251611E-01  0.65670627864E-01  0.69799592872E-01  0.51100000000E-03 0. -1.
</event>
<event>
 8    1  0.1101883E+005  0.1043930E+01  0.7957747E-01            NaN
         13   -1    0    0    0    0  0.00000000000E+00  0.00000000000E+00  0.74505805969E-08  0.10566000000E+00  0.10566000000E+00 0.  1.
     999900   -1    0    0    0    0 -0.00000000000E+00 -0.00000000000E+00 -0.74505805969E-08  0.93827000000E+00  0.93827000000E+00 0. -1.
     999902    2    1    2    0    0  0.23741494140E-01  0.55081788061E-03 -0.83317364067E-02  0.10187629625E+01  0.10184520578E+01 0.  0.
     999903    2    3    3    0    0 -0.60584960342E-01 -0.10706861854E+00  0.26089018807E-01  0.12754038514E+00  0.21252916161E-01 0.  0.
         14    1    1    2    0    0 -0.23741494140E-01 -0.55081788061E-03  0.83317364067E-02  0.25167037487E-01  0.00000000000E+00 0. -1.
     999901    1    3    3    0    0  0.84326454482E-01  0.10761943642E+00 -0.34420755213E-01  0.89122257737E+00  0.88000000000E+00 0. -1.
        -11    1    4    4    0    0 -0.47266144317E-01 -0.63335569476E-01  0.14131812217E-01  0.80283572398E-01  0.51100000000E-03 0.  1.
         11    1    4    4    0    0 -0.13318816025E-01 -0.43733049062E-01  0.11957206589E-01  0.47256812747E-01  0.51100000000E-03 0. -1.
</event>
<event>
 8    1  0.1101883E+005  0.1043930E+01  0.7957747E-01            NaN
         13   -1    0    0    0    0  0.00000000000E+00  0.00000000000E+00  0.74505805969E-08  0.10566000000E+00  0.10566000000E+00 0.  1.
     999900   -1    0    0    0    0 -0.00000000000E+00 -0.00000000000E+00 -0.74505805969E-08  0.93827000000E+00  0.93827000000E+00 0.  1.
     999902    2    1    2    0    0 -0.19063859633E-01 -0.99946815889E-02  0.10372392575E-01  0.10200362575E+01  0.10197563707E+01 0.  0.
     999903    2    3    3    0    0  0.10299460104E+00 -0.74214694334E-01 -0.11272901268E-01  0.12903064773E+00  0.20152445312E-01 0.  0.
         14    1    1    2    0    0  0.19063859633E-01  0.99946815889E-02 -0.10372392575E-01  0.23893742526E-01  0.00000000000E+00 0. -1.
     999901    1    3    3    0    0 -0.12205846067E+00  0.64220012745E-01  0.21645293843E-01  0.89100560975E+00  0.88000000000E+00 0.  1.
        -11    1    4    4    0    0  0.22105458176E-01 -0.12956352539E-01  0.54292841132E-02  0.26196499752E-01  0.51100000000E-03 0. -1.
         11    1    4    4    0    0  0.80889142860E-01 -0.61258341794E-01 -0.16702185381E-01  0.10283414797E+00  0.51100000000E-03 0.  1.
</event>
<event>
 8    1  0.1101883E+005  0.1043930E+01  0.7957747E-01            NaN
         13   -1    0    0    0    0  0.00000000000E+00  0.00000000000E+00  0.74505805969E-08  0.10566000000E+00  0.10566000000E+00 0. -1.
     999900   -1    0    0    0    0 -0.00000000000E+00 -0.00000000000E+00 -0.74505805969E-08  0.93827000000E+00  0.93827000000E+00 0. -1.
     999902    2    1    2    0    0  0.19588518261E-01 -0.59936483023E-02 -0.11000250340E-01  0.10206783468E+01  0.10204134693E+01 0.  0.
     999903    2    3    3    0    0 -0.12884862339E-01 -0.56547269734E-01 -0.11724243363E+00  0.13225412913E+00  0.19538501409E-01 0.  0.
         14    1    1    2    0    0 -0.19588518261E-01  0.59936483023E-02  0.11000250340E-01  0.23251653171E-01  0.00000000000E+00 0. -1.
     999901    1    3    3    0    0  0.32473380601E-01  0.50553621432E-01  0.10624218329E+00  0.88842421770E+00  0.88000000000E+00 0.  1.
        -11    1    4    4    0    0 -0.99128836123E-03 -0.42340564103E-01 -0.75208524777E-01  0.86315058602E-01  0.51100000000E-03 0. -1.
         11    1    4    4    0    0 -0.11893573978E-01 -0.14206705631E-01 -0.42033908848E-01  0.45939070527E-01  0.51100000000E-03 0.  1.
</event>
<event>
 8    1  0.1101883E+005  0.1043930E+01  0.7957747E-01            NaN
         13   -1    0    0    0    0  0.00000000000E+00  0.00000000000E+00  0.74505805969E-08  0.10566000000E+00  0.10566000000E+00 0.  1.
     999900   -1    0    0    0    0 -0.00000000000E+00 -0.00000000000E+00 -0.74505805969E-08  0.93827000000E+00  0.93827000000E+00 0. -1.
     999902    2    1    2    0    0  0.70879806681E-02  0.22276111498E-01  0.31491838171E-02  0.10203422495E+01  0.10200695683E+01 0.  0.
     999903    2    3    3    0    0 -0.51740061670E-01  0.71534174280E-01  0.96315009389E-01  0.13210412472E+00  0.19512730799E-01 0.  0.
         14    1    1    2    0    0 -0.70879806681E-02 -0.22276111498E-01 -0.31491838171E-02  0.23587750468E-01  0.00000000000E+00 0. -1.
     999901    1    3    3    0    0  0.58828042338E-01 -0.49258062782E-01 -0.93165825571E-01  0.88823812481E+00  0.88000000000E+00 0. -1.
        -11    1    4    4    0    0 -0.34738817653E-01  0.38838220122E-01  0.67764115592E-01  0.85483502953E-01  0.51100000000E-03 0.  1.
         11    1    4    4    0    0 -0.17001244016E-01  0.32695954158E-01  0.28550893796E-01  0.46620621767E-01  0.51100000000E-03 0. -1.
</event>
<event>
 8    1  0.1101883E+005  0.1043930E+01  0.7957747E-01            NaN
         13   -1    0    0    0    0  0.00000000000E+00  0.00000000000E+00  0.74505805969E-08  0.10566000000E+00  0.10566000000E+00 0. -1.
     999900   -1    0    0    0    0 -0.00000000000E+00 -0.00000000000E+00 -0.74505805969E-08  0.93827000000E+00  0.93827000000E+00 0. -1.
     999902    2    1    2    0    0 -0.10954519087E-01  0.15314313576E-01  0.14844346365E-01  0.10199532549E+01  0.10196713970E+01 0.  0.
     999903    2    3    3    0    0  0.55860839482E-01  0.11590480753E+00  0.20620515422E-01  0.13168747045E+00  0.19026991944E-01 0.  0.
         14    1    1    2    0    0  0.10954519087E-01 -0.15314313576E-01 -0.14844346365E-01  0.23976745145E-01  0.00000000000E+00 0.  1.
     999901    1    3    3    0    0 -0.66815358568E-01 -0.10059049395E+00 -0.57761690572E-02  0.88826578440E+00  0.88000000000E+00 0. -1.
        -11    1    4    4    0    0  0.42229976844E-01  0.71030308167E-01  0.74555964063E-02  0.82973023697E-01  0.51100000000E-03 0.  1.
         11    1    4    4    0    0  0.13630862637E-01  0.44874499359E-01  0.13164919016E-01  0.48714446755E-01  0.51100000000E-03 0. -1.
</event>
<event>
 8    1  0.1101883E+005  0.1043930E+01  0.7957747E-01            NaN
         13   -1    0    0    0    0  0.00000000000E+00  0.00000000000E+00  0.74505805969E-08  0.10566000000E+00  0.10566000000E+00 0.  1.
     999900   -1    0    0    0    0 -0.00000000000E+00 -0.00000000000E+00 -0.74505805969E-08  0.93827000000E+00  0.93827000000E+00 0. -1.
     999902    2    1    2    0    0  0.21712227775E-01 -0.59566570112E-02  0.16806804686E-03  0.10214148752E+01  0.10211666938E+01 0.  0.
     999903    2    3    3    0    0  0.43509189918E-01  0.21283208916E-01 -0.12147143833E+00  0.13236297156E+00  0.20460237588E-01 0.  0.
         14    1    1    2    0    0 -0.21712227775E-01  0.59566570112E-02 -0.16806804686E-03  0.22515124796E-01  0.00000000000E+00 0.  1.
     999901    1    3    3    0    0 -0.21796962144E-01 -0.27239865928E-01  0.12163950638E+00  0.88905190364E+00  0.88000000000E+00 0.  1.
        -11    1    4    4    0    0  0.31810495186E-01  0.84659441435E-02 -0.96406569175E-01  0.10187280067E+00  0.51100000000E-03 0. -1.
         11    1    4    4    0    0  0.11698694732E-01  0.12817264773E-01 -0.25064869155E-01  0.30490170899E-01  0.51100000000E-03 0.  1.
</event>
<event>
 8    1  0.1101883E+005  0.1043930E+01  0.7957747E-01            NaN
         13   -1    0    0    0    0  0.00000000000E+00  0.00000000000E+00  0.74505805969E-08  0.10566000000E+00  0.10566000000E+00 0.  1.
     999900   -1    0    0    0    0 -0.00000000000E+00 -0.00000000000E+00 -0.74505805969E-08  0.93827000000E+00  0.93827000000E+00 0. -1.
     999902    2    1    2    0    0 -0.49396327088E-02  0.18662826555E-02  0.21569417571E-01  0.10217236325E+01  0.10214822850E+01 0.  0.
     999903    2    3    3    0    0 -0.29943951190E-02 -0.70347106719E-01 -0.10693849082E+00  0.12946086849E+00  0.19146640058E-01 0.  0.
         14    1    1    2    0    0  0.49396327088E-02 -0.18662826555E-02 -0.21569417571E-01  0.22206367479E-01  0.00000000000E+00 0. -1.
     999901    1    3    3    0    0 -0.19452375898E-02  0.72213389375E-01  0.12850790839E+00  0.89226276403E+00  0.88000000000E+00 0.  1.
        -11    1    4    4    0    0 -0.61290815958E-03 -0.16310135796E-01 -0.12259504967E-01  0.20419421371E-01  0.51100000000E-03 0. -1.
         11    1    4    4    0    0 -0.23814869594E-02 -0.54036970923E-01 -0.94678985854E-01  0.10904144712E+00  0.51100000000E-03 0.  1.
</event>
<event>
 8    1  0.1101883E+005  0.1043930E+01  0.7957747E-01            NaN
         13   -1    0    0    0    0  0.00000000000E+00  0.00000000000E+00  0.74505805969E-08  0.10566000000E+00  0.10566000000E+00 0. -1.
     999900   -1    0    0    0    0 -0.00000000000E+00 -0.00000000000E+00 -0.74505805969E-08  0.93827000000E+00  0.93827000000E+00 0.  1.
     999902    2    1    2    0    0  0.16484204002E-02 -0.20081159534E-01 -0.12815433633E-01  0.10200510219E+01  0.10197714850E+01 0.  0.
     999903    2    3    3    0    0  0.12427669228E+00 -0.11023059882E-01  0.32665765415E-01  0.13033855049E+00  0.18838296642E-01 0.  0.
         14    1    1    2    0    0 -0.16484204002E-02  0.20081159534E-01  0.12815433633E-01  0.23878978145E-01  0.00000000000E+00 0. -1.
     999901    1    3    3    0    0 -0.12262827188E+00 -0.90580996513E-02 -0.45481199048E-01  0.88971247136E+00  0.88000000000E+00 0.  1.
        -11    1    4    4    0    0  0.79836316839E-01 -0.15547025135E-01  0.17853917386E-01  0.83274071379E-01  0.51100000000E-03 0. -1.
         11    1    4    4    0    0  0.44440375442E-01  0.45239652527E-02  0.14811848029E-01  0.47064479112E-01  0.51100000000E-03 0.  1.
</event>
<event>
 8    1  0.1101883E+005  0.1043930E+01  0.7957747E-01            NaN
         13   -1    0    0    0    0  0.00000000000E+00  0.00000000000E+00  0.74505805969E-08  0.10566000000E+00  0.10566000000E+00 0.  1.
     999900   -1    0    0    0    0 -0.00000000000E+00 -0.00000000000E+00 -0.74505805969E-08  0.93827000000E+00  0.93827000000E+00 0.  1.
     999902    2    1    2    0    0 -0.17935590991E-01  0.85733185804E-02  0.13350147311E-01  0.10199839429E+01  0.10197028146E+01 0.  0.
     999903    2    3    3    0    0 -0.54284662282E-01 -0.10630065433E+00  0.49680843843E-01  0.13103107346E+00  0.21314368335E-01 0.  0.
         14    1    1    2    0    0  0.17935590991E-01 -0.85733185804E-02 -0.13350147311E-01  0.23946057064E-01  0.00000000000E+00 0.  1.
     999901    1    3    3    0    0  0.36349071291E-01  0.11487397291E+00 -0.36330696531E-01  0.88895286947E+00  0.88000000000E+00 0.  1.
        -11    1    4    4    0    0 -0.33200579310E-01 -0.70451123065E-01  0.42810659526E-01  0.88874365807E-01  0.51100000000E-03 0.  1.
         11    1    4    4    0    0 -0.21084082973E-01 -0.35849531265E-01  0.68701843172E-02  0.42156707654E-01  0.51100000000E-03 0. -1.
</event>
<event>
 8    1  0.1101883E+005  0.1043930E+01  0.7957747E-01            NaN
         13   -1    0    0    0    0  0.00000000000E+00  0.00000000000E+00  0.74505805969E-08  0.10566000000E+00  0.10566000000E+00 0.  1.
     999900   -1    0    0    0    0 -0.00000000000E+00 -0.00000000000E+00 -0.74505805969E-08  0.93827000000E+00  0.93827000000E+00 0. -1.
     999902    2    1    2    0    0  0.80413268191E-02  0.25505511279E-01  0.55156645532E-02  0.10166240190E+01  0.10162572408E+01 0.  0.
     999903    2    3    3    0    0 -0.33656472747E-01 -0.11365937138E-01  0.12072129232E+00  0.12737121644E+00  0.19694000964E-01 0.  0.
         14    1    1    2    0    0 -0.80413268191E-02 -0.25505511279E-01 -0.55156645532E-02  0.27305980994E-01  0.00000000000E+00 0. -1.
     999901    1    3    3    0    0  0.41697799566E-01  0.36871448416E-01 -0.11520562777E+00  0.88925280256E+00  0.88000000000E+00 0.  1.
        -11    1    4    4    0    0 -0.26795263955E-01 -0.16621837639E-01  0.86426297506E-01  0.92000204775E-01  0.51100000000E-03 0. -1.
         11    1    4    4    0    0 -0.68612087920E-02  0.52559005018E-02  0.34294994814E-01  0.35371011668E-01  0.51100000000E-03 0.  1.
</event>
<event>
 7    1  0.1101883E+005  0.1043930E+01  0.7957747E-01            NaN
         13   -1    0    0    0    0  0.00000000000E+00  0.00000000000E+00  0.74505805969E-08  0.10566000000E+00  0.10566000000E+00 0. -1.
     999900   -1    0    0    0    0 -0.00000000000E+00 -0.00000000000E+00 -0.74505805969E-08  0.93827000000E+00  0.93827000000E+00 0.  1.
     999902    2    1    2    0    0 -0.16436450760E-01  0.19200566677E-01  0.15557353640E-02  0.10186073029E+01  0.10182924917E+01 0.  0.
         14    1    1    2    0    0  0.16436450760E-01 -0.19200566677E-01 -0.15557353640E-02  0.25322697068E-01  0.00000000000E+00 0.  1.
     999901    1    3    3    0    0  0.92860156155E-01  0.58066970721E-01 -0.57018307856E-01  0.88862020522E+00  0.88000000000E+00 0.  1.
        -11    1    3    3    0    0 -0.45374411181E-01 -0.15465719099E-01  0.22783441348E-01  0.53078922163E-01  0.51100000000E-03 0.  1.
         11    1    3    3    0    0 -0.63922195734E-01 -0.23400684945E-01  0.35790601872E-01  0.76908175552E-01  0.51100000000E-03 0. -1.
</event>
<event>
 8    1  0.1101883E+005  0.1043930E+01  0.7957747E-01            NaN
         13   -1    0    0    0    0  0.00000000000E+00  0.00000000000E+00  0.74505805969E-08  0.10566000000E+00  0.10566000000E+00 0.  1.
     999900   -1    0    0    0    0 -0.00000000000E+00 -0.00000000000E+00 -0.74505805969E-08  0.93827000000E+00  0.93827000000E+00 0. -1.
     999902    2    1    2    0    0 -0.15341245506E-01 -0.27994318191E-02  0.17866463157E-01  0.10202150018E+01  0.10199393359E+01 0.  0.
     999903    2    3    3    0    0 -0.15756597744E-01  0.11149392985E+00  0.65096741829E-01  0.13156780285E+00  0.19832654477E-01 0.  0.
         14    1    1    2    0    0  0.15341245506E-01  0.27994318191E-02 -0.17866463157E-01  0.23714998164E-01  0.00000000000E+00 0. -1.
     999901    1    3    3    0    0  0.41535223802E-03 -0.11429336167E+00 -0.47230278672E-01  0.88864719898E+00  0.88000000000E+00 0. -1.
        -11    1    4    4    0    0 -0.25641323473E-02  0.77307664821E-01  0.39391392112E-01  0.86804335769E-01  0.51100000000E-03 0.  1.
         11    1    4    4    0    0 -0.13192465397E-01  0.34186265033E-01  0.25705349717E-01  0.44763467082E-01  0.51100000000E-03 0. -1.
</event>
<event>
 8    1  0.1101883E+005  0.1043930E+01  0.7957747E-01            NaN
         13   -1    0    0    0    0  0.00000000000E+00  0.00000000000E+00  0.74505805969E-08  0.10566000000E+00  0.10566000000E+00 0.  1.
     999900   -1    0    0    0    0 -0.00000000000E+00 -0.00000000000E+00 -0.74505805969E-08  0.93827000000E+00  0.93827000000E+00 0.  1.
     999902    2    1    2    0    0 -0.91235906079E-02 -0.21461373347E-01 -0.56397271901E-02  0.10199375642E+01  0.10196553329E+01 0.  0.
     999903    2    3    3    0    0 -0.12801111194E+00  0.20879987483E-01  0.32816989289E-02  0.13088940726E+00  0.17275668675E-01 0.  0.
         14    1    1    2    0    0  0.91235906079E-02  0.21461373347E-01  0.56397271901E-02  0.23992435772E-01  0.00000000000E+00 0.  1.
     999901    1    3    3    0    0  0.11888752133E+00 -0.42341360830E-01 -0.89214261190E-02  0.88904815697E+00  0.88000000000E+00 0.  1.
        -11    1    4    4    0    0 -0.62375446676E-01  0.28188673401E-02  0.62100625365E-02  0.62749249867E-01  0.51100000000E-03 0. -1.
         11    1    4    4    0    0 -0.65635665261E-01  0.18061120143E-01 -0.29283636076E-02  0.68140157393E-01  0.51100000000E-03 0.  1.
</event>
<event>
 8    1  0.1101883E+005  0.1043930E+01  0.7957747E-01            NaN
         13   -1    0    0    0    0  0.00000000000E+00  0.00000000000E+00  0.74505805969E-08  0.10566000000E+00  0.10566000000E+00 0.  1.
     999900   -1    0    0    0    0 -0.00000000000E+00 -0.00000000000E+00 -0.74505805969E-08  0.93827000000E+00  0.93827000000E+00 0.  1.
     999902    2    1    2    0    0  0.25926099299E-02 -0.21851987178E-01 -0.86663587778E-02  0.10202796989E+01  0.10200055525E+01 0.  0.
     999903    2    3    3    0    0  0.78789170842E-01  0.78795212288E-01  0.61021297557E-01  0.12854423130E+00  0.19585753049E-01 0.  0.
         14    1    1    2    0    0 -0.25926099299E-02  0.21851987178E-01  0.86663587778E-02  0.23650301147E-01  0.00000000000E+00 0.  1.
     999901    1    3    3    0    0 -0.76196560912E-01 -0.10064719947E+00 -0.69687656335E-01  0.89173546756E+00  0.88000000000E+00 0.  1.
        -11    1    4    4    0    0  0.53655658295E-01  0.47363983879E-01  0.29461708231E-01  0.77398514255E-01  0.51100000000E-03 0. -1.
         11    1    4    4    0    0  0.25133512546E-01  0.31431228409E-01  0.31559589326E-01  0.51145717041E-01  0.51100000000E-03 0.  1.
</event>
<event>
 8    1  0.1101883E+005  0.1043930E+01  0.7957747E-01            NaN
         13   -1    0    0    0    0  0.00000000000E+00  0.00000000000E+00  0.74505805969E-08  0.10566000000E+00  0.10566000000E+00 0. -1.
     999900   -1    0    0    0    0 -0.00000000000E+00 -0.00000000000E+00 -0.74505805969E-08  0.93827000000E+00  0.93827000000E+00 0.  1.
     999902    2    1    2    0    0 -0.12254226771E-01 -0.60467944483E-02  0.19937947995E-01  0.10197587037E+01  0.10194721978E+01 0.  0.
     999903    2    3    3    0    0  0.55694642179E-01 -0.40525062965E-01 -0.10545708599E+00  0.12760977307E+00  0.20466638727E-01 0.  0.
         14    1    1    2    0    0  0.12254226771E-01  0.60467944483E-02 -0.19937947995E-01  0.24171296347E-01  0.00000000000E+00 0.  1.
     999901    1    3    3    0    0 -0.67948868950E-01  0.34478268517E-01  0.12539503399E+00  0.89214893058E+00  0.88000000000E+00 0. -1.
        -11    1    4    4    0    0  0.13883793696E-01 -0.10539369925E-01 -0.44764996165E-01  0.48041690733E-01  0.51100000000E-03 0. -1.
         11    1    4    4    0    0  0.41810848483E-01 -0.29985693040E-01 -0.60692089829E-01  0.79568082337E-01  0.51100000000E-03 0.  1.
</event>
<event>
 7    1  0.1101883E+005  0.1043930E+01  0.7957747E-01            NaN
         13   -1    0    0    0    0  0.00000000000E+00  0.00000000000E+00  0.74505805969E-08  0.10566000000E+00  0.10566000000E+00 0. -1.
     999900   -1    0    0    0    0 -0.00000000000E+00 -0.00000000000E+00 -0.74505805969E-08  0.93827000000E+00  0.93827000000E+00 0.  1.
     999903    2    1    2    0    0 -0.31912446053E-03 -0.74154533332E-01  0.60513921578E-01  0.97790386034E-01  0.20050641933E-01 0.  0.
         14    1    1    2    0    0 -0.35081165539E-01  0.41221334744E-01  0.26980343835E-01  0.60479960046E-01  0.00000000000E+00 0. -1.
     999901    1    1    2    0    0  0.35400290000E-01  0.32933198587E-01 -0.87494265413E-01  0.88565965392E+00  0.88000000000E+00 0.  1.
        -11    1    3    3    0    0 -0.11557405907E-02 -0.52975970181E-01  0.30811711717E-01  0.61297731222E-01  0.51100000000E-03 0.  1.
         11    1    3    3    0    0  0.83661613017E-03 -0.21178563150E-01  0.29702209861E-01  0.36492654813E-01  0.51100000000E-03 0. -1.
</event>
<event>
 8    1  0.1101883E+005  0.1043930E+01  0.7957747E-01            NaN
         13   -1    0    0    0    0  0.00000000000E+00  0.00000000000E+00  0.74505805969E-08  0.10566000000E+00  0.10566000000E+00 0. -1.
     999900   -1    0    0    0    0 -0.00000000000E+00 -0.00000000000E+00 -0.74505805969E-08  0.93827000000E+00  0.93827000000E+00 0. -1.
     999902    2    1    2    0    0  0.46908870448E-02 -0.83519766062E-02  0.19356716642E-01  0.10223327221E+01  0.10221045701E+01 0.  0.
     999903    2    3    3    0    0 -0.56087243184E-01  0.77049356724E-02  0.12019119490E+00  0.13434657492E+00  0.19948282581E-01 0.  0.
         14    1    1    2    0    0 -0.46908870448E-02  0.83519766062E-02 -0.19356716642E-01  0.21597277922E-01  0.00000000000E+00 0.  1.
     999901    1    3    3    0    0  0.60778130229E-01 -0.16056912279E-01 -0.10083447826E+00  0.88798614716E+00  0.88000000000E+00 0. -1.
        -11    1    4    4    0    0 -0.51712216668E-01  0.11670420012E-01  0.98507896462E-01  0.11186786331E+00  0.51100000000E-03 0. -1.
         11    1    4    4    0    0 -0.43750265159E-02 -0.39654843393E-02  0.21683298440E-01  0.22478711602E-01  0.51100000000E-03 0.  1.
</event>
<event>
 8    1  0.1101883E+005  0.1043930E+01  0.7957747E-01            NaN
         13   -1    0    0    0    0  0.00000000000E+00  0.00000000000E+00  0.74505805969E-08  0.10566000000E+00  0.10566000000E+00 0.  1.
     999900   -1    0    0    0    0 -0.00000000000E+00 -0.00000000000E+00 -0.74505805969E-08  0.93827000000E+00  0.93827000000E+00 0. -1.
     999902    2    1    2    0    0  0.72408517825E-02  0.19394679815E-01  0.11228054331E-01  0.10203789333E+01  0.10201071094E+01 0.  0.
     999903    2    3    3    0    0 -0.10128535537E+00 -0.75822440974E-01 -0.83901828319E-02  0.12839848901E+00  0.20199283257E-01 0.  0.
         14    1    1    2    0    0 -0.72408517825E-02 -0.19394679815E-01 -0.11228054331E-01  0.23551066722E-01  0.00000000000E+00 0.  1.
     999901    1    3    3    0    0  0.10852620715E+00  0.95217120789E-01  0.19618237163E-01  0.89198044427E+00  0.88000000000E+00 0.  1.
        -11    1    4    4    0    0 -0.99773042018E-01 -0.74922904268E-01 -0.10947403574E-01  0.12525257787E+00  0.51100000000E-03 0. -1.
         11    1    4    4    0    0 -0.15123133520E-02 -0.89953670594E-03  0.25572207419E-02  0.31459111372E-02  0.51100000000E-03 0.  1.
</event>
<event>
 8    1  0.1101883E+005  0.1043930E+01  0.7957747E-01            NaN
         13   -1    0    0    0    0  0.00000000000E+00  0.00000000000E+00  0.74505805969E-08  0.10566000000E+00  0.10566000000E+00 0.  1.
     999900   -1    0    0    0    0 -0.00000000000E+00 -0.00000000000E+00 -0.74505805969E-08  0.93827000000E+00  0.93827000000E+00 0.  1.
     999902    2    1    2    0    0  0.33910483964E-02 -0.21549467839E-01 -0.17481123211E-01  0.10159752429E+01  0.10155905798E+01 0.  0.
     999903    2    3    3    0    0 -0.11066085328E+00 -0.19630229520E-02  0.55495421468E-01  0.12540405479E+00  0.19918766191E-01 0.  0.
         14    1    1    2    0    0 -0.33910483964E-02  0.21549467839E-01  0.17481123211E-01  0.27954757057E-01  0.00000000000E+00 0. -1.
     999901    1    3    3    0    0  0.11405190167E+00 -0.19586444887E-01 -0.72976544679E-01  0.89057118815E+00  0.88000000000E+00 0.  1.
        -11    1    4    4    0    0 -0.65390420425E-01 -0.86017591003E-02  0.25618928271E-01  0.70756539979E-01  0.51100000000E-03 0.  1.
         11    1    4    4    0    0 -0.45270432851E-01  0.66387361483E-02  0.29876493196E-01  0.54647514810E-01  0.51100000000E-03 0. -1.
</event>
<event>
 8    1  0.1101883E+005  0.1043930E+01  0.7957747E-01            NaN
         13   -1    0    0    0    0  0.00000000000E+00  0.00000000000E+00  0.74505805969E-08  0.10566000000E+00  0.10566000000E+00 0. -1.
     999900   -1    0    0    0    0 -0.00000000000E+00 -0.00000000000E+00 -0.74505805969E-08  0.93827000000E+00  0.93827000000E+00 0.  1.
     999902    2    1    2    0    0 -0.21533128126E-01 -0.77486709862E-02 -0.82111180020E-02  0.10196166299E+01  0.10193267052E+01 0.  0.
     999903    2    3    3    0    0 -0.88956266253E-01  0.19488975930E-01  0.92020939738E-01  0.13094670555E+00  0.19650670625E-01 0.  0.
         14    1    1    2    0    0  0.21533128126E-01  0.77486709862E-02  0.82111180020E-02  0.24313370144E-01  0.00000000000E+00 0.  1.
     999901    1    3    3    0    0  0.67423138127E-01 -0.27237646916E-01 -0.10023205774E+00  0.88866992430E+00  0.88000000000E+00 0.  1.
        -11    1    4    4    0    0 -0.27657052533E-01  0.11241815668E-02  0.39085086876E-01  0.47896570609E-01  0.51100000000E-03 0. -1.
         11    1    4    4    0    0 -0.61299213720E-01  0.18364794363E-01  0.52935852861E-01  0.83050134942E-01  0.51100000000E-03 0.  1.
</event>
<event>
 8    1  0.1101883E+005  0.1043930E+01  0.7957747E-01            NaN
         13   -1    0    0    0    0  0.00000000000E+00  0.00000000000E+00  0.74505805969E-08  0.10566000000E+00  0.10566000000E+00 0.  1.
     999900   -1    0    0    0    0 -0.00000000000E+00 -0.00000000000E+00 -0.74505805969E-08  0.93827000000E+00  0.93827000000E+00 0.  1.
     999902    2    1    2    0    0 -0.18138764691E-01  0.15527086132E-01 -0.31594797361E-02  0.10198449943E+01  0.10195605548E+01 0.  0.
     999903    2    3    3    0    0 -0.56414915352E-01 -0.10260469849E+00 -0.52426993394E-01  0.12976214974E+00  0.19474574226E-01 0.  0.
         14    1    1    2    0    0  0.18138764691E-01 -0.15527086132E-01  0.31594797361E-02  0.24085005718E-01  0.00000000000E+00 0.  1.
     999901    1    3    3    0    0  0.38276150661E-01  0.11813178463E+00  0.49267513657E-01  0.89008284454E+00  0.88000000000E+00 0.  1.
        -11    1    4    4    0    0 -0.14360299389E-02 -0.15965639753E-01 -0.83815502382E-02  0.18096279731E-01  0.51100000000E-03 0.  1.
         11    1    4    4    0    0 -0.54978885413E-01 -0.86639058741E-01 -0.44045443155E-01  0.11166587001E+00  0.51100000000E-03 0. -1.
</event>
<event>
 8    1  0.1101883E+005  0.1043930E+01  0.7957747E-01            NaN
         13   -1    0    0    0    0  0.00000000000E+00  0.00000000000E+00  0.74505805969E-08  0.10566000000E+00  0.10566000000E+00 0.  1.
     999900   -1    0    0    0    0 -0.00000000000E+00 -0.00000000000E+00 -0.74505805969E-08  0.93827000000E+00  0.93827000000E+00 0. -1.
     999902    2    1    2    0    0  0.35987237164E-02  0.47115710816E-02  0.22973045833E-01  0.10202042640E+01  0.10199283454E+01 0.  0.
     999903    2    3    3    0    0 -0.70411479129E-01 -0.22102719881E-01  0.10834715724E+00  0.13257525634E+00  0.19768295136E-01 0.  0.
         14    1    1    2    0    0 -0.35987237164E-02 -0.47115710816E-02 -0.22973045833E-01  0.23725736012E-01  0.00000000000E+00 0. -1.
     999901    1    3    3    0    0  0.74010202845E-01  0.26814290963E-01 -0.85374111403E-01  0.88762900765E+00  0.88000000000E+00 0. -1.
        -11    1    4    4    0    0 -0.11943488527E-01 -0.47219243170E-02  0.34357390713E-01  0.36682896629E-01  0.51100000000E-03 0.  1.
         11    1    4    4    0    0 -0.58467990601E-01 -0.17380795564E-01  0.73989766523E-01  0.95892359709E-01  0.51100000000E-03 0. -1.
</event>
<event>
 8    1  0.1101883E+005  0.1043930E+01  0.7957747E-01            NaN
         13   -1    0    0    0    0  0.00000000000E+00  0.00000000000E+00  0.74505805969E-08  0.10566000000E+00  0.10566000000E+00 0.  1.
     999900   -1    0    0    0    0 -0.00000000000E+00 -0.00000000000E+00 -0.74505805969E-08  0.93827000000E+00  0.93827000000E+00 0.  1.
     999902    2    1    2    0    0 -0.19939389646E-01  0.15671505682E-01 -0.36480882400E-02  0.10183080583E+01  0.10179856667E+01 0.  0.
     999903    2    3    3    0    0  0.56828567212E-01  0.89940857428E-01 -0.70751731142E-01  0.12931303315E+00  0.19930107803E-01 0.  0.
         14    1    1    2    0    0  0.19939389646E-01 -0.15671505682E-01  0.36480882400E-02  0.25621941722E-01  0.00000000000E+00 0.  1.
     999901    1    3    3    0    0 -0.76767956858E-01 -0.74269351747E-01  0.67103642902E-01  0.88899502513E+00  0.88000000000E+00 0. -1.
        -11    1    4    4    0    0  0.32104983149E-02  0.16608497021E-01 -0.15728569215E-01  0.23104079365E-01  0.51100000000E-03 0.  1.
         11    1    4    4    0    0  0.53618068897E-01  0.73332360407E-01 -0.55023161926E-01  0.10620895379E+00  0.51100000000E-03 0. -1.
</event>
<event>
 8    1  0.1101883E+005  0.1043930E+01  0.7957747E-01            NaN
         13   -1    0    0    0    0  0.00000000000E+00  0.00000000000E+00  0.74505805969E-08  0.10566000000E+00  0.10566000000E+00 0.  1.
     999900   -1    0    0    0    0 -0.00000000000E+00 -0.00000000000E+00 -0.74505805969E-08  0.93827000000E+00  0.93827000000E+00 0. -1.
     999902    2    1    2    0    0 -0.20336897935E-01 -0.93993630375E-02  0.11222898392E-03  0.10215257585E+01  0.10212800425E+01 0.  0.
     999903    2    3    3    0    0 -0.59376026254E-01 -0.11807029312E+00  0.58747492660E-02  0.13396357404E+00  0.21109710588E-01 0.  0.
         14    1    1    2    0    0  0.20336897935E-01  0.93993630375E-02 -0.11222898392E-03  0.22404241529E-01  0.00000000000E+00 0. -1.
     999901    1    3    3    0    0  0.39039128318E-01  0.10867093008E+00 -0.57625202821E-02  0.88756218443E+00  0.88000000000E+00 0.  1.
        -11    1    4    4    0    0 -0.43317007512E-01 -0.68863864326E-01 -0.31607439022E-02  0.81417727632E-01  0.51100000000E-03 0.  1.
         11    1    4    4    0    0 -0.16059018741E-01 -0.49206428791E-01  0.90354931682E-02  0.52545846412E-01  0.51100000000E-03 0. -1.
</event>
<event>
 8    1  0.1101883E+005  0.1043930E+01  0.7957747E-01            NaN
         13   -1    0    0    0    0  0.00000000000E+00  0.00000000000E+00  0.74505805969E-08  0.10566000000E+00  0.10566000000E+00 0.  1.
     999900   -1    0    0    0    0 -0.00000000000E+00 -0.00000000000E+00 -0.74505805969E-08  0.93827000000E+00  0.93827000000E+00 0.  1.
     999902    2    1    2    0    0  0.54110947858E-02 -0.15590370600E-01 -0.16350456329E-01  0.10206990503E+01  0.10204346497E+01 0.  0.
     999903    2    3    3    0    0 -0.37137171150E-01 -0.12538984232E+00  0.76509430312E-02  0.13253107851E+00  0.20103925072E-01 0.  0.
         14    1    1    2    0    0 -0.54110947858E-02  0.15590370600E-01  0.16350456329E-01  0.23230949709E-01  0.00000000000E+00 0.  1.
     999901    1    3    3    0    0  0.42548265936E-01  0.10979947172E+00 -0.24001399361E-01  0.88816797178E+00  0.88000000000E+00 0.  1.
        -11    1    4    4    0    0 -0.28401103219E-01 -0.62420991076E-01  0.71814103379E-02  0.68955322974E-01  0.51100000000E-03 0.  1.
         11    1    4    4    0    0 -0.87360679317E-02 -0.62968851246E-01  0.46953269333E-03  0.63575755537E-01  0.51100000000E-03 0. -1.
</event>
<event>
 8    1  0.1101883E+005  0.1043930E+01  0.7957747E-01            NaN
         13   -1    0    0    0    0  0.00000000000E+00  0.00000000000E+00  0.74505805969E-08  0.10566000000E+00  0.10566000000E+00 0.  1.
     999900   -1    0    0    0    0 -0.00000000000E+00 -0.00000000000E+00 -0.74505805969E-08  0.93827000000E+00  0.93827000000E+00 0.  1.
     999902    2    1    2    0    0  0.27982310527E-01 -0.20860087028E-01  0.77943919584E-02  0.10081682120E+01  0.10075337405E+01 0.  0.
     999903    2    3    3    0    0  0.15328561128E-01  0.11237001732E+00 -0.23861127969E-01  0.11748732078E+00  0.19285526635E-01 0.  0.
         14    1    1    2    0    0 -0.27982310527E-01  0.20860087028E-01 -0.77943919584E-02  0.35761787976E-01  0.00000000000E+00 0.  1.
     999901    1    3    3    0    0  0.12653749399E-01 -0.13323010435E+00  0.31655519927E-01  0.89068089124E+00  0.88000000000E+00 0. -1.
        -11    1    4    4    0    0 -0.26335006341E-03  0.66338467664E-01 -0.11415379847E-01  0.67315924293E-01  0.51100000000E-03 0. -1.
         11    1    4    4    0    0  0.15591911191E-01  0.46031549658E-01 -0.12445748121E-01  0.50171396491E-01  0.51100000000E-03 0.  1.
</event>
<event>
 8    1  0.1101883E+005  0.1043930E+01  0.7957747E-01            NaN
         13   -1    0    0    0    0  0.00000000000E+00  0.00000000000E+00  0.74505805969E-08  0.10566000000E+00  0.10566000000E+00 0. -1.
     999900   -1    0    0    0    0 -0.00000000000E+00 -0.00000000000E+00 -0.74505805969E-08  0.93827000000E+00  0.93827000000E+00 0. -1.
     999902    2    1    2    0    0 -0.20440084606E-01  0.52593072305E-02 -0.78055860286E-02  0.10214270103E+01  0.10211790993E+01 0.  0.
     999903    2    3    3    0    0  0.11648198970E+00  0.22915625516E-01  0.45853426532E-01  0.12904890120E+00  0.21398653222E-01 0.  0.
         14    1    1    2    0    0  0.20440084606E-01 -0.52593072305E-02  0.78055860286E-02  0.22502989679E-01  0.00000000000E+00 0.  1.
     999901    1    3    3    0    0 -0.13692207430E+00 -0.17656318285E-01 -0.53659012561E-01  0.89237810912E+00  0.88000000000E+00 0. -1.
        -11    1    4    4    0    0  0.31778846415E-01 -0.32847358285E-02  0.12932353316E-01  0.34470153063E-01  0.51100000000E-03 0.  1.
         11    1    4    4    0    0  0.84703143284E-01  0.26200361344E-01  0.32921073216E-01  0.94578748138E-01  0.51100000000E-03 0. -1.
</event>
<event>
 8    1  0.1101883E+005  0.1043930E+01  0.7957747E-01            NaN
         13   -1    0    0    0    0  0.00000000000E+00  0.00000000000E+00  0.74505805969E-08  0.10566000000E+00  0.10566000000E+00 0.  1.
     999900   -1    0    0    0    0 -0.00000000000E+00 -0.00000000000E+00 -0.74505805969E-08  0.93827000000E+00  0.93827000000E+00 0. -1.
     999902    2    1    2    0    0 -0.15109343528E-01 -0.12730034623E-01 -0.11068339192E-01  0.10212837161E+01  0.10210326021E+01 0.  0.
     999903    2    3    3    0    0  0.11037217178E+00 -0.29959155275E-02  0.63958816623E-01  0.12916856775E+00  0.20069799647E-01 0.  0.
         14    1    1    2    0    0  0.15109343528E-01  0.12730034623E-01  0.11068339192E-01  0.22646283929E-01  0.00000000000E+00 0. -1.
     999901    1    3    3    0    0 -0.12548151530E+00 -0.97341190950E-02 -0.75027155814E-01  0.89211514832E+00  0.88000000000E+00 0.  1.
        -11    1    4    4    0    0  0.36896238309E-01 -0.96039324269E-02  0.17238654158E-01  0.41844954745E-01  0.51100000000E-03 0. -1.
         11    1    4    4    0    0  0.73475933467E-01  0.66080168994E-02  0.46720162465E-01  0.87323613004E-01  0.51100000000E-03 0.  1.
</event>
<event>
 8    1  0.1101883E+005  0.1043930E+01  0.7957747E-01            NaN
         13   -1    0    0    0    0  0.00000000000E+00  0.00000000000E+00  0.74505805969E-08  0.10566000000E+00  0.10566000000E+00 0.  1.
     999900   -1    0    0    0    0 -0.00000000000E+00 -0.00000000000E+00 -0.74505805969E-08  0.93827000000E+00  0.93827000000E+00 0. -1.
     999902    2    1    2    0    0  0.17884814313E-01  0.84408215985E-02  0.13229034197E-01  0.10201366943E+01  0.10198591832E+01 0.  0.
     999903    2    3    3    0    0  0.76525798065E-01  0.83588840937E-01 -0.64003502655E-01  0.13162622469E+00  0.19639821167E-01 0.  0.
         14    1    1    2    0    0 -0.17884814313E-01 -0.84408215985E-02 -0.13229034197E-01  0.23793305740E-01  0.00000000000E+00 0. -1.
     999901    1    3    3    0    0 -0.58640983751E-01 -0.75148019339E-01  0.77232536852E-01  0.88851046957E+00  0.88000000000E+00 0.  1.
        -11    1    4    4    0    0  0.42334507319E-01  0.51314844867E-01 -0.47700318487E-01  0.81859668448E-01  0.51100000000E-03 0. -1.
         11    1    4    4    0    0  0.34191290745E-01  0.32273996071E-01 -0.16303184168E-01  0.49766556242E-01  0.51100000000E-03 0.  1.
</event>
<event>
 8    1  0.1101883E+005  0.1043930E+01  0.7957747E-01            NaN
         13   -1    0    0    0    0  0.00000000000E+00  0.00000000000E+00  0.74505805969E-08  0.10566000000E+00  0.10566000000E+00 0. -1.
     999900   -1    0    0    0    0 -0.00000000000E+00 -0.00000000000E+00 -0.74505805969E-08  0.93827000000E+00  0.93827000000E+00 0. -1.
     999902    2    1    2    0    0 -0.64515910203E-02  0.20379317128E-01  0.96893950207E-02  0.10204603607E+01  0.10201904351E+01 0.  0.
     999903    2    3    3    0    0 -0.97196244874E-01 -0.13526787985E-01 -0.83201960371E-01  0.13028452409E+00  0.20528200036E-01 0.  0.
         14    1    1    2    0    0  0.64515910203E-02 -0.20379317128E-01 -0.96893950207E-02  0.23469639307E-01  0.00000000000E+00 0.  1.
     999901    1    3    3    0    0  0.90744653854E-01  0.33906105113E-01  0.92891355392E-01  0.89017583660E+00  0.88000000000E+00 0.  1.
        -11    1    4    4    0    0 -0.50895340796E-01 -0.17630591774E-02 -0.31469935069E-01  0.59867036227E-01  0.51100000000E-03 0. -1.
         11    1    4    4    0    0 -0.46300904079E-01 -0.11763728807E-01 -0.51732025303E-01  0.70417487863E-01  0.51100000000E-03 0.  1.
</event>
<event>
 8    1  0.1101883E+005  0.1043930E+01  0.7957747E-01            NaN
         13   -1    0    0    0    0  0.00000000000E+00  0.00000000000E+00  0.74505805969E-08  0.10566000000E+00  0.10566000000E+00 0. -1.
     999900   -1    0    0    0    0 -0.00000000000E+00 -0.00000000000E+00 -0.74505805969E-08  0.93827000000E+00  0.93827000000E+00 0. -1.
     999902    2    1    2    0    0 -0.18706020140E-01 -0.74011461915E-02 -0.15280023986E-01  0.10186679477E+01  0.10183546614E+01 0.  0.
     999903    2    3    3    0    0  0.10901724461E+00  0.60099228156E-01  0.92253727784E-02  0.12655245775E+00  0.20826430630E-01 0.  0.
         14    1    1    2    0    0  0.18706020140E-01  0.74011461915E-02  0.15280023986E-01  0.25262052320E-01  0.00000000000E+00 0. -1.
     999901    1    3    3    0    0 -0.12772326475E+00 -0.67500374347E-01 -0.24505396764E-01  0.89211548993E+00  0.88000000000E+00 0. -1.
        -11    1    4    4    0    0  0.82609767333E-01  0.41672476760E-01 -0.17064988489E-02  0.92542650910E-01  0.51100000000E-03 0.  1.
         11    1    4    4    0    0  0.26407477279E-01  0.18426751396E-01  0.10931871627E-01  0.34009806843E-01  0.51100000000E-03 0. -1.
</event>
<event>
 8    1  0.1101883E+005  0.1043930E+01  0.7957747E-01            NaN
         13   -1    0    0    0    0  0.00000000000E+00  0.00000000000E+00  0.74505805969E-08  0.10566000000E+00  0.10566000000E+00 0. -1.
     999900   -1    0    0    0    0 -0.00000000000E+00 -0.00000000000E+00 -0.74505805969E-08  0.93827000000E+00  0.93827000000E+00 0. -1.
     999902    2    1    2    0    0 -0.17546527420E-01 -0.59785785599E-02 -0.14819191859E-01  0.10201974807E+01  0.10199214024E+01 0.  0.
     999903    2    3    3    0    0  0.92711736483E-01  0.86630521995E-01 -0.60502284404E-02  0.12845187514E+00  0.19051654556E-01 0.  0.
         14    1    1    2    0    0  0.17546527420E-01  0.59785785599E-02  0.14819191859E-01  0.23732519324E-01  0.00000000000E+00 0. -1.
     999901    1    3    3    0    0 -0.11025826390E+00 -0.92609100555E-01 -0.87689634185E-02  0.89174560553E+00  0.88000000000E+00 0.  1.
        -11    1    4    4    0    0  0.63600713367E-01  0.46789257524E-01 -0.32267794733E-02  0.79025050377E-01  0.51100000000E-03 0.  1.
         11    1    4    4    0    0  0.29111023116E-01  0.39841264472E-01 -0.28234489671E-02  0.49426824768E-01  0.51100000000E-03 0. -1.
</event>
<event>
 8    1  0.1101883E+005  0.1043930E+01  0.7957747E-01            NaN
         13   -1    0    0    0    0  0.00000000000E+00  0.00000000000E+00  0.74505805969E-08  0.10566000000E+00  0.10566000000E+00 0. -1.
     999900   -1    0    0    0    0 -0.00000000000E+00 -0.00000000000E+00 -0.74505805969E-08  0.93827000000E+00  0.93827000000E+00 0.  1.
     999902    2    1    2    0    0  0.67480251856E-02 -0.61722207946E-03 -0.23400365968E-01  0.10195682691E+01  0.10192771759E+01 0.  0.
     999903    2    3    3    0    0  0.12348025882E-01 -0.11185506479E+00  0.59279258928E-01  0.12870288190E+00  0.19656347782E-01 0.  0.
         14    1    1    2    0    0 -0.67480251856E-02  0.61722207946E-03  0.23400365968E-01  0.24361730941E-01  0.00000000000E+00 0. -1.
     999901    1    3    3    0    0 -0.56000006969E-02  0.11123784271E+00 -0.82679624896E-01  0.89086538716E+00  0.88000000000E+00 0.  1.
        -11    1    4    4    0    0 -0.13893667081E-02 -0.70165243354E-01  0.39759352445E-01  0.80660764580E-01  0.51100000000E-03 0.  1.
         11    1    4    4    0    0  0.13737392591E-01 -0.41689821439E-01  0.19519906483E-01  0.48042117323E-01  0.51100000000E-03 0. -1.
</event>
<event>
 7    1  0.1101883E+005  0.1043930E+01  0.7957747E-01            NaN
         13   -1    0    0    0    0  0.00000000000E+00  0.00000000000E+00  0.74505805969E-08  0.10566000000E+00  0.10566000000E+00 0. -1.
     999900   -1    0    0    0    0 -0.00000000000E+00 -0.00000000000E+00 -0.74505805969E-08  0.93827000000E+00  0.93827000000E+00 0. -1.
     999903    2    1    2    0    0  0.96391394218E-01 -0.55504732133E-02 -0.19534574102E-02  0.98587584644E-01  0.19839032686E-01 0.  0.
         14    1    1    2    0    0  0.47530930920E-01  0.16902213716E-01 -0.17415813596E-01  0.53368387514E-01  0.00000000000E+00 0. -1.
     999901    1    1    2    0    0 -0.14392232514E+00 -0.11351740503E-01  0.19369271006E-01  0.89197402784E+00  0.88000000000E+00 0.  1.
        -11    1    3    3    0    0  0.93778065165E-01 -0.89442637498E-02 -0.12264745421E-02  0.94213007175E-01  0.51100000000E-03 0. -1.
         11    1    3    3    0    0  0.26133290531E-02  0.33937905365E-02 -0.72698286808E-03  0.43745774694E-02  0.51100000000E-03 0.  1.
</event>
<event>
 8    1  0.1101883E+005  0.1043930E+01  0.7957747E-01            NaN
         13   -1    0    0    0    0  0.00000000000E+00  0.00000000000E+00  0.74505805969E-08  0.10566000000E+00  0.10566000000E+00 0.  1.
     999900   -1    0    0    0    0 -0.00000000000E+00 -0.00000000000E+00 -0.74505805969E-08  0.93827000000E+00  0.93827000000E+00 0.  1.
     999902    2    1    2    0    0 -0.85473893587E-02  0.16593926817E-01 -0.16479919755E-01  0.10190301199E+01  0.10187258617E+01 0.  0.
     999903    2    3    3    0    0  0.49166133697E-01  0.11869979525E+00 -0.19263190565E-01  0.13124399383E+00  0.18627004886E-01 0.  0.
         14    1    1    2    0    0  0.85473893587E-02 -0.16593926817E-01  0.16479919755E-01  0.24899880064E-01  0.00000000000E+00 0.  1.
     999901    1    3    3    0    0 -0.57713523056E-01 -0.10210586843E+00  0.27832708094E-02  0.88778612611E+00  0.88000000000E+00 0.  1.
        -11    1    4    4    0    0  0.43351734688E-01  0.86250223123E-01 -0.18342610324E-01  0.98260807872E-01  0.51100000000E-03 0. -1.
         11    1    4    4    0    0  0.58143990094E-02  0.32449572125E-01 -0.92058024070E-03  0.32983185957E-01  0.51100000000E-03 0.  1.
</event>
<event>
 8    1  0.1101883E+005  0.1043930E+01  0.7957747E-01            NaN
         13   -1    0    0    0    0  0.00000000000E+00  0.00000000000E+00  0.74505805969E-08  0.10566000000E+00  0.10566000000E+00 0. -1.
     999900   -1    0    0    0    0 -0.00000000000E+00 -0.00000000000E+00 -0.74505805969E-08  0.93827000000E+00  0.93827000000E+00 0. -1.
     999902    2    1    2    0    0  0.18193483311E-01 -0.13160902918E-01 -0.53119587986E-02  0.10208555746E+01  0.10205947654E+01 0.  0.
     999903    2    3    3    0    0  0.20562468543E-01 -0.11781658037E+00  0.53453546404E-01  0.13270479490E+00  0.21206584894E-01 0.  0.
         14    1    1    2    0    0 -0.18193483311E-01  0.13160902918E-01  0.53119587986E-02  0.23074425386E-01  0.00000000000E+00 0.  1.
     999901    1    3    3    0    0 -0.23689852313E-02  0.10465567745E+00 -0.58765505203E-01  0.88815077972E+00  0.88000000000E+00 0. -1.
        -11    1    4    4    0    0  0.73519330124E-02 -0.77873604646E-01  0.43366233627E-01  0.89438473598E-01  0.51100000000E-03 0.  1.
         11    1    4    4    0    0  0.13210535530E-01 -0.39942975722E-01  0.10087312777E-01  0.43266321297E-01  0.51100000000E-03 0. -1.
</event>
<event>
 8    1  0.1101883E+005  0.1043930E+01  0.7957747E-01            NaN
         13   -1    0    0    0    0  0.00000000000E+00  0.00000000000E+00  0.74505805969E-08  0.10566000000E+00  0.10566000000E+00 0. -1.
     999900   -1    0    0    0    0 -0.00000000000E+00 -0.00000000000E+00 -0.74505805969E-08  0.93827000000E+00  0.93827000000E+00 0.  1.
     999902    2    1    2    0    0 -0.13516196939E-01  0.15281332962E-01  0.12257920042E-01  0.10201295101E+01  0.10198518294E+01 0.  0.
     999903    2    3    3    0    0  0.39239035814E-01 -0.84180175209E-01  0.87521003711E-01  0.12976989849E+00  0.23543505108E-01 0.  0.
         14    1    1    2    0    0  0.13516196939E-01 -0.15281332962E-01 -0.12257920042E-01  0.23800489922E-01  0.00000000000E+00 0.  1.
     999901    1    3    3    0    0 -0.52755232753E-01  0.99461508170E-01 -0.75263083669E-01  0.89035961159E+00  0.88000000000E+00 0.  1.
        -11    1    4    4    0    0  0.13860487173E-01 -0.10124437202E-01  0.20259849646E-01  0.26558237178E-01  0.51100000000E-03 0.  1.
         11    1    4    4    0    0  0.25378548641E-01 -0.74055738007E-01  0.67261154065E-01  0.10321166131E+00  0.51100000000E-03 0. -1.
</event>
<event>
 8    1  0.1101883E+005  0.1043930E+01  0.7957747E-01            NaN
         13   -1    0    0    0    0  0.00000000000E+00  0.00000000000E+00  0.74505805969E-08  0.10566000000E+00  0.10566000000E+00 0. -1.
     999900   -1    0    0    0    0 -0.00000000000E+00 -0.00000000000E+00 -0.74505805969E-08  0.93827000000E+00  0.93827000000E+00 0.  1.
     999902    2    1    2    0    0  0.14260504126E-01 -0.37026405366E-02  0.16513103696E-01  0.10217996110E+01  0.10215599301E+01 0.  0.
     999903    2    3    3    0    0 -0.11914667294E+00 -0.16447209630E-01  0.48521021253E-01  0.13107832700E+00  0.18994681572E-01 0.  0.
         14    1    1    2    0    0 -0.14260504126E-01  0.37026405366E-02 -0.16513103696E-01  0.22130389029E-01  0.00000000000E+00 0.  1.
     999901    1    3    3    0    0  0.13340717707E+00  0.12744569094E-01 -0.32007917557E-01  0.89072128397E+00  0.88000000000E+00 0.  1.
        -11    1    4    4    0    0 -0.79117283802E-01 -0.19493011243E-01  0.35377807224E-01  0.88833397146E-01  0.51100000000E-03 0. -1.
         11    1    4    4    0    0 -0.40029389138E-01  0.30458016129E-02  0.13143214029E-01  0.42244929853E-01  0.51100000000E-03 0.  1.
</event>
<event>
 8    1  0.1101883E+005  0.1043930E+01  0.7957747E-01            NaN
         13   -1    0    0    0    0  0.00000000000E+00  0.00000000000E+00  0.74505805969E-08  0.10566000000E+00  0.10566000000E+00 0.  1.
     999900   -1    0    0    0    0 -0.00000000000E+00 -0.00000000000E+00 -0.74505805969E-08  0.93827000000E+00  0.93827000000E+00 0. -1.
     999902    2    1    2    0    0 -0.94066892474E-02  0.21602761901E-01  0.48146459805E-03  0.10203631391E+01  0.10200909463E+01 0.  0.
     999903    2    3    3    0    0 -0.17389651574E-04  0.12992719358E+00 -0.21657230076E-01  0.13339500932E+00  0.21074082743E-01 0.  0.
         14    1    1    2    0    0  0.94066892474E-02 -0.21602761901E-01 -0.48146459805E-03  0.23566860896E-01  0.00000000000E+00 0. -1.
     999901    1    3    3    0    0 -0.93892995958E-02 -0.10832443168E+00  0.22138694674E-01  0.88696812978E+00  0.88000000000E+00 0. -1.
        -11    1    4    4    0    0  0.58762159824E-02  0.12307434086E-01  0.21633562931E-04  0.13647872987E-01  0.51100000000E-03 0.  1.
         11    1    4    4    0    0 -0.58936056340E-02  0.11761975949E+00 -0.21678863639E-01  0.11974713634E+00  0.51100000000E-03 0. -1.
</event>
<event>
 8    1  0.1101883E+005  0.1043930E+01  0.7957747E-01            NaN
         13   -1    0    0    0    0  0.00000000000E+00  0.00000000000E+00  0.74505805969E-08  0.10566000000E+00  0.10566000000E+00 0. -1.
     999900   -1    0    0    0    0 -0.00000000000E+00 -0.00000000000E+00 -0.74505805969E-08  0.93827000000E+00  0.93827000000E+00 0. -1.
     999902    2    1    2    0    0 -0.12971554674E-02 -0.23186564131E-01 -0.60278656210E-02  0.10199376151E+01  0.10196553850E+01 0.  0.
     999903    2    3    3    0    0 -0.37309775870E-01 -0.94797871259E-01 -0.83520968397E-01  0.13290307852E+00  0.17573285036E-01 0.  0.
         14    1    1    2    0    0  0.12971554674E-02  0.23186564131E-01  0.60278656210E-02  0.23992384885E-01  0.00000000000E+00 0. -1.
     999901    1    3    3    0    0  0.36012620403E-01  0.71611307128E-01  0.77493102776E-01  0.88703453660E+00  0.88000000000E+00 0. -1.
        -11    1    4    4    0    0 -0.12804229902E-01 -0.51196645016E-01 -0.35806684020E-01  0.63776363222E-01  0.51100000000E-03 0. -1.
         11    1    4    4    0    0 -0.24505545968E-01 -0.43601226243E-01 -0.47714284377E-01  0.69126715297E-01  0.51100000000E-03 0.  1.
</event>
<event>
 8    1  0.1101883E+005  0.1043930E+01  0.7957747E-01            NaN
         13   -1    0    0    0    0  0.00000000000E+00  0.00000000000E+00  0.74505805969E-08  0.10566000000E+00  0.10566000000E+00 0. -1.
     999900   -1    0    0    0    0 -0.00000000000E+00 -0.00000000000E+00 -0.74505805969E-08  0.93827000000E+00  0.93827000000E+00 0.  1.
     999902    2    1    2    0    0 -0.16740362317E-01  0.12284417181E-01 -0.12584248501E-01  0.10196501741E+01  0.10193610585E+01 0.  0.
     999903    2    3    3    0    0 -0.63246253654E-01  0.11263857888E+00 -0.23067027915E-01  0.13266446712E+00  0.19499615571E-01 0.  0.
         14    1    1    2    0    0  0.16740362317E-01 -0.12284417181E-01  0.12584248501E-01  0.24279825912E-01  0.00000000000E+00 0. -1.
     999901    1    3    3    0    0  0.46505891337E-01 -0.10035416169E+00  0.10482779413E-01  0.88698570697E+00  0.88000000000E+00 0.  1.
        -11    1    4    4    0    0 -0.81357356995E-02  0.28917457364E-01 -0.95404334106E-02  0.31522857206E-01  0.51100000000E-03 0.  1.
         11    1    4    4    0    0 -0.55110517955E-01  0.83721121511E-01 -0.13526594504E-01  0.10114160991E+00  0.51100000000E-03 0. -1.
</event>
<event>
 8    1  0.1101883E+005  0.1043930E+01  0.7957747E-01            NaN
         13   -1    0    0    0    0  0.00000000000E+00  0.00000000000E+00  0.74505805969E-08  0.10566000000E+00  0.10566000000E+00 0. -1.
     999900   -1    0    0    0    0 -0.00000000000E+00 -0.00000000000E+00 -0.74505805969E-08  0.93827000000E+00  0.93827000000E+00 0. -1.
     999902    2    1    2    0    0  0.15434870809E-02 -0.23938298560E-01 -0.79668543943E-02  0.10186536225E+01  0.10183399763E+01 0.  0.
     999903    2    3    3    0    0  0.71289756560E-01  0.74056238147E-01 -0.73671413262E-01  0.12804452734E+00  0.20034172093E-01 0.  0.
         14    1    1    2    0    0 -0.15434870809E-02  0.23938298560E-01  0.79668543943E-02  0.25276377495E-01  0.00000000000E+00 0. -1.
     999901    1    3    3    0    0 -0.69746269479E-01 -0.97994536707E-01  0.65704558868E-01  0.89060909516E+00  0.88000000000E+00 0.  1.
        -11    1    4    4    0    0  0.51106739298E-01  0.39062923732E-01 -0.45141097418E-01  0.78586198593E-01  0.51100000000E-03 0. -1.
         11    1    4    4    0    0  0.20183017262E-01  0.34993314415E-01 -0.28530315844E-01  0.49458328749E-01  0.51100000000E-03 0.  1.
</event>
<event>
 8    1  0.1101883E+005  0.1043930E+01  0.7957747E-01            NaN
         13   -1    0    0    0    0  0.00000000000E+00  0.00000000000E+00  0.74505805969E-08  0.10566000000E+00  0.10566000000E+00 0.  1.
     999900   -1    0    0    0    0 -0.00000000000E+00 -0.00000000000E+00 -0.74505805969E-08  0.93827000000E+00  0.93827000000E+00 0.  1.
     999902    2    1    2    0    0 -0.15481682032E-01 -0.25800617878E-02 -0.17639641838E-01  0.10203186434E+01  0.10200454097E+01 0.  0.
     999903    2    3    3    0    0 -0.12428727822E+00  0.31287430671E-01  0.24273444821E-01  0.13198178630E+00  0.20093803662E-01 0.  0.
         14    1    1    2    0    0  0.15481682032E-01  0.25800617878E-02  0.17639641838E-01  0.23611356622E-01  0.00000000000E+00 0.  1.
     999901    1    3    3    0    0  0.10880559619E+00 -0.33867492459E-01 -0.41913086658E-01  0.88833685708E+00  0.88000000000E+00 0.  1.
        -11    1    4    4    0    0 -0.36693534032E-01  0.10271500043E-02  0.25808525513E-02  0.36802070564E-01  0.51100000000E-03 0.  1.
         11    1    4    4    0    0 -0.87593744191E-01  0.30260280667E-01  0.21692592269E-01  0.95179715737E-01  0.51100000000E-03 0. -1.
</event>
<event>
 8    1  0.1101883E+005  0.1043930E+01  0.7957747E-01            NaN
         13   -1    0    0    0    0  0.00000000000E+00  0.00000000000E+00  0.74505805969E-08  0.10566000000E+00  0.10566000000E+00 0. -1.
     999900   -1    0    0    0    0 -0.00000000000E+00 -0.00000000000E+00 -0.74505805969E-08  0.93827000000E+00  0.93827000000E+00 0. -1.
     999902    2    1    2    0    0 -0.12514480185E-01 -0.11444569596E-01 -0.16311394914E-01  0.10204001893E+01  0.10201288616E+01 0.  0.
     999903    2    3    3    0    0 -0.93428945923E-01  0.14324323397E-01  0.87214824890E-01  0.13027162286E+00  0.20739234891E-01 0.  0.
         14    1    1    2    0    0  0.12514480185E-01  0.11444569596E-01  0.16311394914E-01  0.23529810701E-01  0.00000000000E+00 0. -1.
     999901    1    3    3    0    0  0.80914465738E-01 -0.25768892993E-01 -0.10352621980E+00  0.89012856644E+00  0.88000000000E+00 0. -1.
        -11    1    4    4    0    0 -0.25790054269E-01  0.80861486024E-02  0.14163597339E-01  0.30518540414E-01  0.51100000000E-03 0. -1.
         11    1    4    4    0    0 -0.67638891654E-01  0.62381747944E-02  0.73051227551E-01  0.99753082442E-01  0.51100000000E-03 0.  1.
</event>
<event>
 8    1  0.1101883E+005  0.1043930E+01  0.7957747E-01            NaN
         13   -1    0    0    0    0  0.00000000000E+00  0.00000000000E+00  0.74505805969E-08  0.10566000000E+00  0.10566000000E+00 0.  1.
     999900   -1    0    0    0    0 -0.00000000000E+00 -0.00000000000E+00 -0.74505805969E-08  0.93827000000E+00  0.93827000000E+00 0.  1.
     999902    2    1    2    0    0 -0.10915423288E-02  0.23921529174E-01  0.57283348917E-03  0.10199767296E+01  0.10196954299E+01 0.  0.
     999903    2    3    3    0    0 -0.13092042966E-01 -0.12002775712E+00  0.36923985693E-01  0.12745960638E+00  0.17450113828E-01 0.  0.
         14    1    1    2    0    0  0.10915423288E-02 -0.23921529174E-01 -0.57283348917E-03  0.23953270359E-01  0.00000000000E+00 0. -1.
     999901    1    3    3    0    0  0.12000500638E-01  0.14394928629E+00 -0.36351152204E-01  0.89251712326E+00  0.88000000000E+00 0.  1.
        -11    1    4    4    0    0  0.30272260550E-02 -0.46291867438E-01  0.11301738274E-01  0.47750303638E-01  0.51100000000E-03 0.  1.
         11    1    4    4    0    0 -0.16119269021E-01 -0.73735889680E-01  0.25622247419E-01  0.79709302747E-01  0.51100000000E-03 0. -1.
</event>
<event>
 8    1  0.1101883E+005  0.1043930E+01  0.7957747E-01            NaN
         13   -1    0    0    0    0  0.00000000000E+00  0.00000000000E+00  0.74505805969E-08  0.10566000000E+00  0.10566000000E+00 0. -1.
     999900   -1    0    0    0    0 -0.00000000000E+00 -0.00000000000E+00 -0.74505805969E-08  0.93827000000E+00  0.93827000000E+00 0. -1.
     999902    2    1    2    0    0 -0.15531261094E-01 -0.18576011243E-01  0.27212193669E-02  0.10195641776E+01  0.10192729855E+01 0.  0.
     999903    2    3    3    0    0 -0.42173960319E-01 -0.27631442230E-01 -0.11895545891E+00  0.13074639637E+00  0.20051918358E-01 0.  0.
         14    1    1    2    0    0  0.15531261094E-01  0.18576011243E-01 -0.27212193669E-02  0.24365822369E-01  0.00000000000E+00 0.  1.
     999901    1    3    3    0    0  0.26642699226E-01  0.90554309867E-02  0.12167667828E+00  0.88881778126E+00  0.88000000000E+00 0.  1.
        -11    1    4    4    0    0 -0.31815882959E-01 -0.23976459866E-01 -0.69748393481E-01  0.80325715374E-01  0.51100000000E-03 0. -1.
         11    1    4    4    0    0 -0.10358077361E-01 -0.36549823634E-02 -0.49207065431E-01  0.50420680995E-01  0.51100000000E-03 0.  1.
</event>
<event>
 8    1  0.1101883E+005  0.1043930E+01  0.7957747E-01            NaN
         13   -1    0    0    0    0  0.00000000000E+00  0.00000000000E+00  0.74505805969E-08  0.10566000000E+00  0.10566000000E+00 0.  1.
     999900   -1    0    0    0    0 -0.00000000000E+00 -0.00000000000E+00 -0.74505805969E-08  0.93827000000E+00  0.93827000000E+00 0. -1.
     999902    2    1    2    0    0  0.81077059685E-02  0.21467175109E-01 -0.58591718479E-02  0.10202465797E+01  0.10199716560E+01 0.  0.
     999903    2    3    3    0    0  0.47469843897E-01 -0.10524527402E+00 -0.53866375161E-01  0.12900580737E+00  0.20272103460E-01 0.  0.
         14    1    1    2    0    0 -0.81077059685E-02 -0.21467175109E-01  0.58591718479E-02  0.23683420318E-01  0.00000000000E+00 0.  1.
     999901    1    3    3    0    0 -0.39362137928E-01  0.12671244913E+00  0.48007203313E-01  0.89124077231E+00  0.88000000000E+00 0. -1.
        -11    1    4    4    0    0  0.15186236355E-01 -0.43292873907E-01 -0.31489299778E-01  0.55648286832E-01  0.51100000000E-03 0.  1.
         11    1    4    4    0    0  0.32283607541E-01 -0.61952400111E-01 -0.22377075383E-01  0.73357520535E-01  0.51100000000E-03 0. -1.
</event>
<event>
 8    1  0.1101883E+005  0.1043930E+01  0.7957747E-01            NaN
         13   -1    0    0    0    0  0.00000000000E+00  0.00000000000E+00  0.74505805969E-08  0.10566000000E+00  0.10566000000E+00 0. -1.
     999900   -1    0    0    0    0 -0.00000000000E+00 -0.00000000000E+00 -0.74505805969E-08  0.93827000000E+00  0.93827000000E+00 0. -1.
     999902    2    1    2    0    0  0.85700613693E-02  0.11793360461E-01  0.11309692335E-01  0.10254790259E+01  0.10253130226E+01 0.  0.
     999903    2    3    3    0    0 -0.12343354454E+00  0.39216971853E-01  0.32085169158E-01  0.13496870772E+00  0.20329367506E-01 0.  0.
         14    1    1    2    0    0 -0.85700613693E-02 -0.11793360461E-01 -0.11309692335E-01  0.18450974054E-01  0.00000000000E+00 0. -1.
     999901    1    3    3    0    0  0.13200360591E+00 -0.27423611392E-01 -0.20775476824E-01  0.89051031823E+00  0.88000000000E+00 0.  1.
        -11    1    4    4    0    0 -0.69827327610E-01  0.13351388603E-01  0.23218425191E-01  0.74789515630E-01  0.51100000000E-03 0. -1.
         11    1    4    4    0    0 -0.53606216932E-01  0.25865583250E-01  0.88667439673E-02  0.60179192087E-01  0.51100000000E-03 0.  1.
</event>
<event>
 8    1  0.1101883E+005  0.1043930E+01  0.7957747E-01            NaN
         13   -1    0    0    0    0  0.00000000000E+00  0.00000000000E+00  0.74505805969E-08  0.10566000000E+00  0.10566000000E+00 0. -1.
     999900   -1    0    0    0    0 -0.00000000000E+00 -0.00000000000E+00 -0.74505805969E-08  0.93827000000E+00  0.93827000000E+00 0.  1.
     999902    2    1    2    0    0  0.20239753061E-01 -0.11487017422E-01  0.83936096107E-02  0.10191903182E+01  0.10188900102E+01 0.  0.
     999903    2    3    3    0    0  0.57226995064E-01 -0.58206472098E-01  0.10226856430E+00  0.13219354784E+00  0.18797672425E-01 0.  0.
         14    1    1    2    0    0 -0.20239753061E-01  0.11487017422E-01 -0.83936096107E-02  0.24739681799E-01  0.00000000000E+00 0.  1.
     999901    1    3    3    0    0 -0.36987242003E-01  0.46719454676E-01 -0.93874954686E-01  0.88699677036E+00  0.88000000000E+00 0.  1.
        -11    1    4    4    0    0  0.28323743175E-01 -0.23300706951E-01  0.59381170613E-01  0.69796431974E-01  0.51100000000E-03 0. -1.
         11    1    4    4    0    0  0.28903251889E-01 -0.34905765147E-01  0.42887393683E-01  0.62397115864E-01  0.51100000000E-03 0.  1.
</event>
<event>
 8    1  0.1101883E+005  0.1043930E+01  0.7957747E-01            NaN
         13   -1    0    0    0    0  0.00000000000E+00  0.00000000000E+00  0.74505805969E-08  0.10566000000E+00  0.10566000000E+00 0.  1.
     999900   -1    0    0    0    0 -0.00000000000E+00 -0.00000000000E+00 -0.74505805969E-08  0.93827000000E+00  0.93827000000E+00 0.  1.
     999902    2    1    2    0    0  0.42026259853E-02  0.16950946481E-01  0.15665720560E-01  0.10204691506E+01  0.10201994295E+01 0.  0.
     999903    2    3    3    0    0 -0.22408079010E-01  0.10746816672E+00 -0.69679344076E-01  0.13132052593E+00  0.18394039156E-01 0.  0.
         14    1    1    2    0    0 -0.42026259853E-02 -0.16950946481E-01 -0.15665720560E-01  0.23460849355E-01  0.00000000000E+00 0. -1.
     999901    1    3    3    0    0  0.26610704996E-01 -0.90517220237E-01  0.85345064636E-01  0.88914862472E+00  0.88000000000E+00 0. -1.
        -11    1    4    4    0    0 -0.14979296258E-01  0.53349392381E-01 -0.25206970771E-01  0.60878481258E-01  0.51100000000E-03 0. -1.
         11    1    4    4    0    0 -0.74287827520E-02  0.54118774336E-01 -0.44472373305E-01  0.70442044669E-01  0.51100000000E-03 0.  1.
</event>
<event>
 8    1  0.1101883E+005  0.1043930E+01  0.7957747E-01            NaN
         13   -1    0    0    0    0  0.00000000000E+00  0.00000000000E+00  0.74505805969E-08  0.10566000000E+00  0.10566000000E+00 0. -1.
     999900   -1    0    0    0    0 -0.00000000000E+00 -0.00000000000E+00 -0.74505805969E-08  0.93827000000E+00  0.93827000000E+00 0.  1.
     999902    2    1    2    0    0  0.51248561319E-02  0.18611636875E-01 -0.11723629663E-01  0.10213445917E+01  0.10210948410E+01 0.  0.
     999903    2    3    3    0    0  0.31660396497E-01  0.12759023008E+00  0.15315415990E-01  0.13381342112E+00  0.19743915170E-01 0.  0.
         14    1    1    2    0    0 -0.51248561319E-02 -0.18611636875E-01  0.11723629663E-01  0.22585408343E-01  0.00000000000E+00 0. -1.
     999901    1    3    3    0    0 -0.26535540365E-01 -0.10897859321E+00 -0.27039045653E-01  0.88753117053E+00  0.88000000000E+00 0. -1.
        -11    1    4    4    0    0  0.18055707184E-01  0.91003289028E-01  0.18646134483E-01  0.94633749942E-01  0.51100000000E-03 0. -1.
         11    1    4    4    0    0  0.13604689313E-01  0.36586941056E-01 -0.33307184933E-02  0.39179671181E-01  0.51100000000E-03 0.  1.
</event>
<event>
 8    1  0.1101883E+005  0.1043930E+01  0.7957747E-01            NaN
         13   -1    0    0    0    0  0.00000000000E+00  0.00000000000E+00  0.74505805969E-08  0.10566000000E+00  0.10566000000E+00 0. -1.
     999900   -1    0    0    0    0 -0.00000000000E+00 -0.00000000000E+00 -0.74505805969E-08  0.93827000000E+00  0.93827000000E+00 0.  1.
     999902    2    1    2    0    0  0.20377423789E-01  0.58062851442E-02  0.13378280000E-01  0.10188714541E+01  0.10185632574E+01 0.  0.
     999903    2    3    3    0    0 -0.26527328610E-01  0.66414339974E-01 -0.10399807589E+00  0.12777628463E+00  0.19915205459E-01 0.  0.
         14    1    1    2    0    0 -0.20377423789E-01 -0.58062851442E-02 -0.13378280000E-01  0.25058545912E-01  0.00000000000E+00 0.  1.
     999901    1    3    3    0    0  0.46904752399E-01 -0.60608054830E-01  0.11737635589E+00  0.89109516946E+00  0.88000000000E+00 0. -1.
        -11    1    4    4    0    0 -0.57237189552E-02  0.19577779125E-01 -0.46336451150E-01  0.50629815527E-01  0.51100000000E-03 0. -1.
         11    1    4    4    0    0 -0.20803609655E-01  0.46836560849E-01 -0.57661624738E-01  0.77146469105E-01  0.51100000000E-03 0.  1.
</event>
<event>
 8    1  0.1101883E+005  0.1043930E+01  0.7957747E-01            NaN
         13   -1    0    0    0    0  0.00000000000E+00  0.00000000000E+00  0.74505805969E-08  0.10566000000E+00  0.10566000000E+00 0. -1.
     999900   -1    0    0    0    0 -0.00000000000E+00 -0.00000000000E+00 -0.74505805969E-08  0.93827000000E+00  0.93827000000E+00 0. -1.
     999902    2    1    2    0    0 -0.67013883080E-02 -0.21631469929E-01  0.63867343349E-02  0.10204008803E+01  0.10201295688E+01 0.  0.
     999903    2    3    3    0    0 -0.47345226584E-01 -0.66330956455E-01 -0.10172807475E+00  0.13172839982E+00  0.19036907884E-01 0.  0.
         14    1    1    2    0    0  0.67013883080E-02  0.21631469929E-01 -0.63867343349E-02  0.23529119661E-01  0.00000000000E+00 0.  1.
     999901    1    3    3    0    0  0.40643838276E-01  0.44699486526E-01  0.10811480909E+00  0.88867248052E+00  0.88000000000E+00 0.  1.
        -11    1    4    4    0    0 -0.32611733798E-01 -0.54464009999E-01 -0.87245576043E-01  0.10789766090E+00  0.51100000000E-03 0.  1.
         11    1    4    4    0    0 -0.14733492786E-01 -0.11866946456E-01 -0.14482498710E-01  0.23830738926E-01  0.51100000000E-03 0. -1.
</event>
<event>
 8    1  0.1101883E+005  0.1043930E+01  0.7957747E-01            NaN
         13   -1    0    0    0    0  0.00000000000E+00  0.00000000000E+00  0.74505805969E-08  0.10566000000E+00  0.10566000000E+00 0. -1.
     999900   -1    0    0    0    0 -0.00000000000E+00 -0.00000000000E+00 -0.74505805969E-08  0.93827000000E+00  0.93827000000E+00 0.  1.
     999902    2    1    2    0    0  0.17402396475E-02 -0.61530622120E-02  0.21911400290E-01  0.10211046178E+01  0.10208494710E+01 0.  0.
     999903    2    3    3    0    0  0.10113596781E+00  0.67987313951E-01 -0.41512405415E-01  0.13015069911E+00  0.19109312680E-01 0.  0.
         14    1    1    2    0    0 -0.17402396475E-02  0.61530622120E-02 -0.21911400290E-01  0.22825382171E-01  0.00000000000E+00 0.  1.
     999901    1    3    3    0    0 -0.99395728165E-01 -0.74140376163E-01  0.63423805705E-01  0.89095391872E+00  0.88000000000E+00 0.  1.
        -11    1    4    4    0    0  0.29677431743E-01  0.10113746845E-01 -0.91356740688E-02  0.32661284295E-01  0.51100000000E-03 0.  1.
         11    1    4    4    0    0  0.71458536070E-01  0.57873567106E-01 -0.32376731347E-01  0.97489414813E-01  0.51100000000E-03 0. -1.
</event>
<event>
 8    1  0.1101883E+005  0.1043930E+01  0.7957747E-01            NaN
         13   -1    0    0    0    0  0.00000000000E+00  0.00000000000E+00  0.74505805969E-08  0.10566000000E+00  0.10566000000E+00 0. -1.
     999900   -1    0    0    0    0 -0.00000000000E+00 -0.00000000000E+00 -0.74505805969E-08  0.93827000000E+00  0.93827000000E+00 0.  1.
     999902    2    1    2    0    0  0.10800834663E-01  0.21438418379E-01  0.39453295951E-02  0.10196024552E+01  0.10193121883E+01 0.  0.
     999903    2    3    3    0    0 -0.10155116878E+00 -0.63027360872E-01  0.40176515037E-01  0.12771112807E+00  0.20270465562E-01 0.  0.
         14    1    1    2    0    0 -0.10800834663E-01 -0.21438418379E-01 -0.39453295951E-02  0.24327544834E-01  0.00000000000E+00 0.  1.
     999901    1    3    3    0    0  0.11235200345E+00  0.84465779251E-01 -0.36231185441E-01  0.89189132709E+00  0.88000000000E+00 0.  1.
        -11    1    4    4    0    0 -0.72078646472E-01 -0.52889658500E-01  0.23883190771E-01  0.92538182259E-01  0.51100000000E-03 0. -1.
         11    1    4    4    0    0 -0.29472522310E-01 -0.10137702373E-01  0.16293324266E-01  0.35172945816E-01  0.51100000000E-03 0.  1.
</event>
<event>
 8    1  0.1101883E+005  0.1043930E+01  0.7957747E-01            NaN
         13   -1    0    0    0    0  0.00000000000E+00  0.00000000000E+00  0.74505805969E-08  0.10566000000E+00  0.10566000000E+00 0. -1.
     999900   -1    0    0    0    0 -0.00000000000E+00 -0.00000000000E+00 -0.74505805969E-08  0.93827000000E+00  0.93827000000E+00 0. -1.
     999902    2    1    2    0    0  0.18634614645E-01 -0.11144334156E-01 -0.10307368145E-01  0.10198948823E+01  0.10196116339E+01 0.  0.
     999903    2    3    3    0    0 -0.29493813738E-01 -0.10757060058E+00  0.64170892404E-01  0.13019752823E+00  0.19803377684E-01 0.  0.
         14    1    1    2    0    0 -0.18634614645E-01  0.11144334156E-01  0.10307368145E-01  0.24035117741E-01  0.00000000000E+00 0. -1.
     999901    1    3    3    0    0  0.48128428383E-01  0.96426266421E-01 -0.74478260550E-01  0.88969735403E+00  0.88000000000E+00 0. -1.
        -11    1    4    4    0    0 -0.69753643440E-03 -0.32519350623E-01  0.13832508572E-01  0.35349598816E-01  0.51100000000E-03 0. -1.
         11    1    4    4    0    0 -0.28796277303E-01 -0.75051249953E-01  0.50338383832E-01  0.94847929412E-01  0.51100000000E-03 0.  1.
</event>
<event>
 8    1  0.1101883E+005  0.1043930E+01  0.7957747E-01            NaN
         13   -1    0    0    0    0  0.00000000000E+00  0.00000000000E+00  0.74505805969E-08  0.10566000000E+00  0.10566000000E+00 0. -1.
     999900   -1    0    0    0    0 -0.00000000000E+00 -0.00000000000E+00 -0.74505805969E-08  0.93827000000E+00  0.93827000000E+00 0. -1.
     999902    2    1    2    0    0 -0.66842853871E-02 -0.12181331077E-01 -0.15086279618E-02  0.10299535750E+01  0.10298587409E+01 0.  0.
     999903    2    3    3    0    0 -0.13719190070E+00  0.99724885421E-03  0.19706187937E-01  0.13997830508E+00  0.19569872961E-01 0.  0.
         14    1    1    2    0    0  0.66842853871E-02  0.12181331077E-01  0.15086279618E-02  0.13976425018E-01  0.00000000000E+00 0.  1.
     999901    1    3    3    0    0  0.13050761531E+00 -0.13178579931E-01 -0.21214815898E-01  0.88997526990E+00  0.88000000000E+00 0.  1.
        -11    1    4    4    0    0 -0.79867461826E-01  0.49831575243E-02  0.20106984266E-01  0.82511788580E-01  0.51100000000E-03 0.  1.
         11    1    4    4    0    0 -0.57324438873E-01 -0.39859086701E-02 -0.40079632985E-03  0.57466516501E-01  0.51100000000E-03 0. -1.
</event>
<event>
 8    1  0.1101883E+005  0.1043930E+01  0.7957747E-01            NaN
         13   -1    0    0    0    0  0.00000000000E+00  0.00000000000E+00  0.74505805969E-08  0.10566000000E+00  0.10566000000E+00 0. -1.
     999900   -1    0    0    0    0 -0.00000000000E+00 -0.00000000000E+00 -0.74505805969E-08  0.93827000000E+00  0.93827000000E+00 0.  1.
     999902    2    1    2    0    0 -0.17613873234E-01 -0.16659141976E-01 -0.61034282188E-02  0.10189294525E+01  0.10186226984E+01 0.  0.
     999903    2    3    3    0    0  0.11999883329E+00 -0.70312487358E-02  0.35775663425E-01  0.12719865695E+00  0.21223613890E-01 0.  0.
         14    1    1    2    0    0  0.17613873234E-01  0.16659141976E-01  0.61034282188E-02  0.25000547548E-01  0.00000000000E+00 0.  1.
     999901    1    3    3    0    0 -0.13761270653E+00 -0.96278932402E-02 -0.41879091644E-01  0.89173079550E+00  0.88000000000E+00 0. -1.
        -11    1    4    4    0    0  0.95624665125E-01  0.30127266464E-02  0.29058351586E-01  0.99989009496E-01  0.51100000000E-03 0.  1.
         11    1    4    4    0    0  0.24374168168E-01 -0.10043975382E-01  0.67173118391E-02  0.27209647457E-01  0.51100000000E-03 0. -1.
</event>
<event>
 8    1  0.1101883E+005  0.1043930E+01  0.7957747E-01            NaN
         13   -1    0    0    0    0  0.00000000000E+00  0.00000000000E+00  0.74505805969E-08  0.10566000000E+00  0.10566000000E+00 0.  1.
     999900   -1    0    0    0    0 -0.00000000000E+00 -0.00000000000E+00 -0.74505805969E-08  0.93827000000E+00  0.93827000000E+00 0.  1.
     999902    2    1    2    0    0 -0.62204485749E-02  0.11576341466E-01 -0.20244648003E-01  0.10197938977E+01  0.10195082355E+01 0.  0.
     999903    2    3    3    0    0 -0.48375705107E-01 -0.11698402295E+00 -0.17886544689E-01  0.12945104597E+00  0.20302077482E-01 0.  0.
         14    1    1    2    0    0  0.62204485749E-02 -0.11576341466E-01  0.20244648003E-01  0.24136102316E-01  0.00000000000E+00 0.  1.
     999901    1    3    3    0    0  0.42155256532E-01  0.12856036442E+00 -0.23581033142E-02  0.89034285172E+00  0.88000000000E+00 0. -1.
        -11    1    4    4    0    0 -0.37908520551E-01 -0.10258386621E+00 -0.21022050543E-01  0.11136737973E+00  0.51100000000E-03 0.  1.
         11    1    4    4    0    0 -0.10467184556E-01 -0.14400156743E-01  0.31355058539E-02  0.18083666241E-01  0.51100000000E-03 0. -1.
</event>
<event>
 8    1  0.1101883E+005  0.1043930E+01  0.7957747E-01            NaN
         13   -1    0    0    0    0  0.00000000000E+00  0.00000000000E+00  0.74505805969E-08  0.10566000000E+00  0.10566000000E+00 0. -1.
     999900   -1    0    0    0    0 -0.00000000000E+00 -0.00000000000E+00 -0.74505805969E-08  0.93827000000E+00  0.93827000000E+00 0. -1.
     999902    2    1    2    0    0 -0.41964753425E-02  0.18787280752E-01 -0.14570461277E-01  0.10197872855E+01  0.10195014649E+01 0.  0.
     999903    2    3    3    0    0  0.60825071503E-01  0.10384971959E+00 -0.51847820977E-01  0.13251448547E+00  0.19683463570E-01 0.  0.
         14    1    1    2    0    0  0.41964753425E-02 -0.18787280752E-01  0.14570461277E-01  0.24142714536E-01  0.00000000000E+00 0. -1.
     999901    1    3    3    0    0 -0.65021546845E-01 -0.85062438838E-01  0.37277359700E-01  0.88727279999E+00  0.88000000000E+00 0.  1.
        -11    1    4    4    0    0  0.42636513867E-01  0.88116949059E-01 -0.42084469200E-01  0.10655436497E+00  0.51100000000E-03 0.  1.
         11    1    4    4    0    0  0.18188557636E-01  0.15732770532E-01 -0.97633517771E-02  0.25960120500E-01  0.51100000000E-03 0. -1.
</event>
<event>
 8    1  0.1101883E+005  0.1043930E+01  0.7957747E-01            NaN
         13   -1    0    0    0    0  0.00000000000E+00  0.00000000000E+00  0.74505805969E-08  0.10566000000E+00  0.10566000000E+00 0. -1.
     999900   -1    0    0    0    0 -0.00000000000E+00 -0.00000000000E+00 -0.74505805969E-08  0.93827000000E+00  0.93827000000E+00 0. -1.
     999902    2    1    2    0    0 -0.21199660953E-01 -0.55510919266E-02 -0.41877912915E-02  0.10216190645E+01  0.10213754134E+01 0.  0.
     999903    2    3    3    0    0  0.11009931016E+00  0.49661508333E-01  0.40300195726E-01  0.12905700391E+00  0.21058988030E-01 0.  0.
         14    1    1    2    0    0  0.21199660953E-01  0.55510919266E-02  0.41877912915E-02  0.22310935480E-01  0.00000000000E+00 0.  1.
     999901    1    3    3    0    0 -0.13129897111E+00 -0.55212600260E-01 -0.44487987018E-01  0.89256206060E+00  0.88000000000E+00 0. -1.
        -11    1    4    4    0    0  0.29517013050E-01  0.20637813232E-01  0.47925801873E-02  0.36337354613E-01  0.51100000000E-03 0.  1.
         11    1    4    4    0    0  0.80582297108E-01  0.29023695101E-01  0.35507615539E-01  0.92719649302E-01  0.51100000000E-03 0. -1.
</event>
<event>
 7    1  0.1101883E+005  0.1043930E+01  0.7957747E-01            NaN
         13   -1    0    0    0    0  0.00000000000E+00  0.00000000000E+00  0.74505805969E-08  0.10566000000E+00  0.10566000000E+00 0. -1.
     999900   -1    0    0    0    0 -0.00000000000E+00 -0.00000000000E+00 -0.74505805969E-08  0.93827000000E+00  0.93827000000E+00 0. -1.
     999903    2    1    2    0    0 -0.30899842640E-01 -0.89681530261E-01 -0.41730705096E-01  0.10554149467E+00  0.19999455108E-01 0.  0.
         14    1    1    2    0    0  0.87623594508E-02  0.12903739819E-01  0.52432554034E-01  0.54703365226E-01  0.00000000000E+00 0. -1.
     999901    1    1    2    0    0  0.22137483190E-01  0.76777790442E-01 -0.10701848939E-01  0.88368514010E+00  0.88000000000E+00 0. -1.
        -11    1    3    3    0    0 -0.11361501454E-01 -0.12596265396E-01 -0.36023652582E-02  0.17348999212E-01  0.51100000000E-03 0.  1.
         11    1    3    3    0    0 -0.19538341187E-01 -0.77085264865E-01 -0.38128339838E-01  0.88192495460E-01  0.51100000000E-03 0. -1.
</event>
<event>
 8    1  0.1101883E+005  0.1043930E+01  0.7957747E-01            NaN
         13   -1    0    0    0    0  0.00000000000E+00  0.00000000000E+00  0.74505805969E-08  0.10566000000E+00  0.10566000000E+00 0. -1.
     999900   -1    0    0    0    0 -0.00000000000E+00 -0.00000000000E+00 -0.74505805969E-08  0.93827000000E+00  0.93827000000E+00 0.  1.
     999902    2    1    2    0    0 -0.12585256388E-01  0.18144875980E-01 -0.69344970190E-02  0.10207845371E+01  0.10205221011E+01 0.  0.
     999903    2    3    3    0    0 -0.36396398662E-01 -0.11762551898E+00  0.33551026084E-01  0.12913457878E+00  0.19738478518E-01 0.  0.
         14    1    1    2    0    0  0.12585256388E-01 -0.18144875980E-01  0.69344970190E-02  0.23145462872E-01  0.00000000000E+00 0.  1.
     999901    1    3    3    0    0  0.23811142274E-01  0.13577039496E+00 -0.40485523103E-01  0.89164995835E+00  0.88000000000E+00 0. -1.
        -11    1    4    4    0    0 -0.18905182491E-01 -0.87488538275E-01  0.28402529910E-01  0.93907481495E-01  0.51100000000E-03 0.  1.
         11    1    4    4    0    0 -0.17491216171E-01 -0.30136980704E-01  0.51484961738E-02  0.35227097283E-01  0.51100000000E-03 0. -1.
</event>
<event>
 8    1  0.1101883E+005  0.1043930E+01  0.7957747E-01            NaN
         13   -1    0    0    0    0  0.00000000000E+00  0.00000000000E+00  0.74505805969E-08  0.10566000000E+00  0.10566000000E+00 0.  1.
     999900   -1    0    0    0    0 -0.00000000000E+00 -0.00000000000E+00 -0.74505805969E-08  0.93827000000E+00  0.93827000000E+00 0.  1.
     999902    2    1    2    0    0 -0.83303190043E-02  0.21744842282E-01 -0.46155889040E-02  0.10201910859E+01  0.10199148571E+01 0.  0.
     999903    2    3    3    0    0 -0.10044737630E+00 -0.72771091484E-01  0.30967237347E-01  0.12963791429E+00  0.21487481732E-01 0.  0.
         14    1    1    2    0    0  0.83303190043E-02 -0.21744842282E-01  0.46155889040E-02  0.23738914076E-01  0.00000000000E+00 0. -1.
     999901    1    3    3    0    0  0.92117057297E-01  0.94515933766E-01 -0.35582826251E-01  0.89055317163E+00  0.88000000000E+00 0.  1.
        -11    1    4    4    0    0 -0.70365160875E-02 -0.12511859938E-01  0.48443619475E-03  0.14372021332E-01  0.51100000000E-03 0. -1.
         11    1    4    4    0    0 -0.93410860214E-01 -0.60259231546E-01  0.30482801153E-01  0.11526589296E+00  0.51100000000E-03 0.  1.
</event>
<event>
 8    1  0.1101883E+005  0.1043930E+01  0.7957747E-01            NaN
         13   -1    0    0    0    0  0.00000000000E+00  0.00000000000E+00  0.74505805969E-08  0.10566000000E+00  0.10566000000E+00 0. -1.
     999900   -1    0    0    0    0 -0.00000000000E+00 -0.00000000000E+00 -0.74505805969E-08  0.93827000000E+00  0.93827000000E+00 0. -1.
     999902    2    1    2    0    0  0.27482196817E-02  0.19396299230E-01 -0.21563565048E-01  0.10147965746E+01  0.10143782980E+01 0.  0.
     999903    2    3    3    0    0  0.36539956221E-01  0.56740744491E-01 -0.10822980456E+00  0.12910615124E+00  0.20000680118E-01 0.  0.
         14    1    1    2    0    0 -0.27482196817E-02 -0.19396299230E-01  0.21563565048E-01  0.29133425353E-01  0.00000000000E+00 0. -1.
     999901    1    3    3    0    0 -0.33791736540E-01 -0.37344445261E-01  0.86666239516E-01  0.88569042341E+00  0.88000000000E+00 0.  1.
        -11    1    4    4    0    0  0.17946245407E-01  0.24788644581E-01 -0.67401970996E-01  0.74025883578E-01  0.51100000000E-03 0. -1.
         11    1    4    4    0    0  0.18593710815E-01  0.31952099909E-01 -0.40827833567E-01  0.55080267658E-01  0.51100000000E-03 0.  1.
</event>
<event>
 8    1  0.1101883E+005  0.1043930E+01  0.7957747E-01            NaN
         13   -1    0    0    0    0  0.00000000000E+00  0.00000000000E+00  0.74505805969E-08  0.10566000000E+00  0.10566000000E+00 0. -1.
     999900   -1    0    0    0    0 -0.00000000000E+00 -0.00000000000E+00 -0.74505805969E-08  0.93827000000E+00  0.93827000000E+00 0.  1.
     999902    2    1    2    0    0  0.10796959993E-01  0.15207061323E-01 -0.15185594052E-01  0.10198794007E+01  0.10195957830E+01 0.  0.
     999903    2    3    3    0    0  0.43282752519E-01 -0.44554221574E-01  0.11030980814E+00  0.12837739084E+00  0.21307871351E-01 0.  0.
         14    1    1    2    0    0 -0.10796959993E-01 -0.15207061323E-01  0.15185594052E-01  0.24050599283E-01  0.00000000000E+00 0. -1.
     999901    1    3    3    0    0 -0.32485792526E-01  0.59761282897E-01 -0.12549540219E+00  0.89150200988E+00  0.88000000000E+00 0.  1.
        -11    1    4    4    0    0  0.12906487112E-01 -0.13494609309E-01  0.16214450060E-01  0.24735630207E-01  0.51100000000E-03 0.  1.
         11    1    4    4    0    0  0.30376265407E-01 -0.31059612265E-01  0.94095358076E-01  0.10364176063E+00  0.51100000000E-03 0. -1.
</event>
<event>
 8    1  0.1101883E+005  0.1043930E+01  0.7957747E-01            NaN
         13   -1    0    0    0    0  0.00000000000E+00  0.00000000000E+00  0.74505805969E-08  0.10566000000E+00  0.10566000000E+00 0.  1.
     999900   -1    0    0    0    0 -0.00000000000E+00 -0.00000000000E+00 -0.74505805969E-08  0.93827000000E+00  0.93827000000E+00 0. -1.
     999902    2    1    2    0    0 -0.71295935238E-02  0.17451330734E-01  0.13261432755E-01  0.10208812333E+01  0.10206210104E+01 0.  0.
     999903    2    3    3    0    0 -0.12065932768E+00  0.30858382319E-01  0.42244450627E-01  0.13301369537E+00  0.19928282184E-01 0.  0.
         14    1    1    2    0    0  0.71295935238E-02 -0.17451330734E-01 -0.13261432755E-01  0.23048766711E-01  0.00000000000E+00 0. -1.
     999901    1    3    3    0    0  0.11352973416E+00 -0.13407051585E-01 -0.28983017873E-01  0.88786753792E+00  0.88000000000E+00 0. -1.
        -11    1    4    4    0    0 -0.63782253409E-01  0.24786212402E-01  0.17140409019E-01  0.70544928362E-01  0.51100000000E-03 0. -1.
         11    1    4    4    0    0 -0.56877074271E-01  0.60721699177E-02  0.25104041609E-01  0.62468767006E-01  0.51100000000E-03 0.  1.
</event>
<event>
 8    1  0.1101883E+005  0.1043930E+01  0.7957747E-01            NaN
         13   -1    0    0    0    0  0.00000000000E+00  0.00000000000E+00  0.74505805969E-08  0.10566000000E+00  0.10566000000E+00 0.  1.
     999900   -1    0    0    0    0 -0.00000000000E+00 -0.00000000000E+00 -0.74505805969E-08  0.93827000000E+00  0.93827000000E+00 0. -1.
     999902    2    1    2    0    0 -0.14230433741E-01  0.86433143175E-02  0.16757561948E-01  0.10203073835E+01  0.10200338861E+01 0.  0.
     999903    2    3    3    0    0  0.11653748866E+00 -0.28841044830E-01 -0.40089580457E-01  0.12804233080E+00  0.19361608544E-01 0.  0.
         14    1    1    2    0    0  0.14230433741E-01 -0.86433143175E-02 -0.16757561948E-01  0.23622616478E-01  0.00000000000E+00 0. -1.
     999901    1    3    3    0    0 -0.13076792240E+00  0.37484359147E-01  0.56847142404E-01  0.89226505272E+00  0.88000000000E+00 0. -1.
        -11    1    4    4    0    0  0.52261632407E-01 -0.52285561292E-02 -0.11121726006E-01  0.53689570043E-01  0.51100000000E-03 0.  1.
         11    1    4    4    0    0  0.64275856253E-01 -0.23612488700E-01 -0.28967854451E-01  0.74352760757E-01  0.51100000000E-03 0. -1.
</event>
<event>
 8    1  0.1101883E+005  0.1043930E+01  0.7957747E-01            NaN
         13   -1    0    0    0    0  0.00000000000E+00  0.00000000000E+00  0.74505805969E-08  0.10566000000E+00  0.10566000000E+00 0.  1.
     999900   -1    0    0    0    0 -0.00000000000E+00 -0.00000000000E+00 -0.74505805969E-08  0.93827000000E+00  0.93827000000E+00 0.  1.
     999902    2    1    2    0    0 -0.92107159608E-02  0.13026391466E-01 -0.18560480512E-01  0.10194552048E+01  0.10191613704E+01 0.  0.
     999903    2    3    3    0    0  0.42818506117E-02  0.12847415130E+00 -0.20287900528E-01  0.13181044558E+00  0.20939265959E-01 0.  0.
         14    1    1    2    0    0  0.92107159608E-02 -0.13026391466E-01  0.18560480512E-01  0.24474795198E-01  0.00000000000E+00 0.  1.
     999901    1    3    3    0    0 -0.13492566572E-01 -0.11544775983E+00  0.17274200160E-02  0.88764475923E+00  0.88000000000E+00 0.  1.
        -11    1    4    4    0    0  0.57355720226E-02  0.70107837448E-01 -0.11027346670E-02  0.70352560741E-01  0.51100000000E-03 0.  1.
         11    1    4    4    0    0 -0.14537214109E-02  0.58366313849E-01 -0.19185165861E-01  0.61457884835E-01  0.51100000000E-03 0. -1.
</event>
<event>
 8    1  0.1101883E+005  0.1043930E+01  0.7957747E-01            NaN
         13   -1    0    0    0    0  0.00000000000E+00  0.00000000000E+00  0.74505805969E-08  0.10566000000E+00  0.10566000000E+00 0. -1.
     999900   -1    0    0    0    0 -0.00000000000E+00 -0.00000000000E+00 -0.74505805969E-08  0.93827000000E+00  0.93827000000E+00 0.  1.
     999902    2    1    2    0    0 -0.10223089928E-01  0.14870480401E-01 -0.14978775918E-01  0.10204777830E+01  0.10202082626E+01 0.  0.
     999903    2    3    3    0    0 -0.41279991666E-01  0.96587953545E-01  0.76445010312E-01  0.13143302300E+00  0.19938140623E-01 0.  0.
         14    1    1    2    0    0  0.10223089928E-01 -0.14870480401E-01  0.14978775918E-01  0.23452217017E-01  0.00000000000E+00 0. -1.
     999901    1    3    3    0    0  0.31056901738E-01 -0.81717473145E-01 -0.91423786230E-01  0.88904475998E+00  0.88000000000E+00 0.  1.
        -11    1    4    4    0    0 -0.19586379644E-01  0.24698345853E-01  0.18230585996E-01  0.36417714675E-01  0.51100000000E-03 0. -1.
         11    1    4    4    0    0 -0.21693612022E-01  0.71889607692E-01  0.58214424316E-01  0.95015308326E-01  0.51100000000E-03 0.  1.
</event>
<event>
 8    1  0.1101883E+005  0.1043930E+01  0.7957747E-01            NaN
         13   -1    0    0    0    0  0.00000000000E+00  0.00000000000E+00  0.74505805969E-08  0.10566000000E+00  0.10566000000E+00 0.  1.
     999900   -1    0    0    0    0 -0.00000000000E+00 -0.00000000000E+00 -0.74505805969E-08  0.93827000000E+00  0.93827000000E+00 0. -1.
     999902    2    1    2    0    0 -0.35736544634E-02  0.11134574460E-01 -0.24100456784E-01  0.10171422832E+01  0.10167894780E+01 0.  0.
     999903    2    3    3    0    0  0.44825924327E-01 -0.34350077019E-01  0.10927389387E+00  0.12461772322E+00  0.19987540516E-01 0.  0.
         14    1    1    2    0    0  0.35736544634E-02 -0.11134574460E-01  0.24100456784E-01  0.26787716808E-01  0.00000000000E+00 0.  1.
     999901    1    3    3    0    0 -0.48399578791E-01  0.45484651479E-01 -0.13337435065E+00  0.89252455998E+00  0.88000000000E+00 0. -1.
        -11    1    4    4    0    0  0.61747862565E-02 -0.99737563209E-02  0.10364917765E-01  0.15661942464E-01  0.51100000000E-03 0. -1.
         11    1    4    4    0    0  0.38651138071E-01 -0.24376320698E-01  0.98908976102E-01  0.10895578075E+00  0.51100000000E-03 0.  1.
</event>
<event>
 8    1  0.1101883E+005  0.1043930E+01  0.7957747E-01            NaN
         13   -1    0    0    0    0  0.00000000000E+00  0.00000000000E+00  0.74505805969E-08  0.10566000000E+00  0.10566000000E+00 0.  1.
     999900   -1    0    0    0    0 -0.00000000000E+00 -0.00000000000E+00 -0.74505805969E-08  0.93827000000E+00  0.93827000000E+00 0. -1.
     999902    2    1    2    0    0 -0.15121980478E-01  0.16851904245E-01  0.67522621183E-02  0.10203026004E+01  0.10200289909E+01 0.  0.
     999903    2    3    3    0    0 -0.27972385654E-01  0.10274404876E+00  0.77546341950E-01  0.13319809967E+00  0.19735873175E-01 0.  0.
         14    1    1    2    0    0  0.15121980478E-01 -0.16851904245E-01 -0.67522621183E-02  0.23627399645E-01  0.00000000000E+00 0. -1.
     999901    1    3    3    0    0  0.12850405176E-01 -0.85892144515E-01 -0.70794079832E-01  0.88710450069E+00  0.88000000000E+00 0. -1.
        -11    1    4    4    0    0 -0.29581025750E-01  0.78038878554E-01  0.57680152843E-01  0.10145129276E+00  0.51100000000E-03 0. -1.
         11    1    4    4    0    0  0.16086400959E-02  0.24705170206E-01  0.19866189107E-01  0.31746806903E-01  0.51100000000E-03 0.  1.
</event>
<event>
 8    1  0.1101883E+005  0.1043930E+01  0.7957747E-01            NaN
         13   -1    0    0    0    0  0.00000000000E+00  0.00000000000E+00  0.74505805969E-08  0.10566000000E+00  0.10566000000E+00 0.  1.
     999900   -1    0    0    0    0 -0.00000000000E+00 -0.00000000000E+00 -0.74505805969E-08  0.93827000000E+00  0.93827000000E+00 0. -1.
     999902    2    1    2    0    0  0.91016314594E-02 -0.10405634312E-01 -0.19150346614E-01  0.10203110945E+01  0.10200376841E+01 0.  0.
     999903    2    3    3    0    0 -0.82344724164E-01 -0.87956717419E-01 -0.49106128824E-01  0.13167508617E+00  0.20245461048E-01 0.  0.
         14    1    1    2    0    0 -0.91016314594E-02  0.10405634312E-01  0.19150346614E-01  0.23618905480E-01  0.00000000000E+00 0.  1.
     999901    1    3    3    0    0  0.91446355623E-01  0.77551083107E-01  0.29955782210E-01  0.88863600835E+00  0.88000000000E+00 0.  1.
        -11    1    4    4    0    0 -0.71852703803E-01 -0.74881615302E-01 -0.34296540199E-01  0.10930041695E+00  0.51100000000E-03 0.  1.
         11    1    4    4    0    0 -0.10492020361E-01 -0.13075102117E-01 -0.14809588625E-01  0.22374669224E-01  0.51100000000E-03 0. -1.
</event>
<event>
 8    1  0.1101883E+005  0.1043930E+01  0.7957747E-01            NaN
         13   -1    0    0    0    0  0.00000000000E+00  0.00000000000E+00  0.74505805969E-08  0.10566000000E+00  0.10566000000E+00 0.  1.
     999900   -1    0    0    0    0 -0.00000000000E+00 -0.00000000000E+00 -0.74505805969E-08  0.93827000000E+00  0.93827000000E+00 0. -1.
     999902    2    1    2    0    0 -0.63978758462E-02  0.11499426878E-01 -0.11804154685E-01  0.10262521126E+01  0.10260998446E+01 0.  0.
     999903    2    3    3    0    0  0.62624166693E-01  0.78155325118E-01 -0.91498277234E-01  0.13745618314E+00  0.22186176936E-01 0.  0.
         14    1    1    2    0    0  0.63978758462E-02 -0.11499426878E-01  0.11804154685E-01  0.17677887365E-01  0.00000000000E+00 0.  1.
     999901    1    3    3    0    0 -0.69022042540E-01 -0.66655898240E-01  0.79694122549E-01  0.88879592950E+00  0.88000000000E+00 0.  1.
        -11    1    4    4    0    0  0.25422534370E-01  0.37964732633E-01 -0.27949296550E-01  0.53563518147E-01  0.51100000000E-03 0. -1.
         11    1    4    4    0    0  0.37201632324E-01  0.40190592485E-01 -0.63548980684E-01  0.83892664988E-01  0.51100000000E-03 0.  1.
</event>
<event>
 8    1  0.1101883E+005  0.1043930E+01  0.7957747E-01            NaN
         13   -1    0    0    0    0  0.00000000000E+00  0.00000000000E+00  0.74505805969E-08  0.10566000000E+00  0.10566000000E+00 0. -1.
     999900   -1    0    0    0    0 -0.00000000000E+00 -0.00000000000E+00 -0.74505805969E-08  0.93827000000E+00  0.93827000000E+00 0. -1.
     999902    2    1    2    0    0 -0.69545921671E-02  0.11669111877E-01 -0.18696876480E-01  0.10208192295E+01  0.10205575886E+01 0.  0.
     999903    2    3    3    0    0  0.11695374261E-01  0.12572017774E+00  0.32344201633E-01  0.13179692462E+00  0.19543210834E-01 0.  0.
         14    1    1    2    0    0  0.69545921671E-02 -0.11669111877E-01  0.18696876480E-01  0.23110770526E-01  0.00000000000E+00 0. -1.
     999901    1    3    3    0    0 -0.18649966428E-01 -0.11405106586E+00 -0.51041078112E-01  0.88902230485E+00  0.88000000000E+00 0. -1.
        -11    1    4    4    0    0 -0.38945228266E-02  0.47522240364E-01  0.74495200300E-02  0.48262688559E-01  0.51100000000E-03 0. -1.
         11    1    4    4    0    0  0.15589897087E-01  0.78197937378E-01  0.24894681603E-01  0.83534236062E-01  0.51100000000E-03 0.  1.
</event>
<event>
 8    1  0.1101883E+005  0.1043930E+01  0.7957747E-01            NaN
         13   -1    0    0    0    0  0.00000000000E+00  0.00000000000E+00  0.74505805969E-08  0.10566000000E+00  0.10566000000E+00 0.  1.
     999900   -1    0    0    0    0 -0.00000000000E+00 -0.00000000000E+00 -0.74505805969E-08  0.93827000000E+00  0.93827000000E+00 0.  1.
     999902    2    1    2    0    0 -0.12812747561E-01 -0.14967446895E-01 -0.12710244855E-01  0.10204834375E+01  0.10202140486E+01 0.  0.
     999903    2    3    3    0    0 -0.29393434969E-01  0.56005713757E-01 -0.11380239366E+00  0.13170240080E+00  0.19847508193E-01 0.  0.
         14    1    1    2    0    0  0.12812747561E-01  0.14967446895E-01  0.12710244855E-01  0.23446562453E-01  0.00000000000E+00 0.  1.
     999901    1    3    3    0    0  0.16580687409E-01 -0.70973160652E-01  0.10109214880E+00  0.88878103675E+00  0.88000000000E+00 0. -1.
        -11    1    4    4    0    0 -0.10069460923E-01  0.35676532789E-01 -0.76684282194E-01  0.85175990114E-01  0.51100000000E-03 0.  1.
         11    1    4    4    0    0 -0.19323974046E-01  0.20329180968E-01 -0.37118111465E-01  0.46526410688E-01  0.51100000000E-03 0. -1.
</event>
<event>
 8    1  0.1101883E+005  0.1043930E+01  0.7957747E-01            NaN
         13   -1    0    0    0    0  0.00000000000E+00  0.00000000000E+00  0.74505805969E-08  0.10566000000E+00  0.10566000000E+00 0. -1.
     999900   -1    0    0    0    0 -0.00000000000E+00 -0.00000000000E+00 -0.74505805969E-08  0.93827000000E+00  0.93827000000E+00 0. -1.
     999902    2    1    2    0    0  0.12414986760E-01  0.48960706555E-02 -0.16067543363E-01  0.10230429381E+01  0.10228296945E+01 0.  0.
     999903    2    3    3    0    0 -0.30436500979E-02  0.12105116335E+00  0.50610150947E-01  0.13277506274E+00  0.20129131942E-01 0.  0.
         14    1    1    2    0    0 -0.12414986760E-01 -0.48960706555E-02  0.16067543363E-01  0.20887061877E-01  0.00000000000E+00 0. -1.
     999901    1    3    3    0    0  0.15458636858E-01 -0.11615509270E+00 -0.66677694310E-01  0.89026787538E+00  0.88000000000E+00 0.  1.
        -11    1    4    4    0    0 -0.69133239979E-02  0.48940460973E-01  0.29386371830E-01  0.57504632329E-01  0.51100000000E-03 0.  1.
         11    1    4    4    0    0  0.38696739000E-02  0.72110702381E-01  0.21223779117E-01  0.75270430415E-01  0.51100000000E-03 0. -1.
</event>
<event>
 8    1  0.1101883E+005  0.1043930E+01  0.7957747E-01            NaN
         13   -1    0    0    0    0  0.00000000000E+00  0.00000000000E+00  0.74505805969E-08  0.10566000000E+00  0.10566000000E+00 0.  1.
     999900   -1    0    0    0    0 -0.00000000000E+00 -0.00000000000E+00 -0.74505805969E-08  0.93827000000E+00  0.93827000000E+00 0.  1.
     999902    2    1    2    0    0 -0.21018000485E-01 -0.57404815983E-02  0.10984718478E-01  0.10195297231E+01  0.10192376969E+01 0.  0.
     999903    2    3    3    0    0 -0.33934092927E-01 -0.19706475934E-01 -0.12258749119E+00  0.12924695360E+00  0.11713844899E-01 0.  0.
         14    1    1    2    0    0  0.21018000485E-01  0.57404815983E-02 -0.10984718478E-01  0.24400276913E-01  0.00000000000E+00 0. -1.
     999901    1    3    3    0    0  0.12916092442E-01  0.13965994335E-01  0.13357220967E+00  0.89028276948E+00  0.88000000000E+00 0. -1.
        -11    1    4    4    0    0 -0.88924114315E-03 -0.18218568823E-02 -0.18323911913E-02  0.27800522996E-02  0.51100000000E-03 0.  1.
         11    1    4    4    0    0 -0.33044851784E-01 -0.17884619051E-01 -0.12075510000E+00  0.12646690130E+00  0.51100000000E-03 0. -1.
</event>
<event>
 8    1  0.1101883E+005  0.1043930E+01  0.7957747E-01            NaN
         13   -1    0    0    0    0  0.00000000000E+00  0.00000000000E+00  0.74505805969E-08  0.10566000000E+00  0.10566000000E+00 0. -1.
     999900   -1    0    0    0    0 -0.00000000000E+00 -0.00000000000E+00 -0.74505805969E-08  0.93827000000E+00  0.93827000000E+00 0. -1.
     999902    2    1    2    0    0 -0.21911934339E-01  0.54505721734E-02 -0.15249851004E-02  0.10212988890E+01  0.10210481152E+01 0.  0.
     999903    2    3    3    0    0 -0.11296247407E+00  0.44086360618E-01 -0.52517300287E-01  0.13429091775E+00  0.23913511270E-01 0.  0.
         14    1    1    2    0    0  0.21911934339E-01 -0.54505721734E-02  0.15249851004E-02  0.22631110955E-01  0.00000000000E+00 0.  1.
     999901    1    3    3    0    0  0.91050539726E-01 -0.38635788444E-01  0.50992315187E-01  0.88700797130E+00  0.88000000000E+00 0.  1.
        -11    1    4    4    0    0 -0.93127864748E-01  0.29896530012E-01 -0.49766499197E-01  0.10974318777E+00  0.51100000000E-03 0.  1.
         11    1    4    4    0    0 -0.19834609317E-01  0.14189830606E-01 -0.27508010906E-02  0.24547729977E-01  0.51100000000E-03 0. -1.
</event>
<event>
 8    1  0.1101883E+005  0.1043930E+01  0.7957747E-01            NaN
         13   -1    0    0    0    0  0.00000000000E+00  0.00000000000E+00  0.74505805969E-08  0.10566000000E+00  0.10566000000E+00 0.  1.
     999900   -1    0    0    0    0 -0.00000000000E+00 -0.00000000000E+00 -0.74505805969E-08  0.93827000000E+00  0.93827000000E+00 0. -1.
     999902    2    1    2    0    0 -0.10783894031E-01  0.14254576473E-01 -0.16350279452E-01  0.10197056949E+01  0.10194179159E+01 0.  0.
     999903    2    3    3    0    0  0.93281336984E-01 -0.59102738453E-01 -0.64763095877E-01  0.12922567333E+00  0.17620287704E-01 0.  0.
         14    1    1    2    0    0  0.10783894031E-01 -0.14254576473E-01  0.16350279452E-01  0.24224305131E-01  0.00000000000E+00 0.  1.
     999901    1    3    3    0    0 -0.10406523102E+00  0.73357314926E-01  0.48412816425E-01  0.89048002154E+00  0.88000000000E+00 0.  1.
        -11    1    4    4    0    0  0.73704531879E-01 -0.41827932474E-01 -0.56423218688E-01  0.10181244856E+00  0.51100000000E-03 0.  1.
         11    1    4    4    0    0  0.19576805105E-01 -0.17274805979E-01 -0.83398771894E-02  0.27413224769E-01  0.51100000000E-03 0. -1.
</event>
<event>
 8    1  0.1101883E+005  0.1043930E+01  0.7957747E-01            NaN
         13   -1    0    0    0    0  0.00000000000E+00  0.00000000000E+00  0.74505805969E-08  0.10566000000E+00  0.10566000000E+00 0. -1.
     999900   -1    0    0    0    0 -0.00000000000E+00 -0.00000000000E+00 -0.74505805969E-08  0.93827000000E+00  0.93827000000E+00 0.  1.
     999902    2    1    2    0    0  0.13173826170E-02  0.21561369044E-01  0.71936082300E-02  0.10211621250E+01  0.10209082767E+01 0.  0.
     999903    2    3    3    0    0 -0.90318037385E-01  0.49104297801E-01 -0.79482033384E-01  0.13174190376E+00  0.21678460189E-01 0.  0.
         14    1    1    2    0    0 -0.13173826170E-02 -0.21561369044E-01 -0.71936082300E-02  0.22767874986E-01  0.00000000000E+00 0.  1.
     999901    1    3    3    0    0  0.91635420002E-01 -0.27542928757E-01  0.86675641614E-01  0.88942022125E+00  0.88000000000E+00 0. -1.
        -11    1    4    4    0    0 -0.74651149109E-01  0.31218844725E-01 -0.56677878342E-01  0.98792982259E-01  0.51100000000E-03 0. -1.
         11    1    4    4    0    0 -0.15666888276E-01  0.17885453076E-01 -0.22804155042E-01  0.32948921503E-01  0.51100000000E-03 0.  1.
</event>
<event>
 8    1  0.1101883E+005  0.1043930E+01  0.7957747E-01            NaN
         13   -1    0    0    0    0  0.00000000000E+00  0.00000000000E+00  0.74505805969E-08  0.10566000000E+00  0.10566000000E+00 0. -1.
     999900   -1    0    0    0    0 -0.00000000000E+00 -0.00000000000E+00 -0.74505805969E-08  0.93827000000E+00  0.93827000000E+00 0. -1.
     999902    2    1    2    0    0 -0.15342375450E-01  0.16220368226E-01  0.95964125042E-02  0.10196281490E+01  0.10193385023E+01 0.  0.
     999903    2    3    3    0    0  0.11017787538E+00 -0.49944378005E-01 -0.33764873955E-01  0.12720823203E+00  0.20205505833E-01 0.  0.
         14    1    1    2    0    0  0.15342375450E-01 -0.16220368226E-01 -0.95964125042E-02  0.24301851016E-01  0.00000000000E+00 0.  1.
     999901    1    3    3    0    0 -0.12552025083E+00  0.66164746230E-01  0.43361286460E-01  0.89241991695E+00  0.88000000000E+00 0.  1.
        -11    1    4    4    0    0  0.40900504196E-01 -0.83621819678E-02 -0.13886920096E-01  0.43998693179E-01  0.51100000000E-03 0.  1.
         11    1    4    4    0    0  0.69277371183E-01 -0.41582196037E-01 -0.19877953859E-01  0.83209538852E-01  0.51100000000E-03 0. -1.
</event>
<event>
 8    1  0.1101883E+005  0.1043930E+01  0.7957747E-01            NaN
         13   -1    0    0    0    0  0.00000000000E+00  0.00000000000E+00  0.74505805969E-08  0.10566000000E+00  0.10566000000E+00 0. -1.
     999900   -1    0    0    0    0 -0.00000000000E+00 -0.00000000000E+00 -0.74505805969E-08  0.93827000000E+00  0.93827000000E+00 0. -1.
     999902    2    1    2    0    0 -0.18743005485E-01  0.11024312257E-01 -0.66633728009E-02  0.10211871714E+01  0.10209338876E+01 0.  0.
     999903    2    3    3    0    0  0.14360354155E-01 -0.12376645396E+00 -0.30663187893E-01  0.12998552520E+00  0.20776206913E-01 0.  0.
         14    1    1    2    0    0  0.18743005485E-01 -0.11024312257E-01  0.66633728009E-02  0.22742828593E-01  0.00000000000E+00 0. -1.
     999901    1    3    3    0    0 -0.33103359640E-01  0.13479076621E+00  0.23999815092E-01  0.89120164621E+00  0.88000000000E+00 0.  1.
        -11    1    4    4    0    0  0.12343387159E-01 -0.70356493422E-01 -0.78244417359E-02  0.71860130690E-01  0.51100000000E-03 0. -1.
         11    1    4    4    0    0  0.20169669963E-02 -0.53409960533E-01 -0.22838746157E-01  0.58125394511E-01  0.51100000000E-03 0.  1.
</event>
<event>
 8    1  0.1101883E+005  0.1043930E+01  0.7957747E-01            NaN
         13   -1    0    0    0    0  0.00000000000E+00  0.00000000000E+00  0.74505805969E-08  0.10566000000E+00  0.10566000000E+00 0.  1.
     999900   -1    0    0    0    0 -0.00000000000E+00 -0.00000000000E+00 -0.74505805969E-08  0.93827000000E+00  0.93827000000E+00 0.  1.
     999902    2    1    2    0    0  0.71827415254E-03  0.17195873173E-01 -0.10716125221E-01  0.10236556489E+01  0.10234548540E+01 0.  0.
     999903    2    3    3    0    0  0.35128759465E-02  0.24930941843E-01 -0.13143299759E+00  0.13537629851E+00  0.20450359063E-01 0.  0.
         14    1    1    2    0    0 -0.71827415254E-03 -0.17195873173E-01  0.10716125221E-01  0.20274351079E-01  0.00000000000E+00 0.  1.
     999901    1    3    3    0    0 -0.27946017939E-02 -0.77350686704E-02  0.12071687237E+00  0.88827935041E+00  0.88000000000E+00 0. -1.
        -11    1    4    4    0    0  0.62844996426E-03  0.19545640896E-01 -0.12487933706E+00  0.12640228231E+00  0.51100000000E-03 0. -1.
         11    1    4    4    0    0  0.28844259822E-02  0.53853009475E-02 -0.65536605300E-02  0.89740162070E-02  0.51100000000E-03 0.  1.
</event>
<event>
 8    1  0.1101883E+005  0.1043930E+01  0.7957747E-01            NaN
         13   -1    0    0    0    0  0.00000000000E+00  0.00000000000E+00  0.74505805969E-08  0.10566000000E+00  0.10566000000E+00 0. -1.
     999900   -1    0    0    0    0 -0.00000000000E+00 -0.00000000000E+00 -0.74505805969E-08  0.93827000000E+00  0.93827000000E+00 0. -1.
     999902    2    1    2    0    0 -0.15245625134E-01  0.18294834852E-01 -0.75784140002E-02  0.10189387530E+01  0.10186322300E+01 0.  0.
     999903    2    3    3    0    0  0.10221563077E+00  0.41890747624E-01 -0.63810238731E-01  0.12904216808E+00  0.19423302103E-01 0.  0.
         14    1    1    2    0    0  0.15245625134E-01 -0.18294834852E-01  0.75784140002E-02  0.24991247003E-01  0.00000000000E+00 0. -1.
     999901    1    3    3    0    0 -0.11746125591E+00 -0.23595912772E-01  0.56231824730E-01  0.88989658492E+00  0.88000000000E+00 0.  1.
        -11    1    4    4    0    0  0.26221788674E-01  0.72149630165E-02 -0.72125861893E-02  0.28141080526E-01  0.51100000000E-03 0.  1.
         11    1    4    4    0    0  0.75993842099E-01  0.34675784607E-01 -0.56597652541E-01  0.10090108755E+00  0.51100000000E-03 0. -1.
</event>
<event>
 8    1  0.1101883E+005  0.1043930E+01  0.7957747E-01            NaN
         13   -1    0    0    0    0  0.00000000000E+00  0.00000000000E+00  0.74505805969E-08  0.10566000000E+00  0.10566000000E+00 0.  1.
     999900   -1    0    0    0    0 -0.00000000000E+00 -0.00000000000E+00 -0.74505805969E-08  0.93827000000E+00  0.93827000000E+00 0.  1.
     999902    2    1    2    0    0 -0.12760773131E-01  0.16587707602E-01  0.11133287959E-01  0.10202247374E+01  0.10199493004E+01 0.  0.
     999903    2    3    3    0    0 -0.55274546669E-01  0.19830997730E-01 -0.11446249202E+00  0.13028527888E+00  0.20592421737E-01 0.  0.
         14    1    1    2    0    0  0.12760773131E-01 -0.16587707602E-01 -0.11133287959E-01  0.23705262605E-01  0.00000000000E+00 0. -1.
     999901    1    3    3    0    0  0.42513773538E-01 -0.32432901287E-02  0.12559577998E+00  0.88993945851E+00  0.88000000000E+00 0. -1.
        -11    1    4    4    0    0 -0.11106303442E-01 -0.26665648186E-02 -0.12680048586E-01  0.17073526209E-01  0.51100000000E-03 0.  1.
         11    1    4    4    0    0 -0.44168243227E-01  0.22497562549E-01 -0.10178244344E+00  0.11321175267E+00  0.51100000000E-03 0. -1.
</event>
<event>
 8    1  0.1101883E+005  0.1043930E+01  0.7957747E-01            NaN
         13   -1    0    0    0    0  0.00000000000E+00  0.00000000000E+00  0.74505805969E-08  0.10566000000E+00  0.10566000000E+00 0.  1.
     999900   -1    0    0    0    0 -0.00000000000E+00 -0.00000000000E+00 -0.74505805969E-08  0.93827000000E+00  0.93827000000E+00 0. -1.
     999902    2    1    2    0    0 -0.19272884316E-01  0.13919600756E-01  0.32521214132E-02  0.10199346744E+01  0.10196523743E+01 0.  0.
     999903    2    3    3    0    0  0.81422474607E-01 -0.93860582271E-01 -0.19319541996E-01  0.12737341427E+00  0.20280869929E-01 0.  0.
         14    1    1    2    0    0  0.19272884316E-01 -0.13919600756E-01 -0.32521214132E-02  0.23995325560E-01  0.00000000000E+00 0. -1.
     999901    1    3    3    0    0 -0.10069535892E+00  0.10778018303E+00  0.22571663409E-01  0.89256126017E+00  0.88000000000E+00 0. -1.
        -11    1    4    4    0    0  0.10347307986E-01 -0.10572681191E-01 -0.91653309879E-02  0.17410134498E-01  0.51100000000E-03 0. -1.
         11    1    4    4    0    0  0.71075166621E-01 -0.83287901080E-01 -0.10154211008E-01  0.10996327977E+00  0.51100000000E-03 0.  1.
</event>
<event>
 8    1  0.1101883E+005  0.1043930E+01  0.7957747E-01            NaN
         13   -1    0    0    0    0  0.00000000000E+00  0.00000000000E+00  0.74505805969E-08  0.10566000000E+00  0.10566000000E+00 0. -1.
     999900   -1    0    0    0    0 -0.00000000000E+00 -0.00000000000E+00 -0.74505805969E-08  0.93827000000E+00  0.93827000000E+00 0.  1.
     999902    2    1    2    0    0  0.12592458336E-01 -0.10039585970E-01 -0.17195809006E-01  0.10203703069E+01  0.10200982815E+01 0.  0.
     999903    2    3    3    0    0 -0.12637127022E+00  0.19840897261E-02  0.15251601850E-01  0.12879399431E+00  0.19535789297E-01 0.  0.
         14    1    1    2    0    0 -0.12592458336E-01  0.10039585970E-01  0.17195809006E-01  0.23559693138E-01  0.00000000000E+00 0. -1.
     999901    1    3    3    0    0  0.13896372855E+00 -0.12023675696E-01 -0.32447410856E-01  0.89157631255E+00  0.88000000000E+00 0.  1.
        -11    1    4    4    0    0 -0.25124781737E-01 -0.74219647519E-02  0.33236749146E-02  0.26413030005E-01  0.51100000000E-03 0. -1.
         11    1    4    4    0    0 -0.10124648848E+00  0.94060544780E-02  0.11927926936E-01  0.10238096431E+00  0.51100000000E-03 0.  1.
</event>
<event>
 8    1  0.1314799E+005  0.1043930E+01  0.7957747E-01            NaN
         13   -1    0    0    0    0  0.00000000000E+00  0.00000000000E+00  0.74505805969E-08  0.10566000000E+00  0.10566000000E+00 0.  1.
     999900   -1    0    0    0    0 -0.00000000000E+00 -0.00000000000E+00 -0.74505805969E-08  0.93827000000E+00  0.93827000000E+00 0. -1.
     999902    2    1    2    0    0  0.16677317469E-01  0.36826740856E-02 -0.14652554490E-01  0.10214268367E+01  0.10211789218E+01 0.  0.
     999903    2    3    3    0    0  0.11379120256E+00  0.66078670372E-01  0.95880240091E-02  0.13355749231E+00  0.20756808228E-01 0.  0.
         14    1    1    2    0    0 -0.16677317469E-01 -0.36826740856E-02  0.14652554490E-01  0.22503163321E-01  0.00000000000E+00 0.  1.
     999901    1    3    3    0    0 -0.97113885095E-01 -0.62395996286E-01 -0.24240578499E-01  0.88786934437E+00  0.88000000000E+00 0. -1.
        -11    1    4    4    0    0  0.53394647772E-01  0.41466286635E-01  0.99518684788E-02  0.68335511597E-01  0.51100000000E-03 0. -1.
         11    1    4    4    0    0  0.60396554791E-01  0.24612383737E-01 -0.36384446972E-03  0.65221980710E-01  0.51100000000E-03 0.  1.
</event>
<event>
 8    1  0.1101883E+005  0.1043930E+01  0.7957747E-01            NaN
         13   -1    0    0    0    0  0.00000000000E+00  0.00000000000E+00  0.74505805969E-08  0.10566000000E+00  0.10566000000E+00 0.  1.
     999900   -1    0    0    0    0 -0.00000000000E+00 -0.00000000000E+00 -0.74505805969E-08  0.93827000000E+00  0.93827000000E+00 0. -1.
     999902    2    1    2    0    0 -0.12287387813E-01  0.83562673518E-02  0.19428284271E-01  0.10194705369E+01  0.10191770751E+01 0.  0.
     999903    2    3    3    0    0 -0.67335146880E-01  0.32819334935E-01 -0.10310343334E+00  0.12894107686E+00  0.19604912284E-01 0.  0.
         14    1    1    2    0    0  0.12287387813E-01 -0.83562673518E-02 -0.19428284271E-01  0.24459463057E-01  0.00000000000E+00 0. -1.
     999901    1    3    3    0    0  0.55047759067E-01 -0.24463067583E-01  0.12253171761E+00  0.89052946008E+00  0.88000000000E+00 0.  1.
        -11    1    4    4    0    0 -0.24083860838E-01  0.21773065749E-02 -0.27764855284E-01  0.36822837027E-01  0.51100000000E-03 0.  1.
         11    1    4    4    0    0 -0.43251286042E-01  0.30642028360E-01 -0.75338578052E-01  0.92118239834E-01  0.51100000000E-03 0. -1.
</event>
<event>
 8    1  0.1101883E+005  0.1043930E+01  0.7957747E-01            NaN
         13   -1    0    0    0    0  0.00000000000E+00  0.00000000000E+00  0.74505805969E-08  0.10566000000E+00  0.10566000000E+00 0.  1.
     999900   -1    0    0    0    0 -0.00000000000E+00 -0.00000000000E+00 -0.74505805969E-08  0.93827000000E+00  0.93827000000E+00 0.  1.
     999902    2    1    2    0    0 -0.18231417442E-01 -0.10343127113E-01 -0.44149438184E-02  0.10225090619E+01  0.10222846595E+01 0.  0.
     999903    2    3    3    0    0  0.55722655413E-01 -0.11779718977E+00 -0.15495598170E-01  0.13282464516E+00  0.20520247463E-01 0.  0.
         14    1    1    2    0    0  0.18231417442E-01  0.10343127113E-01  0.44149438184E-02  0.21420938106E-01  0.00000000000E+00 0.  1.
     999901    1    3    3    0    0 -0.73954072854E-01  0.10745406266E+00  0.11080654351E-01  0.88968441673E+00  0.88000000000E+00 0.  1.
        -11    1    4    4    0    0  0.48170521158E-02 -0.29571981484E-01 -0.14466429760E-02  0.30000999598E-01  0.51100000000E-03 0.  1.
         11    1    4    4    0    0  0.50905603297E-01 -0.88225208287E-01 -0.14048955194E-01  0.10282364556E+00  0.51100000000E-03 0. -1.
</event>
<event>
 8    1  0.1101883E+005  0.1043930E+01  0.7957747E-01            NaN
         13   -1    0    0    0    0  0.00000000000E+00  0.00000000000E+00  0.74505805969E-08  0.10566000000E+00  0.10566000000E+00 0. -1.
     999900   -1    0    0    0    0 -0.00000000000E+00 -0.00000000000E+00 -0.74505805969E-08  0.93827000000E+00  0.93827000000E+00 0.  1.
     999902    2    1    2    0    0 -0.96947098646E-03  0.19635191883E-01  0.15205154220E-01  0.10190768845E+01  0.10187737822E+01 0.  0.
     999903    2    3    3    0    0  0.46790975608E-01  0.74566956137E-01  0.96799224582E-01  0.13230963698E+00  0.19650033415E-01 0.  0.
         14    1    1    2    0    0  0.96947098646E-03 -0.19635191883E-01 -0.15205154220E-01  0.24853115481E-01  0.00000000000E+00 0.  1.
     999901    1    3    3    0    0 -0.47760446594E-01 -0.54931764254E-01 -0.81594070363E-01  0.88676724754E+00  0.88000000000E+00 0.  1.
        -11    1    4    4    0    0  0.40374149993E-01  0.68468482380E-01  0.93797466834E-01  0.12294808243E+00  0.51100000000E-03 0. -1.
         11    1    4    4    0    0  0.64168256153E-02  0.60984737568E-02  0.30017577485E-02  0.93615545568E-02  0.51100000000E-03 0.  1.
</event>
<event>
 8    1  0.1101883E+005  0.1043930E+01  0.7957747E-01            NaN
         13   -1    0    0    0    0  0.00000000000E+00  0.00000000000E+00  0.74505805969E-08  0.10566000000E+00  0.10566000000E+00 0.  1.
     999900   -1    0    0    0    0 -0.00000000000E+00 -0.00000000000E+00 -0.74505805969E-08  0.93827000000E+00  0.93827000000E+00 0.  1.
     999902    2    1    2    0    0  0.18897505547E-01 -0.14177317520E-01  0.24181723554E-02  0.10201821663E+01  0.10199057274E+01 0.  0.
     999903    2    3    3    0    0  0.10305483374E+00 -0.76059619367E-01  0.32420226383E-01  0.13349620249E+00  0.19099752501E-01 0.  0.
         14    1    1    2    0    0 -0.18897505547E-01  0.14177317520E-01 -0.24181723554E-02  0.23747833702E-01  0.00000000000E+00 0.  1.
     999901    1    3    3    0    0 -0.84157328190E-01  0.61882301846E-01 -0.30002054028E-01  0.88668596381E+00  0.88000000000E+00 0.  1.
        -11    1    4    4    0    0  0.49923265419E-01 -0.27779236157E-01  0.81519962663E-02  0.57712516456E-01  0.51100000000E-03 0. -1.
         11    1    4    4    0    0  0.53131568318E-01 -0.48280383210E-01  0.24268230117E-01  0.75783686033E-01  0.51100000000E-03 0.  1.
</event>
<event>
 8    1  0.1101883E+005  0.1043930E+01  0.7957747E-01            NaN
         13   -1    0    0    0    0  0.00000000000E+00  0.00000000000E+00  0.74505805969E-08  0.10566000000E+00  0.10566000000E+00 0. -1.
     999900   -1    0    0    0    0 -0.00000000000E+00 -0.00000000000E+00 -0.74505805969E-08  0.93827000000E+00  0.93827000000E+00 0. -1.
     999902    2    1    2    0    0  0.29399175900E-02 -0.42366514910E-04  0.23580567815E-01  0.10201668334E+01  0.10198900332E+01 0.  0.
     999903    2    3    3    0    0  0.97029858434E-01  0.43972002078E-01  0.76479096264E-01  0.13247970609E+00  0.18801328809E-01 0.  0.
         14    1    1    2    0    0 -0.29399175900E-02  0.42366514910E-04 -0.23580567815E-01  0.23763166642E-01  0.00000000000E+00 0.  1.
     999901    1    3    3    0    0 -0.94089940844E-01 -0.44014368593E-01 -0.52898528449E-01  0.88768712727E+00  0.88000000000E+00 0. -1.
        -11    1    4    4    0    0  0.52006204600E-01  0.32037580159E-01  0.36981025042E-01  0.71406646704E-01  0.51100000000E-03 0. -1.
         11    1    4    4    0    0  0.45023653834E-01  0.11934421919E-01  0.39498071223E-01  0.61073059383E-01  0.51100000000E-03 0.  1.
</event>
<event>
 8    1  0.1101883E+005  0.1043930E+01  0.7957747E-01            NaN
         13   -1    0    0    0    0  0.00000000000E+00  0.00000000000E+00  0.74505805969E-08  0.10566000000E+00  0.10566000000E+00 0.  1.
     999900   -1    0    0    0    0 -0.00000000000E+00 -0.00000000000E+00 -0.74505805969E-08  0.93827000000E+00  0.93827000000E+00 0.  1.
     999902    2    1    2    0    0 -0.13278622807E-01 -0.12459384144E-01 -0.15213699605E-01  0.10202020685E+01  0.10199260982E+01 0.  0.
     999903    2    3    3    0    0  0.58710212547E-01 -0.10428074164E+00 -0.51380766855E-01  0.13176433245E+00  0.20012345414E-01 0.  0.
         14    1    1    2    0    0  0.13278622807E-01  0.12459384144E-01  0.15213699605E-01  0.23727931486E-01  0.00000000000E+00 0.  1.
     999901    1    3    3    0    0 -0.71988835354E-01  0.91821357497E-01  0.36167067250E-01  0.88843773606E+00  0.88000000000E+00 0.  1.
        -11    1    4    4    0    0  0.49166258004E-01 -0.68752306542E-01 -0.36815294900E-01  0.92194509817E-01  0.51100000000E-03 0.  1.
         11    1    4    4    0    0  0.95439545434E-02 -0.35528435100E-01 -0.14565471955E-01  0.39569822634E-01  0.51100000000E-03 0. -1.
</event>
<event>
 8    1  0.1101883E+005  0.1043930E+01  0.7957747E-01            NaN
         13   -1    0    0    0    0  0.00000000000E+00  0.00000000000E+00  0.74505805969E-08  0.10566000000E+00  0.10566000000E+00 0. -1.
     999900   -1    0    0    0    0 -0.00000000000E+00 -0.00000000000E+00 -0.74505805969E-08  0.93827000000E+00  0.93827000000E+00 0.  1.
     999902    2    1    2    0    0 -0.11475402605E-01 -0.18152765699E-02 -0.20268167257E-01  0.10205680930E+01  0.10203006683E+01 0.  0.
     999903    2    3    3    0    0  0.79216337784E-01  0.99415238063E-01  0.14301826746E-01  0.12946333298E+00  0.19939774516E-01 0.  0.
         14    1    1    2    0    0  0.11475402605E-01  0.18152765699E-02  0.20268167257E-01  0.23361906984E-01  0.00000000000E+00 0. -1.
     999901    1    3    3    0    0 -0.90691740388E-01 -0.10123051463E+00 -0.34569994003E-01  0.89110476003E+00  0.88000000000E+00 0.  1.
        -11    1    4    4    0    0  0.50105366885E-01  0.47710849485E-01  0.46518887426E-02  0.69345325287E-01  0.51100000000E-03 0. -1.
         11    1    4    4    0    0  0.29110970899E-01  0.51704388578E-01  0.96499380035E-02  0.60118007696E-01  0.51100000000E-03 0.  1.
</event>
<event>
 8    1  0.1101883E+005  0.1043930E+01  0.7957747E-01            NaN
         13   -1    0    0    0    0  0.00000000000E+00  0.00000000000E+00  0.74505805969E-08  0.10566000000E+00  0.10566000000E+00 0.  1.
     999900   -1    0    0    0    0 -0.00000000000E+00 -0.00000000000E+00 -0.74505805969E-08  0.93827000000E+00  0.93827000000E+00 0. -1.
     999902    2    1    2    0    0  0.19477270924E-01 -0.17436588439E-01 -0.46348753892E-02  0.10173804093E+01  0.10170339308E+01 0.  0.
     999903    2    3    3    0    0 -0.11885889460E+00  0.11191204142E-01 -0.33797380085E-01  0.12563666978E+00  0.19739048070E-01 0.  0.
         14    1    1    2    0    0 -0.19477270924E-01  0.17436588439E-01  0.46348753892E-02  0.26549590749E-01  0.00000000000E+00 0.  1.
     999901    1    3    3    0    0  0.13833616552E+00 -0.28627792581E-01  0.29162504695E-01  0.89174373947E+00  0.88000000000E+00 0.  1.
        -11    1    4    4    0    0 -0.68185722130E-01  0.79296223114E-02 -0.93613154470E-02  0.69282515545E-01  0.51100000000E-03 0.  1.
         11    1    4    4    0    0 -0.50673172468E-01  0.32615818304E-02 -0.24436064638E-01  0.56354154239E-01  0.51100000000E-03 0. -1.
</event>
<event>
 8    1  0.1101883E+005  0.1043930E+01  0.7957747E-01            NaN
         13   -1    0    0    0    0  0.00000000000E+00  0.00000000000E+00  0.74505805969E-08  0.10566000000E+00  0.10566000000E+00 0. -1.
     999900   -1    0    0    0    0 -0.00000000000E+00 -0.00000000000E+00 -0.74505805969E-08  0.93827000000E+00  0.93827000000E+00 0.  1.
     999902    2    1    2    0    0  0.25920802021E-01  0.73495679760E-02 -0.10606862429E-01  0.10149746955E+01  0.10145615915E+01 0.  0.
     999903    2    3    3    0    0  0.78667976082E-01  0.16655387713E-01  0.96072063189E-01  0.12691543183E+00  0.20288743460E-01 0.  0.
         14    1    1    2    0    0 -0.25920802021E-01 -0.73495679760E-02  0.10606862429E-01  0.28955304478E-01  0.00000000000E+00 0. -1.
     999901    1    3    3    0    0 -0.52747174061E-01 -0.93058197374E-02 -0.10667892562E+00  0.88805926369E+00  0.88000000000E+00 0.  1.
        -11    1    4    4    0    0  0.36790642346E-01  0.12337940130E-01  0.60089473753E-01  0.71531686041E-01  0.51100000000E-03 0.  1.
         11    1    4    4    0    0  0.41877333736E-01  0.43174475833E-02  0.35982589436E-01  0.55383745793E-01  0.51100000000E-03 0. -1.
</event>
<event>
 8    1  0.1101883E+005  0.1043930E+01  0.7957747E-01            NaN
         13   -1    0    0    0    0  0.00000000000E+00  0.00000000000E+00  0.74505805969E-08  0.10566000000E+00  0.10566000000E+00 0.  1.
     999900   -1    0    0    0    0 -0.00000000000E+00 -0.00000000000E+00 -0.74505805969E-08  0.93827000000E+00  0.93827000000E+00 0.  1.
     999902    2    1    2    0    0 -0.22020407974E-01 -0.29194782244E-02  0.10867709825E-01  0.10192008909E+01  0.10189008427E+01 0.  0.
     999903    2    3    3    0    0  0.81414267359E-01 -0.32270188684E-01 -0.89631719409E-01  0.12697875961E+00  0.20496640245E-01 0.  0.
         14    1    1    2    0    0  0.22020407974E-01  0.29194782244E-02 -0.10867709825E-01  0.24729109108E-01  0.00000000000E+00 0. -1.
     999901    1    3    3    0    0 -0.10343467533E+00  0.29350710460E-01  0.10049942923E+00  0.89222213128E+00  0.88000000000E+00 0. -1.
        -11    1    4    4    0    0  0.57649776505E-01 -0.23009214868E-01 -0.49359396099E-01  0.79306568480E-01  0.51100000000E-03 0. -1.
         11    1    4    4    0    0  0.23764490855E-01 -0.92609738164E-02 -0.40272323311E-01  0.47672191133E-01  0.51100000000E-03 0.  1.
</event>
<event>
 7    1  0.1101883E+005  0.1043930E+01  0.7957747E-01            NaN
         13   -1    0    0    0    0  0.00000000000E+00  0.00000000000E+00  0.74505805969E-08  0.10566000000E+00  0.10566000000E+00 0.  1.
     999900   -1    0    0    0    0 -0.00000000000E+00 -0.00000000000E+00 -0.74505805969E-08  0.93827000000E+00  0.93827000000E+00 0. -1.
     999903    2    1    2    0    0 -0.87472019189E-01  0.30727489060E-01  0.89860090295E-02  0.95209339921E-01  0.19711350156E-01 0.  0.
         14    1    1    2    0    0 -0.29000017473E-01 -0.19007562435E-01  0.47917551731E-01  0.59147106497E-01  0.00000000000E+00 0.  1.
     999901    1    1    2    0    0  0.11647203666E+00 -0.11719926626E-01 -0.56903560760E-01  0.88957355358E+00  0.88000000000E+00 0. -1.
        -11    1    3    3    0    0 -0.73027398402E-01  0.17464217428E-01  0.55437679893E-02  0.75292724033E-01  0.51100000000E-03 0.  1.
         11    1    3    3    0    0 -0.14444620787E-01  0.13263271632E-01  0.34422410402E-02  0.19916615889E-01  0.51100000000E-03 0. -1.
</event>
<event>
 8    1  0.1101883E+005  0.1043930E+01  0.7957747E-01            NaN
         13   -1    0    0    0    0  0.00000000000E+00  0.00000000000E+00  0.74505805969E-08  0.10566000000E+00  0.10566000000E+00 0. -1.
     999900   -1    0    0    0    0 -0.00000000000E+00 -0.00000000000E+00 -0.74505805969E-08  0.93827000000E+00  0.93827000000E+00 0. -1.
     999902    2    1    2    0    0 -0.49446038500E-02  0.13935480056E-01  0.19474546123E-01  0.10194779110E+01  0.10191846282E+01 0.  0.
     999903    2    3    3    0    0  0.11028190200E+00 -0.47699261207E-01  0.44054434683E-01  0.12948905715E+00  0.19730820505E-01 0.  0.
         14    1    1    2    0    0  0.49446038500E-02 -0.13935480056E-01 -0.19474546123E-01  0.24452089038E-01  0.00000000000E+00 0.  1.
     999901    1    3    3    0    0 -0.11522650585E+00  0.61634741263E-01 -0.24579888560E-01  0.88998885381E+00  0.88000000000E+00 0. -1.
        -11    1    4    4    0    0  0.27174123538E-01 -0.29348773809E-02  0.11088769071E-01  0.29500312131E-01  0.51100000000E-03 0.  1.
         11    1    4    4    0    0  0.83107778466E-01 -0.44764383826E-01  0.32965665612E-01  0.99988745022E-01  0.51100000000E-03 0. -1.
</event>
<event>
 8    1  0.1101883E+005  0.1043930E+01  0.7957747E-01            NaN
         13   -1    0    0    0    0  0.00000000000E+00  0.00000000000E+00  0.74505805969E-08  0.10566000000E+00  0.10566000000E+00 0. -1.
     999900   -1    0    0    0    0 -0.00000000000E+00 -0.00000000000E+00 -0.74505805969E-08  0.93827000000E+00  0.93827000000E+00 0. -1.
     999902    2    1    2    0    0  0.23811462304E-02 -0.15319628866E-02 -0.23267058902E-01  0.10204912970E+01  0.10202220908E+01 0.  0.
     999903    2    3    3    0    0 -0.84773748470E-01  0.42382891064E-01 -0.90536993082E-01  0.13254437624E+00  0.19701945891E-01 0.  0.
         14    1    1    2    0    0 -0.23811462304E-02  0.15319628866E-02  0.23267058902E-01  0.23438702985E-01  0.00000000000E+00 0. -1.
     999901    1    3    3    0    0  0.87154894701E-01 -0.43914853951E-01  0.67269934180E-01  0.88794692077E+00  0.88000000000E+00 0.  1.
        -11    1    4    4    0    0 -0.57805774294E-01  0.31594757731E-01 -0.50151466285E-01  0.82795935585E-01  0.51100000000E-03 0.  1.
         11    1    4    4    0    0 -0.26967974176E-01  0.10788133334E-01 -0.40385526797E-01  0.49748440656E-01  0.51100000000E-03 0. -1.
</event>
<event>
 8    1  0.1101883E+005  0.1043930E+01  0.7957747E-01            NaN
         13   -1    0    0    0    0  0.00000000000E+00  0.00000000000E+00  0.74505805969E-08  0.10566000000E+00  0.10566000000E+00 0.  1.
     999900   -1    0    0    0    0 -0.00000000000E+00 -0.00000000000E+00 -0.74505805969E-08  0.93827000000E+00  0.93827000000E+00 0.  1.
     999902    2    1    2    0    0 -0.22336668001E-02  0.23301619724E-01 -0.48169188757E-05  0.10205215662E+01  0.10202530629E+01 0.  0.
     999903    2    3    3    0    0  0.78487184487E-01  0.75360444982E-01 -0.72874001460E-01  0.13230093193E+00  0.18801109087E-01 0.  0.
         14    1    1    2    0    0  0.22336668001E-02 -0.23301619724E-01  0.48169188757E-05  0.23408433787E-01  0.00000000000E+00 0. -1.
     999901    1    3    3    0    0 -0.80720851287E-01 -0.52058825258E-01  0.72869184541E-01  0.88822063429E+00  0.88000000000E+00 0. -1.
        -11    1    4    4    0    0  0.46116450650E-01  0.34233074945E-01 -0.30979273544E-01  0.65258002966E-01  0.51100000000E-03 0. -1.
         11    1    4    4    0    0  0.32370733836E-01  0.41127370037E-01 -0.41894727916E-01  0.67042928959E-01  0.51100000000E-03 0.  1.
</event>
<event>
 8    1  0.1101883E+005  0.1043930E+01  0.7957747E-01            NaN
         13   -1    0    0    0    0  0.00000000000E+00  0.00000000000E+00  0.74505805969E-08  0.10566000000E+00  0.10566000000E+00 0.  1.
     999900   -1    0    0    0    0 -0.00000000000E+00 -0.00000000000E+00 -0.74505805969E-08  0.93827000000E+00  0.93827000000E+00 0. -1.
     999902    2    1    2    0    0 -0.12992526550E-01 -0.19617505008E-01  0.70097753559E-03  0.10203897447E+01  0.10201181733E+01 0.  0.
     999903    2    3    3    0    0 -0.95690697232E-01 -0.52079274993E-01 -0.73210980811E-01  0.13283370056E+00  0.20395682704E-01 0.  0.
         14    1    1    2    0    0  0.12992526550E-01  0.19617505008E-01 -0.70097753559E-03  0.23540255275E-01  0.00000000000E+00 0. -1.
     999901    1    3    3    0    0  0.82698170682E-01  0.32461769985E-01  0.73911958347E-01  0.88755604416E+00  0.88000000000E+00 0.  1.
        -11    1    4    4    0    0 -0.23207291428E-01 -0.33956984122E-02 -0.17326256820E-01  0.29164523646E-01  0.51100000000E-03 0. -1.
         11    1    4    4    0    0 -0.72483405804E-01 -0.48683576581E-01 -0.55884723992E-01  0.10366917691E+00  0.51100000000E-03 0.  1.
</event>
<event>
 8    1  0.1101883E+005  0.1043930E+01  0.7957747E-01            NaN
         13   -1    0    0    0    0  0.00000000000E+00  0.00000000000E+00  0.74505805969E-08  0.10566000000E+00  0.10566000000E+00 0.  1.
     999900   -1    0    0    0    0 -0.00000000000E+00 -0.00000000000E+00 -0.74505805969E-08  0.93827000000E+00  0.93827000000E+00 0.  1.
     999902    2    1    2    0    0 -0.17677414197E-01 -0.11023175833E-01  0.11859947961E-01  0.10199579383E+01  0.10196761918E+01 0.  0.
     999903    2    3    3    0    0 -0.31207416653E-02  0.64423093417E-01 -0.10914982404E+00  0.12835970970E+00  0.20061330773E-01 0.  0.
         14    1    1    2    0    0  0.17677414197E-01  0.11023175833E-01 -0.11859947961E-01  0.23972061734E-01  0.00000000000E+00 0. -1.
     999901    1    3    3    0    0 -0.14556672532E-01 -0.75446269250E-01  0.12100977200E+00  0.89159822856E+00  0.88000000000E+00 0. -1.
        -11    1    4    4    0    0  0.51544502895E-02  0.25372391047E-01 -0.29416670237E-01  0.39190919791E-01  0.51100000000E-03 0.  1.
         11    1    4    4    0    0 -0.82751919548E-02  0.39050702371E-01 -0.79733153805E-01  0.89168789911E-01  0.51100000000E-03 0. -1.
</event>
<event>
 8    1  0.1101883E+005  0.1043930E+01  0.7957747E-01            NaN
         13   -1    0    0    0    0  0.00000000000E+00  0.00000000000E+00  0.74505805969E-08  0.10566000000E+00  0.10566000000E+00 0. -1.
     999900   -1    0    0    0    0 -0.00000000000E+00 -0.00000000000E+00 -0.74505805969E-08  0.93827000000E+00  0.93827000000E+00 0.  1.
     999902    2    1    2    0    0 -0.22284115156E-01  0.19897025726E-02  0.95845704573E-02  0.10195906349E+01  0.10193000824E+01 0.  0.
     999903    2    3    3    0    0 -0.10317152362E+00 -0.75474454429E-01 -0.25925081487E-01  0.13178186950E+00  0.18804114475E-01 0.  0.
         14    1    1    2    0    0  0.22284115156E-01 -0.19897025726E-02 -0.95845704573E-02  0.24339365141E-01  0.00000000000E+00 0.  1.
     999901    1    3    3    0    0  0.80887408464E-01  0.77464157002E-01  0.35509651944E-01  0.88780876536E+00  0.88000000000E+00 0.  1.
        -11    1    4    4    0    0 -0.97176271252E-01 -0.65746769537E-01 -0.26660649445E-01  0.12032005963E+00  0.51100000000E-03 0.  1.
         11    1    4    4    0    0 -0.59952523687E-02 -0.97276848922E-02  0.73556795797E-03  0.11461809872E-01  0.51100000000E-03 0. -1.
</event>
<event>
 8    1  0.1101883E+005  0.1043930E+01  0.7957747E-01            NaN
         13   -1    0    0    0    0  0.00000000000E+00  0.00000000000E+00  0.74505805969E-08  0.10566000000E+00  0.10566000000E+00 0. -1.
     999900   -1    0    0    0    0 -0.00000000000E+00 -0.00000000000E+00 -0.74505805969E-08  0.93827000000E+00  0.93827000000E+00 0. -1.
     999902    2    1    2    0    0 -0.24804650748E-01  0.10189373999E-01  0.17988890655E-02  0.10170538016E+01  0.10166986305E+01 0.  0.
     999903    2    3    3    0    0  0.54115189861E-01  0.77888835968E-01 -0.81805664610E-01  0.12699690461E+00  0.20998154121E-01 0.  0.
         14    1    1    2    0    0  0.24804650748E-01 -0.10189373999E-01 -0.17988890655E-02  0.26876198450E-01  0.00000000000E+00 0. -1.
     999901    1    3    3    0    0 -0.78919840610E-01 -0.67699461969E-01  0.83604553676E-01  0.89005689694E+00  0.88000000000E+00 0. -1.
        -11    1    4    4    0    0  0.30530717212E-01  0.34410415357E-01 -0.27759508198E-01  0.53731301816E-01  0.51100000000E-03 0. -1.
         11    1    4    4    0    0  0.23584472649E-01  0.43478420611E-01 -0.54046156413E-01  0.73265602795E-01  0.51100000000E-03 0.  1.
</event>
<event>
 8    1  0.1101883E+005  0.1043930E+01  0.7957747E-01            NaN
         13   -1    0    0    0    0  0.00000000000E+00  0.00000000000E+00  0.74505805969E-08  0.10566000000E+00  0.10566000000E+00 0. -1.
     999900   -1    0    0    0    0 -0.00000000000E+00 -0.00000000000E+00 -0.74505805969E-08  0.93827000000E+00  0.93827000000E+00 0. -1.
     999902    2    1    2    0    0 -0.10867466985E-01  0.24741777520E-02  0.19507062398E-01  0.10214633830E+01  0.10212162817E+01 0.  0.
     999903    2    3    3    0    0 -0.47424478761E-01 -0.75005962045E-01 -0.93078012692E-01  0.13016377780E+00  0.20102663396E-01 0.  0.
         14    1    1    2    0    0  0.10867466985E-01 -0.24741777520E-02 -0.19507062398E-01  0.22466616960E-01  0.00000000000E+00 0.  1.
     999901    1    3    3    0    0  0.36557011776E-01  0.77480139797E-01  0.11258507509E+00  0.89129960524E+00  0.88000000000E+00 0.  1.
        -11    1    4    4    0    0 -0.13364192402E-01 -0.30338983244E-01 -0.23009232412E-01  0.40357668913E-01  0.51100000000E-03 0.  1.
         11    1    4    4    0    0 -0.34060286359E-01 -0.44666978801E-01 -0.70068780280E-01  0.89806108885E-01  0.51100000000E-03 0. -1.
</event>
<event>
 8    1  0.1101883E+005  0.1043930E+01  0.7957747E-01            NaN
         13   -1    0    0    0    0  0.00000000000E+00  0.00000000000E+00  0.74505805969E-08  0.10566000000E+00  0.10566000000E+00 0.  1.
     999900   -1    0    0    0    0 -0.00000000000E+00 -0.00000000000E+00 -0.74505805969E-08  0.93827000000E+00  0.93827000000E+00 0. -1.
     999902    2    1    2    0    0 -0.24373050551E-02  0.19133752713E-01 -0.12052241270E-01  0.10211858256E+01  0.10209325115E+01 0.  0.
     999903    2    3    3    0    0 -0.77446727420E-01  0.10572414467E+00 -0.18674223628E-01  0.13373545513E+00  0.18996183233E-01 0.  0.
         14    1    1    2    0    0  0.24373050551E-02 -0.19133752713E-01  0.12052241270E-01  0.22744174385E-01  0.00000000000E+00 0.  1.
     999901    1    3    3    0    0  0.75009422365E-01 -0.86590391954E-01  0.66219823573E-02  0.88745037048E+00  0.88000000000E+00 0. -1.
        -11    1    4    4    0    0 -0.50669411390E-01  0.81562782489E-01 -0.93245980806E-02  0.96473239752E-01  0.51100000000E-03 0.  1.
         11    1    4    4    0    0 -0.26777316030E-01  0.24161362178E-01 -0.93496255469E-02  0.37262215379E-01  0.51100000000E-03 0. -1.
</event>
<event>
 8    1  0.1101883E+005  0.1043930E+01  0.7957747E-01            NaN
         13   -1    0    0    0    0  0.00000000000E+00  0.00000000000E+00  0.74505805969E-08  0.10566000000E+00  0.10566000000E+00 0. -1.
     999900   -1    0    0    0    0 -0.00000000000E+00 -0.00000000000E+00 -0.74505805969E-08  0.93827000000E+00  0.93827000000E+00 0.  1.
     999902    2    1    2    0    0  0.14198607301E-01  0.54198515380E-03  0.16695668248E-01  0.10220065072E+01  0.10217713351E+01 0.  0.
     999903    2    3    3    0    0 -0.10834342621E-01  0.10270537751E+00 -0.77595010380E-01  0.13074069985E+00  0.20158556799E-01 0.  0.
         14    1    1    2    0    0 -0.14198607301E-01 -0.54198515380E-03 -0.16695668248E-01  0.21923492775E-01  0.00000000000E+00 0.  1.
     999901    1    3    3    0    0  0.25032949923E-01 -0.10216339236E+00  0.94290678627E-01  0.89126580737E+00  0.88000000000E+00 0.  1.
        -11    1    4    4    0    0 -0.75409089996E-02  0.24080070062E-01 -0.10539185277E-01  0.27350514256E-01  0.51100000000E-03 0. -1.
         11    1    4    4    0    0 -0.32934336219E-02  0.78625307447E-01 -0.67055825102E-01  0.10339018559E+00  0.51100000000E-03 0.  1.
</event>
<event>
 8    1  0.1101883E+005  0.1043930E+01  0.7957747E-01            NaN
         13   -1    0    0    0    0  0.00000000000E+00  0.00000000000E+00  0.74505805969E-08  0.10566000000E+00  0.10566000000E+00 0.  1.
     999900   -1    0    0    0    0 -0.00000000000E+00 -0.00000000000E+00 -0.74505805969E-08  0.93827000000E+00  0.93827000000E+00 0. -1.
     999902    2    1    2    0    0 -0.66216192914E-02  0.20568570240E-01  0.97127534317E-02  0.10202392950E+01  0.10199642001E+01 0.  0.
     999903    2    3    3    0    0 -0.10305683753E+00  0.69763409170E-01 -0.39878505371E-01  0.13221948867E+00  0.20101068947E-01 0.  0.
         14    1    1    2    0    0  0.66216192914E-02 -0.20568570240E-01 -0.97127534317E-02  0.23690704991E-01  0.00000000000E+00 0. -1.
     999901    1    3    3    0    0  0.96435218243E-01 -0.49194838931E-01  0.49591258803E-01  0.88801980634E+00  0.88000000000E+00 0. -1.
        -11    1    4    4    0    0 -0.52570605931E-01  0.29205306148E-01 -0.10273045340E-01  0.61011598051E-01  0.51100000000E-03 0.  1.
         11    1    4    4    0    0 -0.50486231603E-01  0.40558103023E-01 -0.29605460031E-01  0.71207890622E-01  0.51100000000E-03 0. -1.
</event>
<event>
 8    1  0.1101883E+005  0.1043930E+01  0.7957747E-01            NaN
         13   -1    0    0    0    0  0.00000000000E+00  0.00000000000E+00  0.74505805969E-08  0.10566000000E+00  0.10566000000E+00 0. -1.
     999900   -1    0    0    0    0 -0.00000000000E+00 -0.00000000000E+00 -0.74505805969E-08  0.93827000000E+00  0.93827000000E+00 0.  1.
     999902    2    1    2    0    0 -0.19734894434E-01 -0.14468246611E-01  0.82934144024E-02  0.10180924897E+01  0.10177645801E+01 0.  0.
     999903    2    3    3    0    0  0.17599613981E-02 -0.73062192715E-01 -0.10373002379E+00  0.12879808955E+00  0.22087294271E-01 0.  0.
         14    1    1    2    0    0  0.19734894434E-01  0.14468246611E-01 -0.82934144024E-02  0.25837510344E-01  0.00000000000E+00 0. -1.
     999901    1    3    3    0    0 -0.21494855832E-01  0.58593946104E-01  0.11202343820E+00  0.88929440010E+00  0.88000000000E+00 0. -1.
        -11    1    4    4    0    0 -0.51461144376E-02 -0.12674908847E-01 -0.31825839706E-01  0.34645071830E-01  0.51100000000E-03 0. -1.
         11    1    4    4    0    0  0.69060758357E-02 -0.60387283868E-01 -0.71904184087E-01  0.94153017725E-01  0.51100000000E-03 0.  1.
</event>
<event>
 8    1  0.1101883E+005  0.1043930E+01  0.7957747E-01            NaN
         13   -1    0    0    0    0  0.00000000000E+00  0.00000000000E+00  0.74505805969E-08  0.10566000000E+00  0.10566000000E+00 0.  1.
     999900   -1    0    0    0    0 -0.00000000000E+00 -0.00000000000E+00 -0.74505805969E-08  0.93827000000E+00  0.93827000000E+00 0.  1.
     999902    2    1    2    0    0 -0.17925819979E-01 -0.13628305526E-01  0.40322523418E-02  0.10210537068E+01  0.10207974076E+01 0.  0.
     999903    2    3    3    0    0 -0.11627360091E+00 -0.62580810579E-01 -0.99446464002E-02  0.13411290408E+00  0.21247751074E-01 0.  0.
         14    1    1    2    0    0  0.17925819979E-01  0.13628305526E-01 -0.40322523418E-02  0.22876293240E-01  0.00000000000E+00 0.  1.
     999901    1    3    3    0    0  0.98347780934E-01  0.48952505053E-01  0.13976898742E-01  0.88694080268E+00  0.88000000000E+00 0. -1.
        -11    1    4    4    0    0 -0.87495856840E-01 -0.55729749776E-01 -0.12135376219E-01  0.10444548076E+00  0.51100000000E-03 0. -1.
         11    1    4    4    0    0 -0.28777744074E-01 -0.68510608032E-02  0.21907298193E-02  0.29667423317E-01  0.51100000000E-03 0.  1.
</event>
<event>
 8    1  0.1101883E+005  0.1043930E+01  0.7957747E-01            NaN
         13   -1    0    0    0    0  0.00000000000E+00  0.00000000000E+00  0.74505805969E-08  0.10566000000E+00  0.10566000000E+00 0. -1.
     999900   -1    0    0    0    0 -0.00000000000E+00 -0.00000000000E+00 -0.74505805969E-08  0.93827000000E+00  0.93827000000E+00 0. -1.
     999902    2    1    2    0    0 -0.35478305826E-02 -0.84775591552E-02  0.20711162252E-01  0.10212714839E+01  0.10210200955E+01 0.  0.
     999903    2    3    3    0    0  0.76583085105E-01  0.86987189436E-01  0.59282496194E-01  0.13165233521E+00  0.19651538392E-01 0.  0.
         14    1    1    2    0    0  0.35478305826E-02  0.84775591552E-02 -0.20711162252E-01  0.22658516123E-01  0.00000000000E+00 0.  1.
     999901    1    3    3    0    0 -0.80130915688E-01 -0.95464748591E-01 -0.38571333942E-01  0.88961914867E+00  0.88000000000E+00 0. -1.
        -11    1    4    4    0    0  0.65721478965E-01  0.82705833009E-01  0.55725580088E-01  0.11943688295E+00  0.51100000000E-03 0. -1.
         11    1    4    4    0    0  0.10861606141E-01  0.42813564271E-02  0.35569161058E-02  0.12215452263E-01  0.51100000000E-03 0.  1.
</event>
<event>
 8    1  0.1101883E+005  0.1043930E+01  0.7957747E-01            NaN
         13   -1    0    0    0    0  0.00000000000E+00  0.00000000000E+00  0.74505805969E-08  0.10566000000E+00  0.10566000000E+00 0.  1.
     999900   -1    0    0    0    0 -0.00000000000E+00 -0.00000000000E+00 -0.74505805969E-08  0.93827000000E+00  0.93827000000E+00 0. -1.
     999902    2    1    2    0    0 -0.20168507196E-01 -0.10725869260E-01 -0.67112895168E-02  0.10201212965E+01  0.10198434219E+01 0.  0.
     999903    2    3    3    0    0 -0.61130922616E-01 -0.27049049832E-01  0.11124565553E+00  0.13115661411E+00  0.18916150646E-01 0.  0.
         14    1    1    2    0    0  0.20168507196E-01  0.10725869260E-01  0.67112895168E-02  0.23808703469E-01  0.00000000000E+00 0. -1.
     999901    1    3    3    0    0  0.40962415420E-01  0.16323180571E-01 -0.11795694504E+00  0.88896468242E+00  0.88000000000E+00 0. -1.
        -11    1    4    4    0    0 -0.51592823762E-01 -0.14351266965E-01  0.84164490105E-01  0.99758211907E-01  0.51100000000E-03 0. -1.
         11    1    4    4    0    0 -0.95380988540E-02 -0.12697782867E-01  0.27081165423E-01  0.31398402207E-01  0.51100000000E-03 0.  1.
</event>
<event>
 8    1  0.1101883E+005  0.1043930E+01  0.7957747E-01            NaN
         13   -1    0    0    0    0  0.00000000000E+00  0.00000000000E+00  0.74505805969E-08  0.10566000000E+00  0.10566000000E+00 0.  1.
     999900   -1    0    0    0    0 -0.00000000000E+00 -0.00000000000E+00 -0.74505805969E-08  0.93827000000E+00  0.93827000000E+00 0.  1.
     999902    2    1    2    0    0 -0.16411524478E-01  0.10083450184E-01 -0.11476050387E-01  0.10215087191E+01  0.10212626251E+01 0.  0.
     999903    2    3    3    0    0 -0.66218770570E-01  0.12565671430E-01 -0.11431119092E+00  0.13411816852E+00  0.19437414491E-01 0.  0.
         14    1    1    2    0    0  0.16411524478E-01 -0.10083450184E-01  0.11476050387E-01  0.22421280869E-01  0.00000000000E+00 0.  1.
     999901    1    3    3    0    0  0.49807246092E-01 -0.24822212460E-02  0.10283514054E+00  0.88739055061E+00  0.88000000000E+00 0. -1.
        -11    1    4    4    0    0 -0.54101362579E-01  0.12353409477E-01 -0.77216409848E-01  0.95090479173E-01  0.51100000000E-03 0. -1.
         11    1    4    4    0    0 -0.12117407991E-01  0.21226195274E-03 -0.37094781077E-01  0.39027689346E-01  0.51100000000E-03 0.  1.
</event>
<event>
 8    1  0.1101883E+005  0.1043930E+01  0.7957747E-01            NaN
         13   -1    0    0    0    0  0.00000000000E+00  0.00000000000E+00  0.74505805969E-08  0.10566000000E+00  0.10566000000E+00 0.  1.
     999900   -1    0    0    0    0 -0.00000000000E+00 -0.00000000000E+00 -0.74505805969E-08  0.93827000000E+00  0.93827000000E+00 0.  1.
     999902    2    1    2    0    0  0.17767553278E-01  0.11721657742E-01 -0.10090089163E-01  0.10203738308E+01  0.10201018878E+01 0.  0.
     999903    2    3    3    0    0 -0.88136491217E-01 -0.17847323044E-01 -0.91465276485E-01  0.12980552211E+00  0.19925078280E-01 0.  0.
         14    1    1    2    0    0 -0.17767553278E-01 -0.11721657742E-01  0.10090089163E-01  0.23556169235E-01  0.00000000000E+00 0.  1.
     999901    1    3    3    0    0  0.10590404450E+00  0.29568980786E-01  0.81375187323E-01  0.89056830865E+00  0.88000000000E+00 0. -1.
        -11    1    4    4    0    0 -0.73055636130E-01 -0.78345180982E-02 -0.67560871116E-01  0.99816021114E-01  0.51100000000E-03 0. -1.
         11    1    4    4    0    0 -0.15080855087E-01 -0.10012804946E-01 -0.23904405370E-01  0.29989500998E-01  0.51100000000E-03 0.  1.
</event>
<event>
 8    1  0.1101883E+005  0.1043930E+01  0.7957747E-01            NaN
         13   -1    0    0    0    0  0.00000000000E+00  0.00000000000E+00  0.74505805969E-08  0.10566000000E+00  0.10566000000E+00 0. -1.
     999900   -1    0    0    0    0 -0.00000000000E+00 -0.00000000000E+00 -0.74505805969E-08  0.93827000000E+00  0.93827000000E+00 0.  1.
     999902    2    1    2    0    0 -0.21304454663E-01 -0.77616631906E-02 -0.67804431277E-02  0.10202636185E+01  0.10199890949E+01 0.  0.
     999903    2    3    3    0    0 -0.12664066753E+00 -0.10939777217E-01 -0.34501036762E-01  0.13354255218E+00  0.22039834594E-01 0.  0.
         14    1    1    2    0    0  0.21304454663E-01  0.77616631906E-02  0.67804431277E-02  0.23666381493E-01  0.00000000000E+00 0. -1.
     999901    1    3    3    0    0  0.10533621286E+00  0.31781140265E-02  0.27720593634E-01  0.88672106632E+00  0.88000000000E+00 0. -1.
        -11    1    4    4    0    0 -0.35142443442E-01  0.64182868700E-02 -0.67016368631E-02  0.36350499240E-01  0.51100000000E-03 0.  1.
         11    1    4    4    0    0 -0.91498224086E-01 -0.17358064087E-01 -0.27799399899E-01  0.97192052944E-01  0.51100000000E-03 0. -1.
</event>
<event>
 8    1  0.1101883E+005  0.1043930E+01  0.7957747E-01            NaN
         13   -1    0    0    0    0  0.00000000000E+00  0.00000000000E+00  0.74505805969E-08  0.10566000000E+00  0.10566000000E+00 0. -1.
     999900   -1    0    0    0    0 -0.00000000000E+00 -0.00000000000E+00 -0.74505805969E-08  0.93827000000E+00  0.93827000000E+00 0. -1.
     999902    2    1    2    0    0  0.14519830946E-01  0.21193614381E-01  0.38686233712E-02  0.10179499879E+01  0.10176184043E+01 0.  0.
     999903    2    3    3    0    0 -0.88363881641E-02  0.85305111268E-01  0.96417099974E-01  0.13046983742E+00  0.19263373120E-01 0.  0.
         14    1    1    2    0    0 -0.14519830946E-01 -0.21193614381E-01 -0.38686233712E-02  0.25980012087E-01  0.00000000000E+00 0.  1.
     999901    1    3    3    0    0  0.23356219110E-01 -0.64111496887E-01 -0.92548476602E-01  0.88748015050E+00  0.88000000000E+00 0.  1.
        -11    1    4    4    0    0  0.43061686820E-02  0.20425041804E-01  0.31193344726E-01  0.37536799246E-01  0.51100000000E-03 0. -1.
         11    1    4    4    0    0 -0.13142556846E-01  0.64880069463E-01  0.65223755248E-01  0.92933038171E-01  0.51100000000E-03 0.  1.
</event>
<event>
 8    1  0.1101883E+005  0.1043930E+01  0.7957747E-01            NaN
         13   -1    0    0    0    0  0.00000000000E+00  0.00000000000E+00  0.74505805969E-08  0.10566000000E+00  0.10566000000E+00 0. -1.
     999900   -1    0    0    0    0 -0.00000000000E+00 -0.00000000000E+00 -0.74505805969E-08  0.93827000000E+00  0.93827000000E+00 0.  1.
     999902    2    1    2    0    0 -0.11543809668E-01  0.19198724358E-01 -0.55329142416E-02  0.10208548251E+01  0.10205939987E+01 0.  0.
     999903    2    3    3    0    0  0.24703010059E-01 -0.43708044815E-01  0.11735954235E+00  0.12935404018E+00  0.20942149886E-01 0.  0.
         14    1    1    2    0    0  0.11543809668E-01 -0.19198724358E-01  0.55329142416E-02  0.23075174942E-01  0.00000000000E+00 0. -1.
     999901    1    3    3    0    0 -0.36246819727E-01  0.62906769173E-01 -0.12289245660E+00  0.89150078488E+00  0.88000000000E+00 0.  1.
        -11    1    4    4    0    0  0.20156617051E-01 -0.36545870793E-01  0.72155811795E-01  0.83358335994E-01  0.51100000000E-03 0. -1.
         11    1    4    4    0    0  0.45463930084E-02 -0.71621740228E-02  0.45203730559E-01  0.45995704186E-01  0.51100000000E-03 0.  1.
</event>
<event>
 8    1  0.1101883E+005  0.1043930E+01  0.7957747E-01            NaN
         13   -1    0    0    0    0  0.00000000000E+00  0.00000000000E+00  0.74505805969E-08  0.10566000000E+00  0.10566000000E+00 0. -1.
     999900   -1    0    0    0    0 -0.00000000000E+00 -0.00000000000E+00 -0.74505805969E-08  0.93827000000E+00  0.93827000000E+00 0.  1.
     999902    2    1    2    0    0  0.20627468609E-01  0.84279556449E-02 -0.85453826535E-02  0.10200648274E+01  0.10197856175E+01 0.  0.
     999903    2    3    3    0    0  0.10663086590E+00 -0.44216933211E-01  0.59826166804E-01  0.13167148129E+00  0.20806970121E-01 0.  0.
         14    1    1    2    0    0 -0.20627468609E-01 -0.84279556449E-02  0.85453826535E-02  0.23865172580E-01  0.00000000000E+00 0. -1.
     999901    1    3    3    0    0 -0.86003397294E-01  0.52644888856E-01 -0.68371549457E-01  0.88839334613E+00  0.88000000000E+00 0. -1.
        -11    1    4    4    0    0  0.47735053812E-01 -0.29196443320E-01  0.22302996932E-01  0.60239127302E-01  0.51100000000E-03 0.  1.
         11    1    4    4    0    0  0.58895812091E-01 -0.15020489891E-01  0.37523169872E-01  0.71432353991E-01  0.51100000000E-03 0. -1.
</event>
<event>
 8    1  0.1101883E+005  0.1043930E+01  0.7957747E-01            NaN
         13   -1    0    0    0    0  0.00000000000E+00  0.00000000000E+00  0.74505805969E-08  0.10566000000E+00  0.10566000000E+00 0.  1.
     999900   -1    0    0    0    0 -0.00000000000E+00 -0.00000000000E+00 -0.74505805969E-08  0.93827000000E+00  0.93827000000E+00 0.  1.
     999902    2    1    2    0    0  0.23700991553E-02  0.20460084203E-01 -0.12300532102E-01  0.10199396789E+01  0.10196574980E+01 0.  0.
     999903    2    3    3    0    0  0.30829388951E-01 -0.57807471450E-01  0.10797406820E+00  0.12786248443E+00  0.19956466191E-01 0.  0.
         14    1    1    2    0    0 -0.23700991553E-02 -0.20460084203E-01  0.12300532102E-01  0.23990321082E-01  0.00000000000E+00 0.  1.
     999901    1    3    3    0    0 -0.28459289795E-01  0.78267555653E-01 -0.12027460030E+00  0.89207719449E+00  0.88000000000E+00 0.  1.
        -11    1    4    4    0    0  0.61927578451E-02 -0.74180705960E-03  0.11634382998E-01  0.13210621340E-01  0.51100000000E-03 0. -1.
         11    1    4    4    0    0  0.24636631106E-01 -0.57065664390E-01  0.96339685202E-01  0.11465186309E+00  0.51100000000E-03 0.  1.
</event>
<event>
 8    1  0.1101883E+005  0.1043930E+01  0.7957747E-01            NaN
         13   -1    0    0    0    0  0.00000000000E+00  0.00000000000E+00  0.74505805969E-08  0.10566000000E+00  0.10566000000E+00 0. -1.
     999900   -1    0    0    0    0 -0.00000000000E+00 -0.00000000000E+00 -0.74505805969E-08  0.93827000000E+00  0.93827000000E+00 0. -1.
     999902    2    1    2    0    0  0.14618271706E-01  0.10450146280E-01  0.15536512762E-01  0.10201753656E+01  0.10198987665E+01 0.  0.
     999903    2    3    3    0    0  0.11052581717E+00  0.38807976967E-01  0.61357893077E-01  0.13332587292E+00  0.16999470839E-01 0.  0.
         14    1    1    2    0    0 -0.14618271706E-01 -0.10450146280E-01 -0.15536512762E-01  0.23754634363E-01  0.00000000000E+00 0.  1.
     999901    1    3    3    0    0 -0.95907545467E-01 -0.28357830687E-01 -0.45821380315E-01  0.88684949272E+00  0.88000000000E+00 0.  1.
        -11    1    4    4    0    0  0.32884829690E-01  0.74669998845E-02  0.10329818700E-01  0.35272289214E-01  0.51100000000E-03 0.  1.
         11    1    4    4    0    0  0.77640987483E-01  0.31340977082E-01  0.51028074377E-01  0.98053583705E-01  0.51100000000E-03 0. -1.
</event>
<event>
 8    1  0.1101883E+005  0.1043930E+01  0.7957747E-01            NaN
         13   -1    0    0    0    0  0.00000000000E+00  0.00000000000E+00  0.74505805969E-08  0.10566000000E+00  0.10566000000E+00 0. -1.
     999900   -1    0    0    0    0 -0.00000000000E+00 -0.00000000000E+00 -0.74505805969E-08  0.93827000000E+00  0.93827000000E+00 0. -1.
     999902    2    1    2    0    0 -0.20713324140E-01 -0.15156640946E-01  0.15212449818E-03  0.10182631205E+01  0.10179395826E+01 0.  0.
     999903    2    3    3    0    0 -0.10959019229E+00 -0.16591943818E-01  0.67399649796E-01  0.13123246294E+00  0.19848014800E-01 0.  0.
         14    1    1    2    0    0  0.20713324140E-01  0.15156640946E-01 -0.15212449818E-03  0.25666879506E-01  0.00000000000E+00 0. -1.
     999901    1    3    3    0    0  0.88876868145E-01  0.14353028719E-02 -0.67247525297E-01  0.88703065756E+00  0.88000000000E+00 0. -1.
        -11    1    4    4    0    0 -0.14401398695E-01 -0.85745853904E-02  0.13650022997E-01  0.21621934414E-01  0.51100000000E-03 0.  1.
         11    1    4    4    0    0 -0.95188793591E-01 -0.80173584274E-02  0.53749626799E-01  0.10961052852E+00  0.51100000000E-03 0. -1.
</event>
<event>
 8    1  0.1101883E+005  0.1043930E+01  0.7957747E-01            NaN
         13   -1    0    0    0    0  0.00000000000E+00  0.00000000000E+00  0.74505805969E-08  0.10566000000E+00  0.10566000000E+00 0. -1.
     999900   -1    0    0    0    0 -0.00000000000E+00 -0.00000000000E+00 -0.74505805969E-08  0.93827000000E+00  0.93827000000E+00 0. -1.
     999902    2    1    2    0    0 -0.14264975146E-01 -0.15651392551E-01 -0.12640249359E-01  0.10192676500E+01  0.10189692394E+01 0.  0.
     999903    2    3    3    0    0  0.94014432093E-02 -0.10032221067E+00  0.79753150864E-01  0.13007375256E+00  0.20141572536E-01 0.  0.
         14    1    1    2    0    0  0.14264975146E-01  0.15651392551E-01  0.12640249359E-01  0.24662350021E-01  0.00000000000E+00 0. -1.
     999901    1    3    3    0    0 -0.23666418355E-01  0.84670818121E-01 -0.92393400223E-01  0.88919389742E+00  0.88000000000E+00 0. -1.
        -11    1    4    4    0    0  0.11032658470E-01 -0.24060920060E-01  0.20534189829E-01  0.33504648931E-01  0.51100000000E-03 0. -1.
         11    1    4    4    0    0 -0.16312152603E-02 -0.76261290612E-01  0.59218961035E-01  0.96569103631E-01  0.51100000000E-03 0.  1.
</event>
<event>
 8    1  0.1101883E+005  0.1043930E+01  0.7957747E-01            NaN
         13   -1    0    0    0    0  0.00000000000E+00  0.00000000000E+00  0.74505805969E-08  0.10566000000E+00  0.10566000000E+00 0. -1.
     999900   -1    0    0    0    0 -0.00000000000E+00 -0.00000000000E+00 -0.74505805969E-08  0.93827000000E+00  0.93827000000E+00 0.  1.
     999902    2    1    2    0    0 -0.22874896720E-01  0.71616523740E-02 -0.22725377153E-02  0.10198527370E+01  0.10195684826E+01 0.  0.
     999903    2    3    3    0    0  0.12680698932E-01  0.12191809107E+00  0.40022987161E-01  0.13068337631E+00  0.21248159624E-01 0.  0.
         14    1    1    2    0    0  0.22874896720E-01 -0.71616523740E-02  0.22725377153E-02  0.24077262975E-01  0.00000000000E+00 0. -1.
     999901    1    3    3    0    0 -0.35555595653E-01 -0.11475643870E+00 -0.42295524876E-01  0.88916936071E+00  0.88000000000E+00 0.  1.
        -11    1    4    4    0    0  0.16180162566E-01  0.73460282016E-01  0.30507002289E-01  0.81173573311E-01  0.51100000000E-03 0. -1.
         11    1    4    4    0    0 -0.34994636333E-02  0.48457809055E-01  0.95159848722E-02  0.49509803002E-01  0.51100000000E-03 0.  1.
</event>
<event>
 8    1  0.1101883E+005  0.1043930E+01  0.7957747E-01            NaN
         13   -1    0    0    0    0  0.00000000000E+00  0.00000000000E+00  0.74505805969E-08  0.10566000000E+00  0.10566000000E+00 0. -1.
     999900   -1    0    0    0    0 -0.00000000000E+00 -0.00000000000E+00 -0.74505805969E-08  0.93827000000E+00  0.93827000000E+00 0. -1.
     999902    2    1    2    0    0  0.37830340721E-02 -0.60807651049E-03 -0.22869190310E-01  0.10207420512E+01  0.10204786397E+01 0.  0.
     999903    2    3    3    0    0 -0.10224019480E+00  0.62314603297E-01 -0.51166844620E-01  0.13169708838E+00  0.19746135861E-01 0.  0.
         14    1    1    2    0    0 -0.37830340721E-02  0.60807651049E-03  0.22869190310E-01  0.23187948794E-01  0.00000000000E+00 0. -1.
     999901    1    3    3    0    0  0.10602322887E+00 -0.62922679808E-01  0.28297654310E-01  0.88904496283E+00  0.88000000000E+00 0.  1.
        -11    1    4    4    0    0 -0.94170407154E-01  0.59266833875E-01 -0.41564891521E-01  0.11877931011E+00  0.51100000000E-03 0. -1.
         11    1    4    4    0    0 -0.80697876461E-02  0.30477694221E-02 -0.96019530994E-02  0.12917778270E-01  0.51100000000E-03 0.  1.
</event>
<event>
 8    1  0.1101883E+005  0.1043930E+01  0.7957747E-01            NaN
         13   -1    0    0    0    0  0.00000000000E+00  0.00000000000E+00  0.74505805969E-08  0.10566000000E+00  0.10566000000E+00 0.  1.
     999900   -1    0    0    0    0 -0.00000000000E+00 -0.00000000000E+00 -0.74505805969E-08  0.93827000000E+00  0.93827000000E+00 0.  1.
     999902    2    1    2    0    0  0.42452729524E-02 -0.21416026682E-01  0.43781022229E-02  0.10216626176E+01  0.10214199273E+01 0.  0.
     999903    2    3    3    0    0 -0.61487208764E-01 -0.55383221835E-01  0.10231074306E+00  0.13314400120E+00  0.20294304797E-01 0.  0.
         14    1    1    2    0    0 -0.42452729524E-02  0.21416026682E-01 -0.43781022229E-02  0.22267382432E-01  0.00000000000E+00 0.  1.
     999901    1    3    3    0    0  0.65732481717E-01  0.33967195153E-01 -0.97932640834E-01  0.88851861637E+00  0.88000000000E+00 0.  1.
        -11    1    4    4    0    0 -0.27162869458E-01 -0.14105238353E-01  0.46771848844E-01  0.55898534789E-01  0.51100000000E-03 0. -1.
         11    1    4    4    0    0 -0.34324339306E-01 -0.41277983482E-01  0.55538894213E-01  0.77245466407E-01  0.51100000000E-03 0.  1.
</event>
<event>
 8    1  0.1101883E+005  0.1043930E+01  0.7957747E-01            NaN
         13   -1    0    0    0    0  0.00000000000E+00  0.00000000000E+00  0.74505805969E-08  0.10566000000E+00  0.10566000000E+00 0. -1.
     999900   -1    0    0    0    0 -0.00000000000E+00 -0.00000000000E+00 -0.74505805969E-08  0.93827000000E+00  0.93827000000E+00 0.  1.
     999902    2    1    2    0    0 -0.21882086672E-01 -0.70067570311E-02 -0.53909746520E-02  0.10203295134E+01  0.10200565342E+01 0.  0.
     999903    2    3    3    0    0 -0.10831856614E+00 -0.58497423557E-01 -0.47852171901E-01  0.13357954467E+00  0.19970079278E-01 0.  0.
         14    1    1    2    0    0  0.21882086672E-01  0.70067570311E-02  0.53909746520E-02  0.23600486624E-01  0.00000000000E+00 0.  1.
     999901    1    3    3    0    0  0.86436479467E-01  0.51490666526E-01  0.42461197249E-01  0.88674996870E+00  0.88000000000E+00 0. -1.
        -11    1    4    4    0    0 -0.16909611181E-01 -0.19001080391E-02 -0.41406677675E-02  0.17520034573E-01  0.51100000000E-03 0. -1.
         11    1    4    4    0    0 -0.91408954957E-01 -0.56597315518E-01 -0.43711504133E-01  0.11605951010E+00  0.51100000000E-03 0.  1.
</event>
<event>
 8    1  0.1101883E+005  0.1043930E+01  0.7957747E-01            NaN
         13   -1    0    0    0    0  0.00000000000E+00  0.00000000000E+00  0.74505805969E-08  0.10566000000E+00  0.10566000000E+00 0.  1.
     999900   -1    0    0    0    0 -0.00000000000E+00 -0.00000000000E+00 -0.74505805969E-08  0.93827000000E+00  0.93827000000E+00 0. -1.
     999902    2    1    2    0    0  0.58479643654E-02  0.57201152985E-02  0.22199966728E-01  0.10202708172E+01  0.10199964625E+01 0.  0.
     999903    2    3    3    0    0  0.86695311313E-01 -0.24635428605E-01 -0.90010545452E-01  0.12895215840E+00  0.20094265756E-01 0.  0.
         14    1    1    2    0    0 -0.58479643654E-02 -0.57201152985E-02 -0.22199966728E-01  0.23659182762E-01  0.00000000000E+00 0. -1.
     999901    1    3    3    0    0 -0.80847346948E-01  0.30355543903E-01  0.11221051218E+00  0.89131865884E+00  0.88000000000E+00 0.  1.
        -11    1    4    4    0    0  0.16880202268E-01  0.28594238024E-02 -0.13733812397E-01  0.21954413156E-01  0.51100000000E-03 0. -1.
         11    1    4    4    0    0  0.69815109045E-01 -0.27494852407E-01 -0.76276733055E-01  0.10699774524E+00  0.51100000000E-03 0.  1.
</event>
<event>
 8    1  0.1101883E+005  0.1043930E+01  0.7957747E-01            NaN
         13   -1    0    0    0    0  0.00000000000E+00  0.00000000000E+00  0.74505805969E-08  0.10566000000E+00  0.10566000000E+00 0.  1.
     999900   -1    0    0    0    0 -0.00000000000E+00 -0.00000000000E+00 -0.74505805969E-08  0.93827000000E+00  0.93827000000E+00 0. -1.
     999902    2    1    2    0    0 -0.73403744697E-02 -0.45635427696E-02  0.23310108288E-01  0.10190690232E+01  0.10187657267E+01 0.  0.
     999903    2    3    3    0    0 -0.10793843734E+00  0.65959708198E-01 -0.19356862736E-01  0.12951072290E+00  0.19923600341E-01 0.  0.
         14    1    1    2    0    0  0.73403744697E-02  0.45635427696E-02 -0.23310108288E-01  0.24860976818E-01  0.00000000000E+00 0. -1.
     999901    1    3    3    0    0  0.10059806287E+00 -0.70523250968E-01  0.42666971024E-01  0.88955830028E+00  0.88000000000E+00 0.  1.
        -11    1    4    4    0    0 -0.24264882602E-01  0.19227027902E-01  0.29645269732E-02  0.31104865710E-01  0.51100000000E-03 0.  1.
         11    1    4    4    0    0 -0.83673554738E-01  0.46732680296E-01 -0.22321389709E-01  0.98405857192E-01  0.51100000000E-03 0. -1.
</event>
<event>
 8    1  0.1101883E+005  0.1043930E+01  0.7957747E-01            NaN
         13   -1    0    0    0    0  0.00000000000E+00  0.00000000000E+00  0.74505805969E-08  0.10566000000E+00  0.10566000000E+00 0. -1.
     999900   -1    0    0    0    0 -0.00000000000E+00 -0.00000000000E+00 -0.74505805969E-08  0.93827000000E+00  0.93827000000E+00 0. -1.
     999902    2    1    2    0    0  0.90975615362E-02  0.13301375344E-01 -0.17313935172E-01  0.10202769967E+01  0.10200027870E+01 0.  0.
     999903    2    3    3    0    0 -0.17603102946E-01 -0.11834848725E+00 -0.45612911876E-01  0.12963372142E+00  0.20202235791E-01 0.  0.
         14    1    1    2    0    0 -0.90975615362E-02 -0.13301375344E-01  0.17313935172E-01  0.23653003257E-01  0.00000000000E+00 0. -1.
     999901    1    3    3    0    0  0.26700664482E-01  0.13164986259E+00  0.28298976704E-01  0.89064327533E+00  0.88000000000E+00 0.  1.
        -11    1    4    4    0    0 -0.14789285763E-01 -0.47246443757E-01 -0.25476437711E-01  0.55679973244E-01  0.51100000000E-03 0.  1.
         11    1    4    4    0    0 -0.28138171831E-02 -0.71102043491E-01 -0.20136474165E-01  0.73953748171E-01  0.51100000000E-03 0. -1.
</event>
<event>
 8    1  0.1101883E+005  0.1043930E+01  0.7957747E-01            NaN
         13   -1    0    0    0    0  0.00000000000E+00  0.00000000000E+00  0.74505805969E-08  0.10566000000E+00  0.10566000000E+00 0. -1.
     999900   -1    0    0    0    0 -0.00000000000E+00 -0.00000000000E+00 -0.74505805969E-08  0.93827000000E+00  0.93827000000E+00 0. -1.
     999902    2    1    2    0    0  0.16399664759E-01 -0.14649054015E-01  0.68672202294E-03  0.10219296506E+01  0.10216928087E+01 0.  0.
     999903    2    3    3    0    0  0.54447185878E-01  0.16463137956E-01 -0.11806963870E+00  0.13259357486E+00  0.20126737180E-01 0.  0.
         14    1    1    2    0    0 -0.16399664759E-01  0.14649054015E-01 -0.68672202294E-03  0.22000349427E-01  0.00000000000E+00 0.  1.
     999901    1    3    3    0    0 -0.38047521119E-01 -0.31112191971E-01  0.11875636072E+00  0.88933607571E+00  0.88000000000E+00 0.  1.
        -11    1    4    4    0    0  0.31209612935E-01  0.41407474116E-04 -0.51897649045E-01  0.60561280961E-01  0.51100000000E-03 0. -1.
         11    1    4    4    0    0  0.23237572943E-01  0.16421730482E-01 -0.66171989656E-01  0.72032293899E-01  0.51100000000E-03 0.  1.
</event>
<event>
 8    1  0.1101883E+005  0.1043930E+01  0.7957747E-01            NaN
         13   -1    0    0    0    0  0.00000000000E+00  0.00000000000E+00  0.74505805969E-08  0.10566000000E+00  0.10566000000E+00 0.  1.
     999900   -1    0    0    0    0 -0.00000000000E+00 -0.00000000000E+00 -0.74505805969E-08  0.93827000000E+00  0.93827000000E+00 0.  1.
     999902    2    1    2    0    0  0.29648895672E-02 -0.14205515714E-01  0.19262256394E-01  0.10198131642E+01  0.10195279634E+01 0.  0.
     999903    2    3    3    0    0  0.40702923489E-02  0.10377012504E+00 -0.70864728867E-01  0.12737697759E+00  0.20451857907E-01 0.  0.
         14    1    1    2    0    0 -0.29648895672E-02  0.14205515714E-01 -0.19262256394E-01  0.24116835785E-01  0.00000000000E+00 0. -1.
     999901    1    3    3    0    0 -0.11054027816E-02 -0.11797564075E+00  0.90126985261E-01  0.89243618663E+00  0.88000000000E+00 0. -1.
        -11    1    4    4    0    0  0.10467188577E-01  0.39338960653E-01 -0.22137269611E-01  0.46340432549E-01  0.51100000000E-03 0. -1.
         11    1    4    4    0    0 -0.63968962285E-02  0.64431164387E-01 -0.48727459256E-01  0.81036545041E-01  0.51100000000E-03 0.  1.
</event>
<event>
 8    1  0.1101883E+005  0.1043930E+01  0.7957747E-01            NaN
         13   -1    0    0    0    0  0.00000000000E+00  0.00000000000E+00  0.74505805969E-08  0.10566000000E+00  0.10566000000E+00 0.  1.
     999900   -1    0    0    0    0 -0.00000000000E+00 -0.00000000000E+00 -0.74505805969E-08  0.93827000000E+00  0.93827000000E+00 0.  1.
     999902    2    1    2    0    0 -0.20948812601E-01  0.11859606501E-01 -0.89099571883E-02  0.10182611404E+01  0.10179375520E+01 0.  0.
     999903    2    3    3    0    0 -0.12101773785E+00  0.31507664195E-01  0.37401919459E-01  0.13116214599E+00  0.12906555837E-01 0.  0.
         14    1    1    2    0    0  0.20948812601E-01 -0.11859606501E-01  0.89099571883E-02  0.25668859594E-01  0.00000000000E+00 0.  1.
     999901    1    3    3    0    0  0.10006892525E+00 -0.19648057694E-01 -0.46311876647E-01  0.88709899441E+00  0.88000000000E+00 0. -1.
        -11    1    4    4    0    0 -0.82281527379E-01  0.27149233199E-01  0.28030702215E-01  0.91067623220E-01  0.51100000000E-03 0.  1.
         11    1    4    4    0    0 -0.38736210475E-01  0.43584309958E-02  0.93712172437E-02  0.40094522772E-01  0.51100000000E-03 0. -1.
</event>
<event>
 8    1  0.1101883E+005  0.1043930E+01  0.7957747E-01            NaN
         13   -1    0    0    0    0  0.00000000000E+00  0.00000000000E+00  0.74505805969E-08  0.10566000000E+00  0.10566000000E+00 0.  1.
     999900   -1    0    0    0    0 -0.00000000000E+00 -0.00000000000E+00 -0.74505805969E-08  0.93827000000E+00  0.93827000000E+00 0.  1.
     999902    2    1    2    0    0 -0.10657590367E-01  0.17029656058E-01  0.12937402409E-01  0.10200350257E+01  0.10197551097E+01 0.  0.
     999903    2    3    3    0    0 -0.11036175083E+00  0.24952640769E-01 -0.63517974502E-01  0.13107545517E+00  0.18544312776E-01 0.  0.
         14    1    1    2    0    0  0.10657590367E-01 -0.17029656058E-01 -0.12937402409E-01  0.23894974345E-01  0.00000000000E+00 0. -1.
     999901    1    3    3    0    0  0.99704160458E-01 -0.79229847106E-02  0.76455376911E-01  0.88895957049E+00  0.88000000000E+00 0. -1.
        -11    1    4    4    0    0 -0.41069346608E-01  0.77513402614E-02 -0.13585241501E-01  0.43949908012E-01  0.51100000000E-03 0. -1.
         11    1    4    4    0    0 -0.69292404217E-01  0.17201300507E-01 -0.49932733002E-01  0.87125547157E-01  0.51100000000E-03 0.  1.
</event>
<event>
 8    1  0.1101883E+005  0.1043930E+01  0.7957747E-01            NaN
         13   -1    0    0    0    0  0.00000000000E+00  0.00000000000E+00  0.74505805969E-08  0.10566000000E+00  0.10566000000E+00 0.  1.
     999900   -1    0    0    0    0 -0.00000000000E+00 -0.00000000000E+00 -0.74505805969E-08  0.93827000000E+00  0.93827000000E+00 0. -1.
     999902    2    1    2    0    0  0.15130589598E-01  0.12977072330E-01  0.20718342381E-01  0.10151795416E+01  0.10147723453E+01 0.  0.
     999903    2    3    3    0    0  0.11531442234E+00 -0.14493032533E-01 -0.45999146617E-01  0.12656115874E+00  0.19858031621E-01 0.  0.
         14    1    1    2    0    0 -0.15130589598E-01 -0.12977072330E-01 -0.20718342381E-01  0.28750458411E-01  0.00000000000E+00 0. -1.
     999901    1    3    3    0    0 -0.10018383274E+00  0.27470104863E-01  0.66717488998E-01  0.88861838285E+00  0.88000000000E+00 0.  1.
        -11    1    4    4    0    0  0.86015644538E-01 -0.32011543655E-02 -0.38385505879E-01  0.94247794017E-01  0.51100000000E-03 0.  1.
         11    1    4    4    0    0  0.29298777802E-01 -0.11291878168E-01 -0.76136407383E-02  0.32313364720E-01  0.51100000000E-03 0. -1.
</event>
<event>
 8    1  0.1101883E+005  0.1043930E+01  0.7957747E-01            NaN
         13   -1    0    0    0    0  0.00000000000E+00  0.00000000000E+00  0.74505805969E-08  0.10566000000E+00  0.10566000000E+00 0.  1.
     999900   -1    0    0    0    0 -0.00000000000E+00 -0.00000000000E+00 -0.74505805969E-08  0.93827000000E+00  0.93827000000E+00 0.  1.
     999902    2    1    2    0    0  0.18236142323E-01 -0.21236546662E-02 -0.15369869321E-01  0.10199863228E+01  0.10197052510E+01 0.  0.
     999903    2    3    3    0    0 -0.12189326115E+00 -0.32436038939E-01 -0.12404693490E-01  0.12837885162E+00  0.20425214447E-01 0.  0.
         14    1    1    2    0    0 -0.18236142323E-01  0.21236546662E-02  0.15369869321E-01  0.23943677222E-01  0.00000000000E+00 0.  1.
     999901    1    3    3    0    0  0.14012940348E+00  0.30312384273E-01 -0.29651758314E-02  0.89160747116E+00  0.88000000000E+00 0. -1.
        -11    1    4    4    0    0 -0.86341953485E-01 -0.19154630232E-01 -0.17272225618E-01  0.90113393509E-01  0.51100000000E-03 0.  1.
         11    1    4    4    0    0 -0.35551307670E-01 -0.13281408707E-01  0.48675321282E-02  0.38265458109E-01  0.51100000000E-03 0. -1.
</event>
<event>
 8    1  0.1101883E+005  0.1043930E+01  0.7957747E-01            NaN
         13   -1    0    0    0    0  0.00000000000E+00  0.00000000000E+00  0.74505805969E-08  0.10566000000E+00  0.10566000000E+00 0.  1.
     999900   -1    0    0    0    0 -0.00000000000E+00 -0.00000000000E+00 -0.74505805969E-08  0.93827000000E+00  0.93827000000E+00 0. -1.
     999902    2    1    2    0    0 -0.19432239580E-01 -0.14280497307E-01  0.11055372473E-01  0.10174014154E+01  0.10170554923E+01 0.  0.
     999903    2    3    3    0    0 -0.10770423489E+00 -0.69913643916E-01  0.14902027298E-01  0.13122886513E+00  0.22601433762E-01 0.  0.
         14    1    1    2    0    0  0.19432239580E-01  0.14280497307E-01 -0.11055372473E-01  0.26528584563E-01  0.00000000000E+00 0.  1.
     999901    1    3    3    0    0  0.88271995309E-01  0.55633146609E-01 -0.38466548257E-02  0.88617255030E+00  0.88000000000E+00 0. -1.
        -11    1    4    4    0    0 -0.32890673478E-01 -0.34205275835E-01  0.42118598637E-02  0.47642398988E-01  0.51100000000E-03 0.  1.
         11    1    4    4    0    0 -0.74813561411E-01 -0.35708368080E-01  0.10690167435E-01  0.83586466146E-01  0.51100000000E-03 0. -1.
</event>
<event>
 8    1  0.1101883E+005  0.1043930E+01  0.7957747E-01            NaN
         13   -1    0    0    0    0  0.00000000000E+00  0.00000000000E+00  0.74505805969E-08  0.10566000000E+00  0.10566000000E+00 0. -1.
     999900   -1    0    0    0    0 -0.00000000000E+00 -0.00000000000E+00 -0.74505805969E-08  0.93827000000E+00  0.93827000000E+00 0.  1.
     999902    2    1    2    0    0  0.60629466527E-02 -0.98274500825E-02  0.20210233438E-01  0.10206535820E+01  0.10203881335E+01 0.  0.
     999903    2    3    3    0    0 -0.38572484021E-01  0.11574886607E+00  0.41128597038E-01  0.13037311456E+00  0.20492705681E-01 0.  0.
         14    1    1    2    0    0 -0.60629466527E-02  0.98274500825E-02 -0.20210233438E-01  0.23276417956E-01  0.00000000000E+00 0.  1.
     999901    1    3    3    0    0  0.44635430674E-01 -0.12557631615E+00 -0.20918363601E-01  0.89028046748E+00  0.88000000000E+00 0.  1.
        -11    1    4    4    0    0 -0.90214396510E-03  0.16646301092E-01  0.70293455590E-04  0.16678706963E-01  0.51100000000E-03 0. -1.
         11    1    4    4    0    0 -0.37670340056E-01  0.99102564975E-01  0.41058303583E-01  0.11369440760E+00  0.51100000000E-03 0.  1.
</event>
<event>
 8    1  0.1101883E+005  0.1043930E+01  0.7957747E-01            NaN
         13   -1    0    0    0    0  0.00000000000E+00  0.00000000000E+00  0.74505805969E-08  0.10566000000E+00  0.10566000000E+00 0.  1.
     999900   -1    0    0    0    0 -0.00000000000E+00 -0.00000000000E+00 -0.74505805969E-08  0.93827000000E+00  0.93827000000E+00 0.  1.
     999902    2    1    2    0    0 -0.19868606210E-01  0.12042429140E-01  0.62058551486E-02  0.10198822506E+01  0.10195987009E+01 0.  0.
     999903    2    3    3    0    0 -0.11478998990E+00 -0.59544168132E-01 -0.14986955996E-01  0.13163462454E+00  0.19514501956E-01 0.  0.
         14    1    1    2    0    0  0.19868606210E-01 -0.12042429140E-01 -0.62058551486E-02  0.24047749384E-01  0.00000000000E+00 0.  1.
     999901    1    3    3    0    0  0.94921383693E-01  0.71586597272E-01  0.21192811145E-01  0.88824762608E+00  0.88000000000E+00 0.  1.
        -11    1    4    4    0    0 -0.65617747196E-01 -0.26533133696E-01 -0.15255932638E-01  0.72406495098E-01  0.51100000000E-03 0. -1.
         11    1    4    4    0    0 -0.49172242706E-01 -0.33011034437E-01  0.26897664153E-03  0.59228129439E-01  0.51100000000E-03 0.  1.
</event>
<event>
 8    1  0.1101883E+005  0.1043930E+01  0.7957747E-01            NaN
         13   -1    0    0    0    0  0.00000000000E+00  0.00000000000E+00  0.74505805969E-08  0.10566000000E+00  0.10566000000E+00 0. -1.
     999900   -1    0    0    0    0 -0.00000000000E+00 -0.00000000000E+00 -0.74505805969E-08  0.93827000000E+00  0.93827000000E+00 0. -1.
     999902    2    1    2    0    0  0.65133552155E-02 -0.64768753858E-02  0.22656799138E-01  0.10194820091E+01  0.10191888258E+01 0.  0.
     999903    2    3    3    0    0  0.49566275412E-01 -0.53376431272E-01 -0.10340955910E+00  0.12822118929E+00  0.21006603653E-01 0.  0.
         14    1    1    2    0    0 -0.65133552155E-02  0.64768753858E-02 -0.22656799138E-01  0.24447990880E-01  0.00000000000E+00 0.  1.
     999901    1    3    3    0    0 -0.43052920196E-01  0.46899555887E-01  0.12606635824E+00  0.89126081983E+00  0.88000000000E+00 0.  1.
        -11    1    4    4    0    0  0.18939257290E-01 -0.12673163276E-01 -0.19202350915E-01  0.29804293915E-01  0.51100000000E-03 0. -1.
         11    1    4    4    0    0  0.30627018121E-01 -0.40703267997E-01 -0.84207208184E-01  0.98416895377E-01  0.51100000000E-03 0.  1.
</event>
<event>
 8    1  0.1101883E+005  0.1043930E+01  0.7957747E-01            NaN
         13   -1    0    0    0    0  0.00000000000E+00  0.00000000000E+00  0.74505805969E-08  0.10566000000E+00  0.10566000000E+00 0.  1.
     999900   -1    0    0    0    0 -0.00000000000E+00 -0.00000000000E+00 -0.74505805969E-08  0.93827000000E+00  0.93827000000E+00 0. -1.
     999902    2    1    2    0    0  0.77048831905E-02  0.33658137189E-02  0.22219990765E-01  0.10201724345E+01  0.10198957664E+01 0.  0.
     999903    2    3    3    0    0 -0.74191768932E-01  0.64199711812E-01  0.85521296168E-01  0.13201992509E+00  0.22121187749E-01 0.  0.
         14    1    1    2    0    0 -0.77048831905E-02 -0.33658137189E-02 -0.22219990765E-01  0.23757565459E-01  0.00000000000E+00 0. -1.
     999901    1    3    3    0    0  0.81896652122E-01 -0.60833898093E-01 -0.63301305403E-01  0.88815250946E+00  0.88000000000E+00 0. -1.
        -11    1    4    4    0    0 -0.41818991540E-01  0.31673311555E-01  0.59252785225E-01  0.79140257747E-01  0.51100000000E-03 0.  1.
         11    1    4    4    0    0 -0.32372777391E-01  0.32526400257E-01  0.26268510943E-01  0.52879667339E-01  0.51100000000E-03 0. -1.
</event>
<event>
 8    1  0.1101883E+005  0.1043930E+01  0.7957747E-01            NaN
         13   -1    0    0    0    0  0.00000000000E+00  0.00000000000E+00  0.74505805969E-08  0.10566000000E+00  0.10566000000E+00 0. -1.
     999900   -1    0    0    0    0 -0.00000000000E+00 -0.00000000000E+00 -0.74505805969E-08  0.93827000000E+00  0.93827000000E+00 0. -1.
     999902    2    1    2    0    0 -0.27816710009E-01  0.58645462058E-03 -0.25563891749E-01  0.10061460636E+01  0.10054363608E+01 0.  0.
     999903    2    3    3    0    0 -0.95276957001E-01  0.24207773792E-01 -0.69660493874E-01  0.12214755575E+00  0.20092937131E-01 0.  0.
         14    1    1    2    0    0  0.27816710009E-01 -0.58645462058E-03  0.25563891749E-01  0.37783936350E-01  0.00000000000E+00 0. -1.
     999901    1    3    3    0    0  0.67460246991E-01 -0.23621319172E-01  0.44096602125E-01  0.88399850790E+00  0.88000000000E+00 0.  1.
        -11    1    4    4    0    0 -0.32402201880E-01 -0.14131219297E-02 -0.22067073654E-01  0.39231574795E-01  0.51100000000E-03 0.  1.
         11    1    4    4    0    0 -0.62874755121E-01  0.25620895722E-01 -0.47593420220E-01  0.82915980959E-01  0.51100000000E-03 0. -1.
</event>
<event>
 8    1  0.1101883E+005  0.1043930E+01  0.7957747E-01            NaN
         13   -1    0    0    0    0  0.00000000000E+00  0.00000000000E+00  0.74505805969E-08  0.10566000000E+00  0.10566000000E+00 0.  1.
     999900   -1    0    0    0    0 -0.00000000000E+00 -0.00000000000E+00 -0.74505805969E-08  0.93827000000E+00  0.93827000000E+00 0.  1.
     999902    2    1    2    0    0  0.13779532337E-01  0.33952681649E-03 -0.15080511606E-01  0.10234993216E+01  0.10232953868E+01 0.  0.
     999903    2    3    3    0    0  0.18371412407E-01  0.12738098047E+00  0.29057679655E-01  0.13326969041E+00  0.18789322904E-01 0.  0.
         14    1    1    2    0    0 -0.13779532337E-01 -0.33952681649E-03  0.15080511606E-01  0.20430678408E-01  0.00000000000E+00 0.  1.
     999901    1    3    3    0    0 -0.45918800697E-02 -0.12704145365E+00 -0.44138191261E-01  0.89022963118E+00  0.88000000000E+00 0.  1.
        -11    1    4    4    0    0  0.13938611918E-01  0.52739901913E-01  0.19274796282E-01  0.57858111348E-01  0.51100000000E-03 0. -1.
         11    1    4    4    0    0  0.44328004891E-02  0.74641078558E-01  0.97828833733E-02  0.75411579061E-01  0.51100000000E-03 0.  1.
</event>
<event>
 8    1  0.1101883E+005  0.1043930E+01  0.7957747E-01            NaN
         13   -1    0    0    0    0  0.00000000000E+00  0.00000000000E+00  0.74505805969E-08  0.10566000000E+00  0.10566000000E+00 0.  1.
     999900   -1    0    0    0    0 -0.00000000000E+00 -0.00000000000E+00 -0.74505805969E-08  0.93827000000E+00  0.93827000000E+00 0.  1.
     999902    2    1    2    0    0 -0.10776081733E-01  0.19036954154E-02 -0.20624902964E-01  0.10205818820E+01  0.10203147765E+01 0.  0.
     999903    2    3    3    0    0 -0.10366819701E+00  0.56899126189E-01  0.52663847325E-01  0.13096135420E+00  0.19818926485E-01 0.  0.
         14    1    1    2    0    0  0.10776081733E-01 -0.19036954154E-02  0.20624902964E-01  0.23348118041E-01  0.00000000000E+00 0.  1.
     999901    1    3    3    0    0  0.92892115277E-01 -0.54995430773E-01 -0.73288750289E-01  0.88962052776E+00  0.88000000000E+00 0.  1.
        -11    1    4    4    0    0 -0.82640923478E-01  0.38941567672E-01  0.33464389853E-01  0.97293856102E-01  0.51100000000E-03 0.  1.
         11    1    4    4    0    0 -0.21027273533E-01  0.17957558517E-01  0.19199457472E-01  0.33667498100E-01  0.51100000000E-03 0. -1.
</event>
<event>
 8    1  0.1101883E+005  0.1043930E+01  0.7957747E-01            NaN
         13   -1    0    0    0    0  0.00000000000E+00  0.00000000000E+00  0.74505805969E-08  0.10566000000E+00  0.10566000000E+00 0.  1.
     999900   -1    0    0    0    0 -0.00000000000E+00 -0.00000000000E+00 -0.74505805969E-08  0.93827000000E+00  0.93827000000E+00 0.  1.
     999902    2    1    2    0    0  0.81385051468E-02  0.67636664103E-02  0.21309122799E-01  0.10201379601E+01  0.10198604789E+01 0.  0.
     999903    2    3    3    0    0 -0.67178956823E-01  0.34655465218E-01  0.10687733070E+00  0.13234711155E+00  0.19467424304E-01 0.  0.
         14    1    1    2    0    0 -0.81385051468E-02 -0.67636664103E-02 -0.21309122799E-01  0.23792039925E-01  0.00000000000E+00 0. -1.
     999901    1    3    3    0    0  0.75317461969E-01 -0.27891798808E-01 -0.85568207903E-01  0.88779084852E+00  0.88000000000E+00 0.  1.
        -11    1    4    4    0    0 -0.57959521087E-02  0.85979060626E-02  0.22653618982E-01  0.24919161773E-01  0.51100000000E-03 0.  1.
         11    1    4    4    0    0 -0.61383004714E-01  0.26057559155E-01  0.84223711720E-01  0.10742794978E+00  0.51100000000E-03 0. -1.
</event>
<event>
 8    1  0.1101883E+005  0.1043930E+01  0.7957747E-01            NaN
         13   -1    0    0    0    0  0.00000000000E+00  0.00000000000E+00  0.74505805969E-08  0.10566000000E+00  0.10566000000E+00 0. -1.
     999900   -1    0    0    0    0 -0.00000000000E+00 -0.00000000000E+00 -0.74505805969E-08  0.93827000000E+00  0.93827000000E+00 0.  1.
     999902    2    1    2    0    0  0.11422278832E-01  0.98454510909E-02  0.18729629033E-01  0.10198842028E+01  0.10196006996E+01 0.  0.
     999903    2    3    3    0    0  0.93111136346E-02 -0.69704299540E-01  0.10948779910E+00  0.13164455871E+00  0.19933024728E-01 0.  0.
         14    1    1    2    0    0 -0.11422278832E-01 -0.98454510909E-02 -0.18729629033E-01  0.24045797234E-01  0.00000000000E+00 0.  1.
     999901    1    3    3    0    0  0.21111651976E-02  0.79549750631E-01 -0.90758170064E-01  0.88823964406E+00  0.88000000000E+00 0. -1.
        -11    1    4    4    0    0  0.54229316669E-02 -0.39119550449E-01  0.43189812900E-01  0.58526647559E-01  0.51100000000E-03 0.  1.
         11    1    4    4    0    0  0.38881819676E-02 -0.30584749091E-01  0.66297986196E-01  0.73117911148E-01  0.51100000000E-03 0. -1.
</event>
<event>
 8    1  0.1101883E+005  0.1043930E+01  0.7957747E-01            NaN
         13   -1    0    0    0    0  0.00000000000E+00  0.00000000000E+00  0.74505805969E-08  0.10566000000E+00  0.10566000000E+00 0.  1.
     999900   -1    0    0    0    0 -0.00000000000E+00 -0.00000000000E+00 -0.74505805969E-08  0.93827000000E+00  0.93827000000E+00 0. -1.
     999902    2    1    2    0    0 -0.17679727507E-01  0.37178728024E-02 -0.15036593821E-01  0.10204247985E+01  0.10201540447E+01 0.  0.
     999903    2    3    3    0    0 -0.82960041693E-01  0.87181076379E-01  0.49521374380E-01  0.13172048491E+00  0.20371819459E-01 0.  0.
         14    1    1    2    0    0  0.17679727507E-01 -0.37178728024E-02  0.15036593821E-01  0.23505201480E-01  0.00000000000E+00 0.  1.
     999901    1    3    3    0    0  0.65280314186E-01 -0.83463203576E-01 -0.64557968201E-01  0.88870431361E+00  0.88000000000E+00 0. -1.
        -11    1    4    4    0    0 -0.23840903065E-01  0.35423779688E-01  0.10429438584E-01  0.43957560629E-01  0.51100000000E-03 0. -1.
         11    1    4    4    0    0 -0.59119138629E-01  0.51757296691E-01  0.39091935796E-01  0.87762924280E-01  0.51100000000E-03 0.  1.
</event>
<event>
 8    1  0.1101883E+005  0.1043930E+01  0.7957747E-01            NaN
         13   -1    0    0    0    0  0.00000000000E+00  0.00000000000E+00  0.74505805969E-08  0.10566000000E+00  0.10566000000E+00 0. -1.
     999900   -1    0    0    0    0 -0.00000000000E+00 -0.00000000000E+00 -0.74505805969E-08  0.93827000000E+00  0.93827000000E+00 0. -1.
     999902    2    1    2    0    0  0.69914113993E-02  0.56232219059E-02 -0.19260519049E-01  0.10226822224E+01  0.10224614712E+01 0.  0.
     999903    2    3    3    0    0 -0.89441419051E-01 -0.85714669178E-01  0.37416222472E-01  0.13091198623E+00  0.19778839179E-01 0.  0.
         14    1    1    2    0    0 -0.69914113993E-02 -0.56232219059E-02  0.19260519049E-01  0.21247777578E-01  0.00000000000E+00 0. -1.
     999901    1    3    3    0    0  0.96432830451E-01  0.91337891084E-01 -0.56676741522E-01  0.89177023620E+00  0.88000000000E+00 0. -1.
        -11    1    4    4    0    0 -0.38055054391E-01 -0.25480094726E-01  0.19226115961E-01  0.49672195924E-01  0.51100000000E-03 0.  1.
         11    1    4    4    0    0 -0.51386364660E-01 -0.60234574452E-01  0.18190106511E-01  0.81239790302E-01  0.51100000000E-03 0. -1.
</event>
<event>
 8    1  0.1101883E+005  0.1043930E+01  0.7957747E-01            NaN
         13   -1    0    0    0    0  0.00000000000E+00  0.00000000000E+00  0.74505805969E-08  0.10566000000E+00  0.10566000000E+00 0. -1.
     999900   -1    0    0    0    0 -0.00000000000E+00 -0.00000000000E+00 -0.74505805969E-08  0.93827000000E+00  0.93827000000E+00 0. -1.
     999902    2    1    2    0    0 -0.99089194116E-02 -0.19321039495E-01 -0.75313980616E-03  0.10222031394E+01  0.10219722118E+01 0.  0.
     999903    2    3    3    0    0  0.12336393026E+00 -0.36396117272E-01  0.20671791310E-01  0.13174694262E+00  0.19662077516E-01 0.  0.
         14    1    1    2    0    0  0.99089194116E-02  0.19321039495E-01  0.75313980616E-03  0.21726860579E-01  0.00000000000E+00 0. -1.
     999901    1    3    3    0    0 -0.13327284967E+00  0.17075077777E-01 -0.21424931116E-01  0.89045619680E+00  0.88000000000E+00 0. -1.
        -11    1    4    4    0    0  0.58163524274E-01 -0.15699487385E-01 -0.12445276491E-03  0.60247373964E-01  0.51100000000E-03 0. -1.
         11    1    4    4    0    0  0.65200405990E-01 -0.20696629887E-01  0.20796244075E-01  0.71499568659E-01  0.51100000000E-03 0.  1.
</event>
<event>
 8    1  0.1101883E+005  0.1043930E+01  0.7957747E-01            NaN
         13   -1    0    0    0    0  0.00000000000E+00  0.00000000000E+00  0.74505805969E-08  0.10566000000E+00  0.10566000000E+00 0.  1.
     999900   -1    0    0    0    0 -0.00000000000E+00 -0.00000000000E+00 -0.74505805969E-08  0.93827000000E+00  0.93827000000E+00 0. -1.
     999902    2    1    2    0    0 -0.26732527049E-02 -0.19318898402E-01  0.67839653885E-02  0.10232808281E+01  0.10230724631E+01 0.  0.
     999903    2    3    3    0    0  0.10236494944E+00  0.49529534812E-01 -0.65580490955E-01  0.13142335895E+00  0.62881468336E-02 0.  0.
         14    1    1    2    0    0  0.26732527049E-02  0.19318898402E-01 -0.67839653885E-02  0.20649171942E-01  0.00000000000E+00 0. -1.
     999901    1    3    3    0    0 -0.10503820214E+00 -0.68848433215E-01  0.72364456343E-01  0.89185746911E+00  0.88000000000E+00 0.  1.
        -11    1    4    4    0    0  0.46522101945E-01  0.23552110955E-01 -0.26675779886E-01  0.58573596896E-01  0.51100000000E-03 0. -1.
         11    1    4    4    0    0  0.55842847495E-01  0.25977423857E-01 -0.38904711069E-01  0.72849762052E-01  0.51100000000E-03 0.  1.
</event>
<event>
 8    1  0.1101883E+005  0.1043930E+01  0.7957747E-01            NaN
         13   -1    0    0    0    0  0.00000000000E+00  0.00000000000E+00  0.74505805969E-08  0.10566000000E+00  0.10566000000E+00 0.  1.
     999900   -1    0    0    0    0 -0.00000000000E+00 -0.00000000000E+00 -0.74505805969E-08  0.93827000000E+00  0.93827000000E+00 0.  1.
     999902    2    1    2    0    0  0.17899857032E-01 -0.84373217400E-02 -0.95775186429E-02  0.10219454112E+01  0.10217089123E+01 0.  0.
     999903    2    3    3    0    0 -0.21938568153E-01  0.98038293445E-01  0.80260206686E-01  0.13009622351E+00  0.19761549534E-01 0.  0.
         14    1    1    2    0    0 -0.17899857032E-01  0.84373217400E-02  0.95775186429E-02  0.21984588767E-01  0.00000000000E+00 0. -1.
     999901    1    3    3    0    0  0.39838425185E-01 -0.10647561519E+00 -0.89837725329E-01  0.89184918772E+00  0.88000000000E+00 0. -1.
        -11    1    4    4    0    0 -0.11557429780E-01  0.71751837678E-01  0.47486528590E-01  0.86816656880E-01  0.51100000000E-03 0.  1.
         11    1    4    4    0    0 -0.10381138373E-01  0.26286455767E-01  0.32773678096E-01  0.43279566630E-01  0.51100000000E-03 0. -1.
</event>
<event>
 8    1  0.1101883E+005  0.1043930E+01  0.7957747E-01            NaN
         13   -1    0    0    0    0  0.00000000000E+00  0.00000000000E+00  0.74505805969E-08  0.10566000000E+00  0.10566000000E+00 0.  1.
     999900   -1    0    0    0    0 -0.00000000000E+00 -0.00000000000E+00 -0.74505805969E-08  0.93827000000E+00  0.93827000000E+00 0.  1.
     999902    2    1    2    0    0 -0.13189890087E-01  0.13154839769E-01 -0.10325366672E-01  0.10226312628E+01  0.10224094402E+01 0.  0.
     999903    2    3    3    0    0  0.64528657808E-01 -0.11085423380E+00  0.52830649145E-02  0.13040817065E+00  0.22929704883E-01 0.  0.
         14    1    1    2    0    0  0.13189890087E-01 -0.13154839769E-01  0.10325366672E-01  0.21298737210E-01  0.00000000000E+00 0.  1.
     999901    1    3    3    0    0 -0.77718547895E-01  0.12400907357E+00 -0.15608431587E-01  0.89222309214E+00  0.88000000000E+00 0.  1.
        -11    1    4    4    0    0  0.49037084912E-01 -0.74149463982E-01 -0.56914987040E-02  0.89081047277E-01  0.51100000000E-03 0.  1.
         11    1    4    4    0    0  0.15491572896E-01 -0.36704769822E-01  0.10974563618E-01  0.41327123370E-01  0.51100000000E-03 0. -1.
</event>
<event>
 8    1  0.1101883E+005  0.1043930E+01  0.7957747E-01            NaN
         13   -1    0    0    0    0  0.00000000000E+00  0.00000000000E+00  0.74505805969E-08  0.10566000000E+00  0.10566000000E+00 0. -1.
     999900   -1    0    0    0    0 -0.00000000000E+00 -0.00000000000E+00 -0.74505805969E-08  0.93827000000E+00  0.93827000000E+00 0.  1.
     999902    2    1    2    0    0  0.35541848620E-02 -0.14748065857E-01  0.18685090555E-01  0.10198619655E+01  0.10195779315E+01 0.  0.
     999903    2    3    3    0    0  0.77451934771E-01 -0.98596854671E-01  0.37177151867E-01  0.13260019286E+00  0.21920961982E-01 0.  0.
         14    1    1    2    0    0 -0.35541848620E-02  0.14748065857E-01 -0.18685090555E-01  0.24068034519E-01  0.00000000000E+00 0.  1.
     999901    1    3    3    0    0 -0.73897749909E-01  0.83848788813E-01 -0.18492061312E-01  0.88726177262E+00  0.88000000000E+00 0.  1.
        -11    1    4    4    0    0  0.31619483550E-01 -0.29181200032E-01  0.46379983942E-02  0.43279398394E-01  0.51100000000E-03 0. -1.
         11    1    4    4    0    0  0.45832451222E-01 -0.69415654638E-01  0.32539153473E-01  0.89320794463E-01  0.51100000000E-03 0.  1.
</event>
<event>
 8    1  0.1101883E+005  0.1043930E+01  0.7957747E-01            NaN
         13   -1    0    0    0    0  0.00000000000E+00  0.00000000000E+00  0.74505805969E-08  0.10566000000E+00  0.10566000000E+00 0. -1.
     999900   -1    0    0    0    0 -0.00000000000E+00 -0.00000000000E+00 -0.74505805969E-08  0.93827000000E+00  0.93827000000E+00 0. -1.
     999902    2    1    2    0    0  0.61976422226E-02 -0.13233559346E-01  0.18085194953E-01  0.10206789325E+01  0.10204140685E+01 0.  0.
     999903    2    3    3    0    0  0.21154491903E-01  0.88640808103E-01  0.93062135292E-01  0.13150873753E+00  0.18146118927E-01 0.  0.
         14    1    1    2    0    0 -0.61976422226E-02  0.13233559346E-01 -0.18085194953E-01  0.23251067472E-01  0.00000000000E+00 0.  1.
     999901    1    3    3    0    0 -0.14956849680E-01 -0.10187436745E+00 -0.74976940339E-01  0.88917019500E+00  0.88000000000E+00 0. -1.
        -11    1    4    4    0    0  0.11109515834E-01  0.16291942243E-01  0.16827705769E-01  0.25928392287E-01  0.51100000000E-03 0.  1.
         11    1    4    4    0    0  0.10044976069E-01  0.72348865860E-01  0.76234429523E-01  0.10558034524E+00  0.51100000000E-03 0. -1.
</event>
<event>
 8    1  0.1101883E+005  0.1043930E+01  0.7957747E-01            NaN
         13   -1    0    0    0    0  0.00000000000E+00  0.00000000000E+00  0.74505805969E-08  0.10566000000E+00  0.10566000000E+00 0.  1.
     999900   -1    0    0    0    0 -0.00000000000E+00 -0.00000000000E+00 -0.74505805969E-08  0.93827000000E+00  0.93827000000E+00 0.  1.
     999902    2    1    2    0    0  0.54947848270E-02 -0.21270319985E-01 -0.83369242540E-02  0.10204326921E+01  0.10201621222E+01 0.  0.
     999903    2    3    3    0    0 -0.76666552167E-01 -0.41132365459E-01 -0.95943207220E-01  0.13205222914E+00  0.25749961177E-01 0.  0.
         14    1    1    2    0    0 -0.54947848270E-02  0.21270319985E-01  0.83369242540E-02  0.23497307901E-01  0.00000000000E+00 0.  1.
     999901    1    3    3    0    0  0.82161336994E-01  0.19862045474E-01  0.87606282966E-01  0.88838046296E+00  0.88000000000E+00 0.  1.
        -11    1    4    4    0    0 -0.41264618728E-01 -0.22571976553E-01 -0.70210137851E-01  0.84510280217E-01  0.51100000000E-03 0. -1.
         11    1    4    4    0    0 -0.35401933439E-01 -0.18560388906E-01 -0.25733069369E-01  0.47541948926E-01  0.51100000000E-03 0.  1.
</event>
<event>
 8    1  0.1101883E+005  0.1043930E+01  0.7957747E-01            NaN
         13   -1    0    0    0    0  0.00000000000E+00  0.00000000000E+00  0.74505805969E-08  0.10566000000E+00  0.10566000000E+00 0. -1.
     999900   -1    0    0    0    0 -0.00000000000E+00 -0.00000000000E+00 -0.74505805969E-08  0.93827000000E+00  0.93827000000E+00 0. -1.
     999902    2    1    2    0    0  0.83541096589E-02  0.15670552352E-01  0.15573866955E-01  0.10203100362E+01  0.10200366009E+01 0.  0.
     999903    2    3    3    0    0  0.10359216467E+00 -0.75497159996E-01 -0.99321389854E-02  0.13012331686E+00  0.20056731021E-01 0.  0.
         14    1    1    2    0    0 -0.83541096589E-02 -0.15670552352E-01 -0.15573866955E-01  0.23619963826E-01  0.00000000000E+00 0.  1.
     999901    1    3    3    0    0 -0.95238055008E-01  0.91167712348E-01  0.25506005940E-01  0.89018671931E+00  0.88000000000E+00 0.  1.
        -11    1    4    4    0    0  0.36518030329E-01 -0.35601603228E-01  0.26494876869E-02  0.51071729925E-01  0.51100000000E-03 0.  1.
         11    1    4    4    0    0  0.67074134338E-01 -0.39895556768E-01 -0.12581626672E-01  0.79051586940E-01  0.51100000000E-03 0. -1.
</event>
<event>
 8    1  0.1101883E+005  0.1043930E+01  0.7957747E-01            NaN
         13   -1    0    0    0    0  0.00000000000E+00  0.00000000000E+00  0.74505805969E-08  0.10566000000E+00  0.10566000000E+00 0.  1.
     999900   -1    0    0    0    0 -0.00000000000E+00 -0.00000000000E+00 -0.74505805969E-08  0.93827000000E+00  0.93827000000E+00 0. -1.
     999902    2    1    2    0    0 -0.13112066017E-01 -0.20960702047E-01  0.29234224573E-03  0.10192042489E+01  0.10189042831E+01 0.  0.
     999903    2    3    3    0    0  0.26530816507E-01 -0.60672052454E-01 -0.11064003039E+00  0.13046663809E+00  0.19883288374E-01 0.  0.
         14    1    1    2    0    0  0.13112066017E-01  0.20960702047E-01 -0.29234224573E-03  0.24725751142E-01  0.00000000000E+00 0.  1.
     999901    1    3    3    0    0 -0.39642882524E-01  0.39711350407E-01  0.11093237264E+00  0.88873761076E+00  0.88000000000E+00 0.  1.
        -11    1    4    4    0    0  0.25300230093E-01 -0.42114548350E-01 -0.90977890823E-01  0.10339716904E+00  0.51100000000E-03 0.  1.
         11    1    4    4    0    0  0.12305864143E-02 -0.18557504104E-01 -0.19662139571E-01  0.27069469056E-01  0.51100000000E-03 0. -1.
</event>
<event>
 8    1  0.1101883E+005  0.1043930E+01  0.7957747E-01            NaN
         13   -1    0    0    0    0  0.00000000000E+00  0.00000000000E+00  0.74505805969E-08  0.10566000000E+00  0.10566000000E+00 0. -1.
     999900   -1    0    0    0    0 -0.00000000000E+00 -0.00000000000E+00 -0.74505805969E-08  0.93827000000E+00  0.93827000000E+00 0. -1.
     999902    2    1    2    0    0 -0.67216963816E-02  0.22593089479E-01  0.53789123256E-02  0.10197522914E+01  0.10194656317E+01 0.  0.
     999903    2    3    3    0    0 -0.21415952243E-01 -0.12336995902E+00  0.13607214367E-01  0.12757022612E+00  0.20253802378E-01 0.  0.
         14    1    1    2    0    0  0.67216963816E-02 -0.22593089479E-01 -0.53789123256E-02  0.24177708581E-01  0.00000000000E+00 0. -1.
     999901    1    3    3    0    0  0.14694255862E-01  0.14596304850E+00 -0.82283020416E-02  0.89218206530E+00  0.88000000000E+00 0. -1.
        -11    1    4    4    0    0 -0.90969258905E-02 -0.99441097150E-01  0.90277090569E-02  0.10026488176E+00  0.51100000000E-03 0.  1.
         11    1    4    4    0    0 -0.12319026353E-01 -0.23928861871E-01  0.45795053103E-02  0.27305344360E-01  0.51100000000E-03 0. -1.
</event>
<event>
 8    1  0.1101883E+005  0.1043930E+01  0.7957747E-01            NaN
         13   -1    0    0    0    0  0.00000000000E+00  0.00000000000E+00  0.74505805969E-08  0.10566000000E+00  0.10566000000E+00 0.  1.
     999900   -1    0    0    0    0 -0.00000000000E+00 -0.00000000000E+00 -0.74505805969E-08  0.93827000000E+00  0.93827000000E+00 0. -1.
     999902    2    1    2    0    0 -0.79413705309E-03  0.15270437287E-01  0.29154580719E-01  0.10110087837E+01  0.10104726390E+01 0.  0.
     999903    2    3    3    0    0  0.11435464894E+00 -0.63203493342E-03  0.41494856341E-01  0.12327886192E+00  0.19961700603E-01 0.  0.
         14    1    1    2    0    0  0.79413705309E-03 -0.15270437287E-01 -0.29154580719E-01  0.32921216343E-01  0.00000000000E+00 0. -1.
     999901    1    3    3    0    0 -0.11514878600E+00  0.15902472220E-01 -0.12340275623E-01  0.88772992173E+00  0.88000000000E+00 0. -1.
        -11    1    4    4    0    0  0.25477358569E-01 -0.45225170977E-02  0.20475851638E-02  0.25961561712E-01  0.51100000000E-03 0.  1.
         11    1    4    4    0    0  0.88877290376E-01  0.38904821642E-02  0.39447271177E-01  0.97317300211E-01  0.51100000000E-03 0. -1.
</event>
<event>
 8    1  0.1101883E+005  0.1043930E+01  0.7957747E-01            NaN
         13   -1    0    0    0    0  0.00000000000E+00  0.00000000000E+00  0.74505805969E-08  0.10566000000E+00  0.10566000000E+00 0.  1.
     999900   -1    0    0    0    0 -0.00000000000E+00 -0.00000000000E+00 -0.74505805969E-08  0.93827000000E+00  0.93827000000E+00 0. -1.
     999902    2    1    2    0    0 -0.21533785746E-01  0.44959994110E-02  0.97711445208E-02  0.10198594120E+01  0.10195753170E+01 0.  0.
     999903    2    3    3    0    0 -0.46682898103E-01  0.13464209614E-01 -0.11911875948E+00  0.13006982231E+00  0.19191193318E-01 0.  0.
         14    1    1    2    0    0  0.21533785746E-01 -0.44959994110E-02 -0.97711445208E-02  0.24070587955E-01  0.00000000000E+00 0. -1.
     999901    1    3    3    0    0  0.25149112358E-01 -0.89682102027E-02  0.12888990400E+00  0.88978958973E+00  0.88000000000E+00 0.  1.
        -11    1    4    4    0    0 -0.24442414696E-01  0.14967471556E-01 -0.52463373062E-01  0.59783973396E-01  0.51100000000E-03 0. -1.
         11    1    4    4    0    0 -0.22240483407E-01 -0.15032619424E-02 -0.66655386415E-01  0.70285848915E-01  0.51100000000E-03 0.  1.
</event>
<event>
 8    1  0.1101883E+005  0.1043930E+01  0.7957747E-01            NaN
         13   -1    0    0    0    0  0.00000000000E+00  0.00000000000E+00  0.74505805969E-08  0.10566000000E+00  0.10566000000E+00 0.  1.
     999900   -1    0    0    0    0 -0.00000000000E+00 -0.00000000000E+00 -0.74505805969E-08  0.93827000000E+00  0.93827000000E+00 0. -1.
     999902    2    1    2    0    0 -0.16405111139E-01 -0.14678905610E-01  0.78665426648E-02  0.10205530790E+01  0.10202853065E+01 0.  0.
     999903    2    3    3    0    0  0.32267056062E-01  0.11729635338E+00  0.37708864627E-01  0.12888216829E+00  0.19724538263E-01 0.  0.
         14    1    1    2    0    0  0.16405111139E-01  0.14678905610E-01 -0.78665426648E-02  0.23376920989E-01  0.00000000000E+00 0.  1.
     999901    1    3    3    0    0 -0.48672167201E-01 -0.13197525899E+00 -0.29842321962E-01  0.89167091072E+00  0.88000000000E+00 0. -1.
        -11    1    4    4    0    0  0.20722369778E-01  0.40163628080E-01  0.15632898427E-01  0.47824494394E-01  0.51100000000E-03 0.  1.
         11    1    4    4    0    0  0.11544686284E-01  0.77132725296E-01  0.22075966200E-01  0.81057673898E-01  0.51100000000E-03 0. -1.
</event>
<event>
 8    1  0.1101883E+005  0.1043930E+01  0.7957747E-01            NaN
         13   -1    0    0    0    0  0.00000000000E+00  0.00000000000E+00  0.74505805969E-08  0.10566000000E+00  0.10566000000E+00 0. -1.
     999900   -1    0    0    0    0 -0.00000000000E+00 -0.00000000000E+00 -0.74505805969E-08  0.93827000000E+00  0.93827000000E+00 0.  1.
     999902    2    1    2    0    0 -0.96011881090E-02 -0.11440807723E-01 -0.18418837501E-01  0.10202165340E+01  0.10199409041E+01 0.  0.
     999903    2    3    3    0    0  0.69358666613E-02  0.12273780915E+00  0.34990375201E-01  0.12829169446E+00  0.11034331388E-01 0.  0.
         14    1    1    2    0    0  0.96011881090E-02  0.11440807723E-01  0.18418837501E-01  0.23713465992E-01  0.00000000000E+00 0. -1.
     999901    1    3    3    0    0 -0.16537054770E-01 -0.13417861687E+00 -0.53409212702E-01  0.89192483955E+00  0.88000000000E+00 0.  1.
        -11    1    4    4    0    0 -0.27016302690E-02  0.17461367093E-01  0.39728045364E-02  0.18117462398E-01  0.51100000000E-03 0.  1.
         11    1    4    4    0    0  0.96374969302E-02  0.10527644206E+00  0.31017570665E-01  0.11017423206E+00  0.51100000000E-03 0. -1.
</event>
<event>
 8    1  0.1101883E+005  0.1043930E+01  0.7957747E-01            NaN
         13   -1    0    0    0    0  0.00000000000E+00  0.00000000000E+00  0.74505805969E-08  0.10566000000E+00  0.10566000000E+00 0.  1.
     999900   -1    0    0    0    0 -0.00000000000E+00 -0.00000000000E+00 -0.74505805969E-08  0.93827000000E+00  0.93827000000E+00 0. -1.
     999902    2    1    2    0    0  0.22497613736E-02  0.21675535517E-01 -0.92957727366E-02  0.10202381943E+01  0.10199630736E+01 0.  0.
     999903    2    3    3    0    0  0.45019612351E-01  0.99864169732E-01  0.70680332307E-01  0.13212846007E+00  0.21508200584E-01 0.  0.
         14    1    1    2    0    0 -0.22497613736E-02 -0.21675535517E-01  0.92957727366E-02  0.23691805692E-01  0.00000000000E+00 0. -1.
     999901    1    3    3    0    0 -0.42769850978E-01 -0.78188634215E-01 -0.79976105044E-01  0.88810973424E+00  0.88000000000E+00 0. -1.
        -11    1    4    4    0    0  0.64000150845E-02  0.30329691400E-01  0.11825405025E-01  0.33180592197E-01  0.51100000000E-03 0. -1.
         11    1    4    4    0    0  0.38619597267E-01  0.69534478332E-01  0.58854927282E-01  0.98947867872E-01  0.51100000000E-03 0.  1.
</event>
<event>
 8    1  0.1101883E+005  0.1043930E+01  0.7957747E-01            NaN
         13   -1    0    0    0    0  0.00000000000E+00  0.00000000000E+00  0.74505805969E-08  0.10566000000E+00  0.10566000000E+00 0. -1.
     999900   -1    0    0    0    0 -0.00000000000E+00 -0.00000000000E+00 -0.74505805969E-08  0.93827000000E+00  0.93827000000E+00 0.  1.
     999902    2    1    2    0    0  0.12653813924E-01  0.13493070959E-01  0.14354247903E-01  0.10205157649E+01  0.10202471270E+01 0.  0.
     999903    2    3    3    0    0  0.12186997211E+00  0.31493571677E-02  0.49475869864E-01  0.13300875654E+00  0.19525856330E-01 0.  0.
         14    1    1    2    0    0 -0.12653813924E-01 -0.13493070959E-01 -0.14354247903E-01  0.23414235063E-01  0.00000000000E+00 0.  1.
     999901    1    3    3    0    0 -0.10921615818E+00  0.10343713791E-01 -0.35121621962E-01  0.88750700840E+00  0.88000000000E+00 0.  1.
        -11    1    4    4    0    0  0.69037470283E-01 -0.40506426779E-03  0.17779733836E-01  0.71293172439E-01  0.51100000000E-03 0.  1.
         11    1    4    4    0    0  0.52832501825E-01  0.35544214355E-02  0.31696136029E-01  0.61715584101E-01  0.51100000000E-03 0. -1.
</event>
<event>
 8    1  0.1101883E+005  0.1043930E+01  0.7957747E-01            NaN
         13   -1    0    0    0    0  0.00000000000E+00  0.00000000000E+00  0.74505805969E-08  0.10566000000E+00  0.10566000000E+00 0.  1.
     999900   -1    0    0    0    0 -0.00000000000E+00 -0.00000000000E+00 -0.74505805969E-08  0.93827000000E+00  0.93827000000E+00 0.  1.
     999902    2    1    2    0    0  0.15966396795E-01 -0.13437864029E-01  0.73700578201E-02  0.10217981278E+01  0.10215584145E+01 0.  0.
     999903    2    3    3    0    0 -0.52804974013E-01 -0.39624999427E-01  0.11305222797E+00  0.13242532146E+00  0.19928714357E-01 0.  0.
         14    1    1    2    0    0 -0.15966396795E-01  0.13437864029E-01 -0.73700578201E-02  0.22131872233E-01  0.00000000000E+00 0. -1.
     999901    1    3    3    0    0  0.68771370808E-01  0.26187135398E-01 -0.10568217015E+00  0.88937280630E+00  0.88000000000E+00 0.  1.
        -11    1    4    4    0    0 -0.28792697760E-01 -0.24921316076E-01  0.46128892449E-01  0.59818285488E-01  0.51100000000E-03 0.  1.
         11    1    4    4    0    0 -0.24012276254E-01 -0.14703683351E-01  0.66923335521E-01  0.72607035976E-01  0.51100000000E-03 0. -1.
</event>
<event>
 8    1  0.1101883E+005  0.1043930E+01  0.7957747E-01            NaN
         13   -1    0    0    0    0  0.00000000000E+00  0.00000000000E+00  0.74505805969E-08  0.10566000000E+00  0.10566000000E+00 0. -1.
     999900   -1    0    0    0    0 -0.00000000000E+00 -0.00000000000E+00 -0.74505805969E-08  0.93827000000E+00  0.93827000000E+00 0. -1.
     999902    2    1    2    0    0 -0.24066977590E-01 -0.22128820632E-03  0.31493837970E-02  0.10196568256E+01  0.10193678703E+01 0.  0.
     999903    2    3    3    0    0  0.10130434601E+00  0.20572828215E-01 -0.71563241108E-01  0.12739434155E+00  0.20547724929E-01 0.  0.
         14    1    1    2    0    0  0.24066977590E-01  0.22128820632E-03 -0.31493837970E-02  0.24273174433E-01  0.00000000000E+00 0. -1.
     999901    1    3    3    0    0 -0.12537132360E+00 -0.20794116422E-01  0.74712624905E-01  0.89226248401E+00  0.88000000000E+00 0.  1.
        -11    1    4    4    0    0  0.84812435801E-01  0.13775514387E-01 -0.50035490962E-01  0.99432014663E-01  0.51100000000E-03 0. -1.
         11    1    4    4    0    0  0.16491910212E-01  0.67973138286E-02 -0.21527750145E-01  0.27962326889E-01  0.51100000000E-03 0.  1.
</event>
<event>
 7    1  0.1101883E+005  0.1043930E+01  0.7957747E-01            NaN
         13   -1    0    0    0    0  0.00000000000E+00  0.00000000000E+00  0.74505805969E-08  0.10566000000E+00  0.10566000000E+00 0.  1.
     999900   -1    0    0    0    0 -0.00000000000E+00 -0.00000000000E+00 -0.74505805969E-08  0.93827000000E+00  0.93827000000E+00 0. -1.
     999903    2    1    2    0    0 -0.26515463059E-01 -0.27576673357E-01 -0.10642161271E+00  0.11477031316E+00  0.19573513646E-01 0.  0.
         14    1    1    2    0    0  0.28303876012E-01 -0.52737395373E-02 -0.25817594743E-01  0.38671306214E-01  0.00000000000E+00 0. -1.
     999901    1    1    2    0    0 -0.17884129526E-02  0.32850412894E-01  0.13223920745E+00  0.89048838063E+00  0.88000000000E+00 0.  1.
        -11    1    3    3    0    0 -0.63655820667E-02 -0.20583910250E-01 -0.57111120850E-01  0.61042274220E-01  0.51100000000E-03 0.  1.
         11    1    3    3    0    0 -0.20149880992E-01 -0.69927631068E-02 -0.49310491857E-01  0.53728038937E-01  0.51100000000E-03 0. -1.
</event>
<event>
 8    1  0.1101883E+005  0.1043930E+01  0.7957747E-01            NaN
         13   -1    0    0    0    0  0.00000000000E+00  0.00000000000E+00  0.74505805969E-08  0.10566000000E+00  0.10566000000E+00 0. -1.
     999900   -1    0    0    0    0 -0.00000000000E+00 -0.00000000000E+00 -0.74505805969E-08  0.93827000000E+00  0.93827000000E+00 0.  1.
     999902    2    1    2    0    0  0.79704353445E-02 -0.21632302388E-02 -0.22377077416E-01  0.10200775159E+01  0.10197986063E+01 0.  0.
     999903    2    3    3    0    0  0.10707159325E+00  0.70912396383E-01 -0.20268931151E-01  0.13150251569E+00  0.19727848864E-01 0.  0.
         14    1    1    2    0    0 -0.79704353445E-02  0.21632302388E-02  0.22377077416E-01  0.23852484112E-01  0.00000000000E+00 0.  1.
     999901    1    3    3    0    0 -0.99101157901E-01 -0.73075626622E-01 -0.21081462643E-02  0.88857500020E+00  0.88000000000E+00 0. -1.
        -11    1    4    4    0    0  0.48247196000E-01  0.21301113378E-01 -0.43673690722E-02  0.52923193277E-01  0.51100000000E-03 0.  1.
         11    1    4    4    0    0  0.58824397245E-01  0.49611283006E-01 -0.15901562079E-01  0.78579322409E-01  0.51100000000E-03 0. -1.
</event>
<event>
 8    1  0.1101883E+005  0.1043930E+01  0.7957747E-01            NaN
         13   -1    0    0    0    0  0.00000000000E+00  0.00000000000E+00  0.74505805969E-08  0.10566000000E+00  0.10566000000E+00 0. -1.
     999900   -1    0    0    0    0 -0.00000000000E+00 -0.00000000000E+00 -0.74505805969E-08  0.93827000000E+00  0.93827000000E+00 0.  1.
     999902    2    1    2    0    0  0.17533423417E-01  0.13761900586E-01  0.39273002213E-02  0.10212974011E+01  0.10210465940E+01 0.  0.
     999903    2    3    3    0    0  0.32281005726E-02 -0.10156083009E+00 -0.78077128949E-01  0.12987791465E+00  0.21147382979E-01 0.  0.
         14    1    1    2    0    0 -0.17533423417E-01 -0.13761900586E-01 -0.39273002213E-02  0.22632598868E-01  0.00000000000E+00 0. -1.
     999901    1    3    3    0    0  0.14305322845E-01  0.11532273068E+00  0.82004429170E-01  0.89141948648E+00  0.88000000000E+00 0.  1.
        -11    1    4    4    0    0 -0.23877426105E-02 -0.90905402539E-01 -0.73697005593E-01  0.11705128483E+00  0.51100000000E-03 0. -1.
         11    1    4    4    0    0  0.56158431832E-02 -0.10655427554E-01 -0.43801233560E-02  0.12826629824E-01  0.51100000000E-03 0.  1.
</event>
<event>
 8    1  0.1101883E+005  0.1043930E+01  0.7957747E-01            NaN
         13   -1    0    0    0    0  0.00000000000E+00  0.00000000000E+00  0.74505805969E-08  0.10566000000E+00  0.10566000000E+00 0. -1.
     999900   -1    0    0    0    0 -0.00000000000E+00 -0.00000000000E+00 -0.74505805969E-08  0.93827000000E+00  0.93827000000E+00 0.  1.
     999902    2    1    2    0    0 -0.29910261644E-02  0.13926167941E-01  0.18959910336E-01  0.10202158146E+01  0.10199401677E+01 0.  0.
     999903    2    3    3    0    0  0.18674895995E-01 -0.10615706352E+00 -0.65538702943E-01  0.12778687604E+00  0.20398289871E-01 0.  0.
         14    1    1    2    0    0  0.29910261644E-02 -0.13926167941E-01 -0.18959910336E-01  0.23714185438E-01  0.00000000000E+00 0.  1.
     999901    1    3    3    0    0 -0.21665922160E-01  0.12008323146E+00  0.84498613279E-01  0.89242893852E+00  0.88000000000E+00 0.  1.
        -11    1    4    4    0    0  0.21853621148E-01 -0.81205116613E-01 -0.55156027980E-01  0.10056987752E+00  0.51100000000E-03 0.  1.
         11    1    4    4    0    0 -0.31787251529E-02 -0.24951946906E-01 -0.10382674963E-01  0.27216998519E-01  0.51100000000E-03 0. -1.
</event>
<event>
 8    1  0.1101883E+005  0.1043930E+01  0.7957747E-01            NaN
         13   -1    0    0    0    0  0.00000000000E+00  0.00000000000E+00  0.74505805969E-08  0.10566000000E+00  0.10566000000E+00 0. -1.
     999900   -1    0    0    0    0 -0.00000000000E+00 -0.00000000000E+00 -0.74505805969E-08  0.93827000000E+00  0.93827000000E+00 0. -1.
     999902    2    1    2    0    0 -0.78112804046E-02 -0.91468564642E-02  0.21069807967E-01  0.10196685513E+01  0.10193798785E+01 0.  0.
     999903    2    3    3    0    0  0.11777474507E+00  0.19912040218E-01  0.45170078247E-01  0.12995112859E+00  0.24074466370E-01 0.  0.
         14    1    1    2    0    0  0.78112804046E-02  0.91468564642E-02 -0.21069807967E-01  0.24261448689E-01  0.00000000000E+00 0.  1.
     999901    1    3    3    0    0 -0.12558602547E+00 -0.29058896682E-01 -0.24100270280E-01  0.88971742272E+00  0.88000000000E+00 0. -1.
        -11    1    4    4    0    0  0.97439521459E-01  0.70598224164E-02  0.38214959061E-01  0.10490445964E+00  0.51100000000E-03 0.  1.
         11    1    4    4    0    0  0.20335223608E-01  0.12852217802E-01  0.69551191865E-02  0.25046668950E-01  0.51100000000E-03 0. -1.
</event>
<event>
 8    1  0.1101883E+005  0.1043930E+01  0.7957747E-01            NaN
         13   -1    0    0    0    0  0.00000000000E+00  0.00000000000E+00  0.74505805969E-08  0.10566000000E+00  0.10566000000E+00 0. -1.
     999900   -1    0    0    0    0 -0.00000000000E+00 -0.00000000000E+00 -0.74505805969E-08  0.93827000000E+00  0.93827000000E+00 0. -1.
     999902    2    1    2    0    0  0.18580272105E-01 -0.12544489376E-01  0.31417192011E-02  0.10212923958E+01  0.10210414764E+01 0.  0.
     999903    2    3    3    0    0  0.33186704996E-01 -0.12229688815E+00  0.38126286751E-01  0.13366473911E+00  0.18835140083E-01 0.  0.
         14    1    1    2    0    0 -0.18580272105E-01  0.12544489376E-01 -0.31417192011E-02  0.22637604218E-01  0.00000000000E+00 0. -1.
     999901    1    3    3    0    0 -0.14606432891E-01  0.10975239877E+00 -0.34984567550E-01  0.88762765667E+00  0.88000000000E+00 0.  1.
        -11    1    4    4    0    0  0.25960828063E-01 -0.73462807604E-01  0.30673512374E-01  0.83736934367E-01  0.51100000000E-03 0.  1.
         11    1    4    4    0    0  0.72258769328E-02 -0.48834080542E-01  0.74527743771E-02  0.49927804746E-01  0.51100000000E-03 0. -1.
</event>
<event>
 8    1  0.1101883E+005  0.1043930E+01  0.7957747E-01            NaN
         13   -1    0    0    0    0  0.00000000000E+00  0.00000000000E+00  0.74505805969E-08  0.10566000000E+00  0.10566000000E+00 0.  1.
     999900   -1    0    0    0    0 -0.00000000000E+00 -0.00000000000E+00 -0.74505805969E-08  0.93827000000E+00  0.93827000000E+00 0.  1.
     999902    2    1    2    0    0  0.22199750958E-01  0.87971382581E-02  0.49771804631E-02  0.10195375645E+01  0.10192457282E+01 0.  0.
     999903    2    3    3    0    0  0.11500810793E-01  0.44713272513E-01 -0.11966997341E+00  0.12996387504E+00  0.20932293019E-01 0.  0.
         14    1    1    2    0    0 -0.22199750958E-01 -0.87971382581E-02 -0.49771804631E-02  0.24392435497E-01  0.00000000000E+00 0.  1.
     999901    1    3    3    0    0  0.10698940165E-01 -0.35916134255E-01  0.12464715387E+00  0.88957368947E+00  0.88000000000E+00 0. -1.
        -11    1    4    4    0    0 -0.25063613409E-02  0.22826712238E-01 -0.73205682058E-01  0.76724661260E-01  0.51100000000E-03 0. -1.
         11    1    4    4    0    0  0.14007172134E-01  0.21886560274E-01 -0.46464291352E-01  0.53239213777E-01  0.51100000000E-03 0.  1.
</event>
<event>
 8    1  0.1101883E+005  0.1043930E+01  0.7957747E-01            NaN
         13   -1    0    0    0    0  0.00000000000E+00  0.00000000000E+00  0.74505805969E-08  0.10566000000E+00  0.10566000000E+00 0. -1.
     999900   -1    0    0    0    0 -0.00000000000E+00 -0.00000000000E+00 -0.74505805969E-08  0.93827000000E+00  0.93827000000E+00 0. -1.
     999902    2    1    2    0    0 -0.24250280216E-02 -0.20570222158E-01 -0.12876962749E-01  0.10195408432E+01  0.10192490863E+01 0.  0.
     999903    2    3    3    0    0  0.81862790736E-01 -0.66525125023E-01 -0.76801397936E-01  0.13201471799E+00  0.20057972849E-01 0.  0.
         14    1    1    2    0    0  0.24250280216E-02  0.20570222158E-01  0.12876962749E-01  0.24389156815E-01  0.00000000000E+00 0. -1.
     999901    1    3    3    0    0 -0.84287818757E-01  0.45954902865E-01  0.63924435187E-01  0.88752612519E+00  0.88000000000E+00 0. -1.
        -11    1    4    4    0    0  0.25982458909E-01 -0.30287933852E-01 -0.20840514069E-01  0.45022608273E-01  0.51100000000E-03 0. -1.
         11    1    4    4    0    0  0.55880331827E-01 -0.36237191171E-01 -0.55960883866E-01  0.86992109718E-01  0.51100000000E-03 0.  1.
</event>
<event>
 8    1  0.1101883E+005  0.1043930E+01  0.7957747E-01            NaN
         13   -1    0    0    0    0  0.00000000000E+00  0.00000000000E+00  0.74505805969E-08  0.10566000000E+00  0.10566000000E+00 0. -1.
     999900   -1    0    0    0    0 -0.00000000000E+00 -0.00000000000E+00 -0.74505805969E-08  0.93827000000E+00  0.93827000000E+00 0. -1.
     999902    2    1    2    0    0 -0.15988782638E-01  0.17099886740E-01 -0.69499851584E-02  0.10195097299E+01  0.10192172192E+01 0.  0.
     999903    2    3    3    0    0  0.80051736645E-01  0.82422077903E-01  0.56726029281E-01  0.12959658539E+00  0.19384351455E-01 0.  0.
         14    1    1    2    0    0  0.15988782638E-01 -0.17099886740E-01  0.69499851584E-02  0.24420270073E-01  0.00000000000E+00 0.  1.
     999901    1    3    3    0    0 -0.96040519282E-01 -0.65322191163E-01 -0.63676014440E-01  0.88991314454E+00  0.88000000000E+00 0. -1.
        -11    1    4    4    0    0  0.40546302306E-01  0.48124498884E-01  0.40430183072E-01  0.74798601910E-01  0.51100000000E-03 0.  1.
         11    1    4    4    0    0  0.39505434339E-01  0.34297579019E-01  0.16295846209E-01  0.54797983481E-01  0.51100000000E-03 0. -1.
</event>
<event>
 8    1  0.1101883E+005  0.1043930E+01  0.7957747E-01            NaN
         13   -1    0    0    0    0  0.00000000000E+00  0.00000000000E+00  0.74505805969E-08  0.10566000000E+00  0.10566000000E+00 0. -1.
     999900   -1    0    0    0    0 -0.00000000000E+00 -0.00000000000E+00 -0.74505805969E-08  0.93827000000E+00  0.93827000000E+00 0. -1.
     999902    2    1    2    0    0 -0.55882942516E-02  0.22598068670E-01  0.26960244614E-02  0.10204956174E+01  0.10202265115E+01 0.  0.
     999903    2    3    3    0    0  0.14278795120E-01  0.30964305505E-01 -0.12478828809E+00  0.13104806688E+00  0.20947715477E-01 0.  0.
         14    1    1    2    0    0  0.55882942516E-02 -0.22598068670E-01 -0.26960244614E-02  0.23434382607E-01  0.00000000000E+00 0.  1.
     999901    1    3    3    0    0 -0.19867089372E-01 -0.83662368354E-02  0.12748431255E+00  0.88944755051E+00  0.88000000000E+00 0.  1.
        -11    1    4    4    0    0  0.51119963252E-02 -0.20564763911E-02 -0.13142038988E-01  0.14259590154E-01  0.51100000000E-03 0.  1.
         11    1    4    4    0    0  0.91667987950E-02  0.33020781897E-01 -0.11164624910E+00  0.11678847673E+00  0.51100000000E-03 0. -1.
</event>
<event>
 8    1  0.1101883E+005  0.1043930E+01  0.7957747E-01            NaN
         13   -1    0    0    0    0  0.00000000000E+00  0.00000000000E+00  0.74505805969E-08  0.10566000000E+00  0.10566000000E+00 0. -1.
     999900   -1    0    0    0    0 -0.00000000000E+00 -0.00000000000E+00 -0.74505805969E-08  0.93827000000E+00  0.93827000000E+00 0.  1.
     999902    2    1    2    0    0 -0.11162064423E-01 -0.12675244166E-01  0.16844787643E-01  0.10200762714E+01  0.10197973324E+01 0.  0.
     999903    2    3    3    0    0  0.28868256593E-01  0.57042784339E-01  0.11067279026E+00  0.13144433176E+00  0.30690232383E-01 0.  0.
         14    1    1    2    0    0  0.11162064423E-01  0.12675244166E-01 -0.16844787643E-01  0.23853728589E-01  0.00000000000E+00 0.  1.
     999901    1    3    3    0    0 -0.40030321016E-01 -0.69718028505E-01 -0.93828002614E-01  0.88863193965E+00  0.88000000000E+00 0. -1.
        -11    1    4    4    0    0  0.24522053812E-01  0.37793109867E-01  0.48432608342E-01  0.66148537009E-01  0.51100000000E-03 0.  1.
         11    1    4    4    0    0  0.43462027801E-02  0.19249674472E-01  0.62240181915E-01  0.65295794747E-01  0.51100000000E-03 0. -1.
</event>
<event>
 8    1  0.1101883E+005  0.1043930E+01  0.7957747E-01            NaN
         13   -1    0    0    0    0  0.00000000000E+00  0.00000000000E+00  0.74505805969E-08  0.10566000000E+00  0.10566000000E+00 0. -1.
     999900   -1    0    0    0    0 -0.00000000000E+00 -0.00000000000E+00 -0.74505805969E-08  0.93827000000E+00  0.93827000000E+00 0. -1.
     999902    2    1    2    0    0 -0.14076106976E-01  0.15995895741E-01 -0.76460909363E-02  0.10212922401E+01  0.10210413172E+01 0.  0.
     999903    2    3    3    0    0  0.30356627263E-01  0.11600553421E+00 -0.54580080565E-01  0.13327253587E+00  0.20094149307E-01 0.  0.
         14    1    1    2    0    0  0.14076106976E-01 -0.15995895741E-01  0.76460909363E-02  0.22637759933E-01  0.00000000000E+00 0. -1.
     999901    1    3    3    0    0 -0.44432734240E-01 -0.10000963847E+00  0.46933989628E-01  0.88801970420E+00  0.88000000000E+00 0. -1.
        -11    1    4    4    0    0  0.24278271263E-01  0.60744096090E-01 -0.35898860028E-01  0.74620834474E-01  0.51100000000E-03 0.  1.
         11    1    4    4    0    0  0.60783560007E-02  0.55261438122E-01 -0.18681220536E-01  0.58651701397E-01  0.51100000000E-03 0. -1.
</event>
<event>
 8    1  0.1101883E+005  0.1043930E+01  0.7957747E-01            NaN
         13   -1    0    0    0    0  0.00000000000E+00  0.00000000000E+00  0.74505805969E-08  0.10566000000E+00  0.10566000000E+00 0. -1.
     999900   -1    0    0    0    0 -0.00000000000E+00 -0.00000000000E+00 -0.74505805969E-08  0.93827000000E+00  0.93827000000E+00 0.  1.
     999902    2    1    2    0    0  0.13537380615E-01 -0.17567424936E-01 -0.84839163587E-02  0.10201844335E+01  0.10199080480E+01 0.  0.
     999903    2    3    3    0    0  0.49501703755E-02  0.46940326152E-01  0.11809671637E+00  0.12874871133E+00  0.20037411196E-01 0.  0.
         14    1    1    2    0    0 -0.13537380615E-01  0.17567424936E-01  0.84839163587E-02  0.23745566524E-01  0.00000000000E+00 0. -1.
     999901    1    3    3    0    0  0.85872102393E-02 -0.64507751088E-01 -0.12658063273E+00  0.89143572214E+00  0.88000000000E+00 0.  1.
        -11    1    4    4    0    0  0.58720862251E-02  0.19636176720E-01  0.74732221850E-01  0.77493399309E-01  0.51100000000E-03 0. -1.
         11    1    4    4    0    0 -0.92191584966E-03  0.27304149432E-01  0.43364494517E-01  0.51255312025E-01  0.51100000000E-03 0.  1.
</event>
<event>
 8    1  0.1101883E+005  0.1043930E+01  0.7957747E-01            NaN
         13   -1    0    0    0    0  0.00000000000E+00  0.00000000000E+00  0.74505805969E-08  0.10566000000E+00  0.10566000000E+00 0.  1.
     999900   -1    0    0    0    0 -0.00000000000E+00 -0.00000000000E+00 -0.74505805969E-08  0.93827000000E+00  0.93827000000E+00 0. -1.
     999902    2    1    2    0    0 -0.33097738333E-02  0.21070952363E-01  0.12766809626E-01  0.10190717807E+01  0.10187685523E+01 0.  0.
     999903    2    3    3    0    0 -0.89102199019E-01  0.45846411113E-01  0.82910100724E-01  0.13177575074E+00  0.21205386116E-01 0.  0.
         14    1    1    2    0    0  0.33097738333E-02 -0.21070952363E-01 -0.12766809626E-01  0.24858219251E-01  0.00000000000E+00 0. -1.
     999901    1    3    3    0    0  0.85792425185E-01 -0.24775458750E-01 -0.70143291098E-01  0.88729603000E+00  0.88000000000E+00 0. -1.
        -11    1    4    4    0    0 -0.59954390164E-02  0.94689212194E-02  0.13464619852E-01  0.17526062502E-01  0.51100000000E-03 0.  1.
         11    1    4    4    0    0 -0.83106760002E-01  0.36377489893E-01  0.69445480872E-01  0.11424968824E+00  0.51100000000E-03 0. -1.
</event>
<event>
 8    1  0.1101883E+005  0.1043930E+01  0.7957747E-01            NaN
         13   -1    0    0    0    0  0.00000000000E+00  0.00000000000E+00  0.74505805969E-08  0.10566000000E+00  0.10566000000E+00 0.  1.
     999900   -1    0    0    0    0 -0.00000000000E+00 -0.00000000000E+00 -0.74505805969E-08  0.93827000000E+00  0.93827000000E+00 0. -1.
     999902    2    1    2    0    0 -0.12847110141E-01 -0.17641297151E-01  0.86133928087E-02  0.10204682409E+01  0.10201984986E+01 0.  0.
     999903    2    3    3    0    0  0.29438618013E-01  0.11947446541E+00 -0.29205831859E-01  0.12804507396E+00  0.20044456451E-01 0.  0.
         14    1    1    2    0    0  0.12847110141E-01  0.17641297151E-01 -0.86133928087E-02  0.23461759095E-01  0.00000000000E+00 0.  1.
     999901    1    3    3    0    0 -0.42285728154E-01 -0.13711576256E+00  0.37819224667E-01  0.89242316695E+00  0.88000000000E+00 0.  1.
        -11    1    4    4    0    0  0.11966293633E-01  0.41812972643E-01 -0.72949187303E-03  0.43500691305E-01  0.51100000000E-03 0. -1.
         11    1    4    4    0    0  0.17472324379E-01  0.77661492769E-01 -0.28476339986E-01  0.84544382654E-01  0.51100000000E-03 0.  1.
</event>
<event>
 8    1  0.1101883E+005  0.1043930E+01  0.7957747E-01            NaN
         13   -1    0    0    0    0  0.00000000000E+00  0.00000000000E+00  0.74505805969E-08  0.10566000000E+00  0.10566000000E+00 0.  1.
     999900   -1    0    0    0    0 -0.00000000000E+00 -0.00000000000E+00 -0.74505805969E-08  0.93827000000E+00  0.93827000000E+00 0.  1.
     999902    2    1    2    0    0  0.46613956210E-02 -0.15612501746E-01 -0.17775396723E-01  0.10198168594E+01  0.10195317470E+01 0.  0.
     999903    2    3    3    0    0  0.17073642354E-01 -0.73113346422E-01  0.10387739009E+00  0.12950241410E+00  0.18528151510E-01 0.  0.
         14    1    1    2    0    0 -0.46613956210E-02  0.15612501746E-01  0.17775396723E-01  0.24113140579E-01  0.00000000000E+00 0.  1.
     999901    1    3    3    0    0 -0.12412246733E-01  0.57500844676E-01 -0.12165278681E+00  0.89031444532E+00  0.88000000000E+00 0.  1.
        -11    1    4    4    0    0  0.28747054215E-02 -0.73729876889E-02  0.34840892931E-02  0.86616902463E-02  0.51100000000E-03 0. -1.
         11    1    4    4    0    0  0.14198936932E-01 -0.65740358733E-01  0.10039330079E+00  0.12084072385E+00  0.51100000000E-03 0.  1.
</event>
<event>
 8    1  0.1101883E+005  0.1043930E+01  0.7957747E-01            NaN
         13   -1    0    0    0    0  0.00000000000E+00  0.00000000000E+00  0.74505805969E-08  0.10566000000E+00  0.10566000000E+00 0. -1.
     999900   -1    0    0    0    0 -0.00000000000E+00 -0.00000000000E+00 -0.74505805969E-08  0.93827000000E+00  0.93827000000E+00 0.  1.
     999902    2    1    2    0    0  0.18126485950E-03  0.21370168046E-01 -0.85113446660E-02  0.10209265236E+01  0.10206673340E+01 0.  0.
     999903    2    3    3    0    0 -0.11259197339E+00  0.64725234621E-02  0.62759916454E-01  0.13074713956E+00  0.20908403993E-01 0.  0.
         14    1    1    2    0    0 -0.18126485950E-03 -0.21370168046E-01  0.85113446660E-02  0.23003476417E-01  0.00000000000E+00 0.  1.
     999901    1    3    3    0    0  0.11277323825E+00  0.14897644584E-01 -0.71271261120E-01  0.89017938402E+00  0.88000000000E+00 0.  1.
        -11    1    4    4    0    0 -0.52856014958E-01  0.87786530799E-02  0.39632154811E-01  0.66646769487E-01  0.51100000000E-03 0. -1.
         11    1    4    4    0    0 -0.59735958433E-01 -0.23061296178E-02  0.23127761643E-01  0.64100370072E-01  0.51100000000E-03 0.  1.
</event>
<event>
 8    1  0.1101883E+005  0.1043930E+01  0.7957747E-01            NaN
         13   -1    0    0    0    0  0.00000000000E+00  0.00000000000E+00  0.74505805969E-08  0.10566000000E+00  0.10566000000E+00 0.  1.
     999900   -1    0    0    0    0 -0.00000000000E+00 -0.00000000000E+00 -0.74505805969E-08  0.93827000000E+00  0.93827000000E+00 0.  1.
     999902    2    1    2    0    0 -0.15383776583E-01  0.72641325762E-02  0.15646951471E-01  0.10208160368E+01  0.10205543228E+01 0.  0.
     999903    2    3    3    0    0 -0.57830514914E-01  0.19791306942E-01 -0.11327433687E+00  0.13032215458E+00  0.20413826107E-01 0.  0.
         14    1    1    2    0    0  0.15383776583E-01 -0.72641325762E-02 -0.15646951471E-01  0.23113963191E-01  0.00000000000E+00 0. -1.
     999901    1    3    3    0    0  0.42446738332E-01 -0.12527174366E-01  0.12892128834E+00  0.89049388223E+00  0.88000000000E+00 0. -1.
        -11    1    4    4    0    0 -0.30422987321E-01  0.55014282178E-02 -0.38292845310E-01  0.49218157146E-01  0.51100000000E-03 0. -1.
         11    1    4    4    0    0 -0.27407527593E-01  0.14289878724E-01 -0.74981491561E-01  0.81103997438E-01  0.51100000000E-03 0.  1.
</event>
<event>
 8    1  0.1101883E+005  0.1043930E+01  0.7957747E-01            NaN
         13   -1    0    0    0    0  0.00000000000E+00  0.00000000000E+00  0.74505805969E-08  0.10566000000E+00  0.10566000000E+00 0. -1.
     999900   -1    0    0    0    0 -0.00000000000E+00 -0.00000000000E+00 -0.74505805969E-08  0.93827000000E+00  0.93827000000E+00 0.  1.
     999902    2    1    2    0    0 -0.13548868015E-01  0.18151744554E-01 -0.12853872268E-01  0.10178861968E+01  0.10175529617E+01 0.  0.
     999903    2    3    3    0    0 -0.34632394076E-01  0.12105715716E+00 -0.32062834302E-01  0.13143088303E+00  0.19794283295E-01 0.  0.
         14    1    1    2    0    0  0.13548868015E-01 -0.18151744554E-01  0.12853872268E-01  0.26043803238E-01  0.00000000000E+00 0. -1.
     999901    1    3    3    0    0  0.21083526061E-01 -0.10290541261E+00  0.19208962035E-01  0.88645531373E+00  0.88000000000E+00 0. -1.
        -11    1    4    4    0    0 -0.10731410887E-01  0.45695347675E-01 -0.21621952925E-01  0.51681698386E-01  0.51100000000E-03 0. -1.
         11    1    4    4    0    0 -0.23900983189E-01  0.75361809489E-01 -0.10440881377E-01  0.79749184647E-01  0.51100000000E-03 0.  1.
</event>
<event>
 7    1  0.1101883E+005  0.1043930E+01  0.7957747E-01            NaN
         13   -1    0    0    0    0  0.00000000000E+00  0.00000000000E+00  0.74505805969E-08  0.10566000000E+00  0.10566000000E+00 0.  1.
     999900   -1    0    0    0    0 -0.00000000000E+00 -0.00000000000E+00 -0.74505805969E-08  0.93827000000E+00  0.93827000000E+00 0.  1.
     999903    2    1    2    0    0  0.27694173020E-01 -0.55663486524E-02 -0.75857636298E-01  0.83679733597E-01  0.21212387265E-01 0.  0.
         14    1    1    2    0    0 -0.40165501806E-01 -0.59108443351E-01  0.27143945294E-01  0.76445205061E-01  0.00000000000E+00 0. -1.
     999901    1    1    2    0    0  0.12471328786E-01  0.64674792004E-01  0.48713691004E-01  0.88380506134E+00  0.88000000000E+00 0. -1.
        -11    1    3    3    0    0  0.19600944355E-01 -0.13526564186E-01 -0.47746185145E-01  0.53358450832E-01  0.51100000000E-03 0.  1.
         11    1    3    3    0    0  0.80932286648E-02  0.79602155334E-02 -0.28111451153E-01  0.30321282765E-01  0.51100000000E-03 0. -1.
</event>
<event>
 8    1  0.1101883E+005  0.1043930E+01  0.7957747E-01            NaN
         13   -1    0    0    0    0  0.00000000000E+00  0.00000000000E+00  0.74505805969E-08  0.10566000000E+00  0.10566000000E+00 0. -1.
     999900   -1    0    0    0    0 -0.00000000000E+00 -0.00000000000E+00 -0.74505805969E-08  0.93827000000E+00  0.93827000000E+00 0.  1.
     999902    2    1    2    0    0  0.98919687800E-02  0.23682654100E-01  0.15829681398E-01  0.10137754321E+01  0.10133268618E+01 0.  0.
     999903    2    3    3    0    0  0.17483921602E-01 -0.77064843855E-01  0.94141108443E-01  0.12453959404E+00  0.20071983282E-01 0.  0.
         14    1    1    2    0    0 -0.98919687800E-02 -0.23682654100E-01 -0.15829681398E-01  0.30154567892E-01  0.00000000000E+00 0.  1.
     999901    1    3    3    0    0 -0.75919528219E-02  0.10074749795E+00 -0.78311427045E-01  0.88923583806E+00  0.88000000000E+00 0.  1.
        -11    1    4    4    0    0 -0.22623550246E-02 -0.12929786536E-01  0.81391443824E-02  0.15453298108E-01  0.51100000000E-03 0.  1.
         11    1    4    4    0    0  0.19746276626E-01 -0.64135057319E-01  0.86001964061E-01  0.10908629594E+00  0.51100000000E-03 0. -1.
</event>
<event>
 8    1  0.1101883E+005  0.1043930E+01  0.7957747E-01            NaN
         13   -1    0    0    0    0  0.00000000000E+00  0.00000000000E+00  0.74505805969E-08  0.10566000000E+00  0.10566000000E+00 0. -1.
     999900   -1    0    0    0    0 -0.00000000000E+00 -0.00000000000E+00 -0.74505805969E-08  0.93827000000E+00  0.93827000000E+00 0. -1.
     999902    2    1    2    0    0 -0.19677303151E-01 -0.15926663106E-02  0.11660199977E-01  0.10210020016E+01  0.10207445294E+01 0.  0.
     999903    2    3    3    0    0  0.59320085139E-01  0.11013929401E+00 -0.26507793101E-01  0.12960903891E+00  0.21125891370E-01 0.  0.
         14    1    1    2    0    0  0.19677303151E-01  0.15926663106E-02 -0.11660199977E-01  0.22927998359E-01  0.00000000000E+00 0.  1.
     999901    1    3    3    0    0 -0.78997388290E-01 -0.11173196032E+00  0.38167993078E-01  0.89139296273E+00  0.88000000000E+00 0.  1.
        -11    1    4    4    0    0  0.57857676289E-01  0.10943963439E+00 -0.23283297820E-01  0.12596395262E+00  0.51100000000E-03 0.  1.
         11    1    4    4    0    0  0.14624088504E-02  0.69965961447E-03 -0.32244952806E-02  0.36450862865E-02  0.51100000000E-03 0. -1.
</event>
<event>
 8    1  0.1101883E+005  0.1043930E+01  0.7957747E-01            NaN
         13   -1    0    0    0    0  0.00000000000E+00  0.00000000000E+00  0.74505805969E-08  0.10566000000E+00  0.10566000000E+00 0. -1.
     999900   -1    0    0    0    0 -0.00000000000E+00 -0.00000000000E+00 -0.74505805969E-08  0.93827000000E+00  0.93827000000E+00 0.  1.
     999902    2    1    2    0    0  0.23683742251E-01  0.21357000484E-02 -0.36147627626E-02  0.10198769883E+01  0.10195933130E+01 0.  0.
     999903    2    3    3    0    0 -0.93117725222E-01 -0.26874810903E-01  0.81021058838E-01  0.12766209555E+00  0.18439968947E-01 0.  0.
         14    1    1    2    0    0 -0.23683742251E-01 -0.21357000484E-02  0.36147627626E-02  0.24053011694E-01  0.00000000000E+00 0. -1.
     999901    1    3    3    0    0  0.11680146747E+00  0.29010510952E-01 -0.84635821600E-01  0.89221489275E+00  0.88000000000E+00 0.  1.
        -11    1    4    4    0    0 -0.58972247075E-01 -0.23222043520E-01  0.43960135644E-01  0.77134582887E-01  0.51100000000E-03 0. -1.
         11    1    4    4    0    0 -0.34145478146E-01 -0.36527673828E-02  0.37060923194E-01  0.50527512667E-01  0.51100000000E-03 0.  1.
</event>
<event>
 8    1  0.1101883E+005  0.1043930E+01  0.7957747E-01            NaN
         13   -1    0    0    0    0  0.00000000000E+00  0.00000000000E+00  0.74505805969E-08  0.10566000000E+00  0.10566000000E+00 0.  1.
     999900   -1    0    0    0    0 -0.00000000000E+00 -0.00000000000E+00 -0.74505805969E-08  0.93827000000E+00  0.93827000000E+00 0. -1.
     999902    2    1    2    0    0  0.52292374890E-02 -0.11142744193E-01  0.20126732108E-01  0.10203378187E+01  0.10200650338E+01 0.  0.
     999903    2    3    3    0    0 -0.74147798913E-01  0.25532887299E-01 -0.99019783503E-01  0.12801405009E+00  0.20805169504E-01 0.  0.
         14    1    1    2    0    0 -0.52292374890E-02  0.11142744193E-01 -0.20126732108E-01  0.23592181294E-01  0.00000000000E+00 0. -1.
     999901    1    3    3    0    0  0.79377036402E-01 -0.36675631492E-01  0.11914651561E+00  0.89232376862E+00  0.88000000000E+00 0.  1.
        -11    1    4    4    0    0 -0.65668171557E-01  0.16801516470E-01 -0.75077845060E-01  0.10115109318E+00  0.51100000000E-03 0.  1.
         11    1    4    4    0    0 -0.84796273565E-02  0.87313708294E-02 -0.23941938444E-01  0.26862956913E-01  0.51100000000E-03 0. -1.
</event>
<event>
 8    1  0.1101883E+005  0.1043930E+01  0.7957747E-01            NaN
         13   -1    0    0    0    0  0.00000000000E+00  0.00000000000E+00  0.74505805969E-08  0.10566000000E+00  0.10566000000E+00 0.  1.
     999900   -1    0    0    0    0 -0.00000000000E+00 -0.00000000000E+00 -0.74505805969E-08  0.93827000000E+00  0.93827000000E+00 0.  1.
     999902    2    1    2    0    0  0.15192778575E-01 -0.17275831579E-01  0.46698984115E-02  0.10204548466E+01  0.10201847926E+01 0.  0.
     999903    2    3    3    0    0  0.81533608809E-01  0.96207149582E-01  0.27706232645E-01  0.13039295801E+00  0.18197339766E-01 0.  0.
         14    1    1    2    0    0 -0.15192778575E-01  0.17275831579E-01 -0.46698984115E-02  0.23475153434E-01  0.00000000000E+00 0.  1.
     999901    1    3    3    0    0 -0.66340830234E-01 -0.11348298116E+00 -0.23036334234E-01  0.89006188856E+00  0.88000000000E+00 0. -1.
        -11    1    4    4    0    0  0.72968697080E-01  0.91284854824E-01  0.21829386555E-01  0.11888708387E+00  0.51100000000E-03 0.  1.
         11    1    4    4    0    0  0.85649117292E-02  0.49222947577E-02  0.58768460898E-02  0.11505874133E-01  0.51100000000E-03 0. -1.
</event>
<event>
 8    1  0.1101883E+005  0.1043930E+01  0.7957747E-01            NaN
         13   -1    0    0    0    0  0.00000000000E+00  0.00000000000E+00  0.74505805969E-08  0.10566000000E+00  0.10566000000E+00 0.  1.
     999900   -1    0    0    0    0 -0.00000000000E+00 -0.00000000000E+00 -0.74505805969E-08  0.93827000000E+00  0.93827000000E+00 0.  1.
     999902    2    1    2    0    0  0.14165311321E-02 -0.19931162891E-01  0.15169811702E-01  0.10188425330E+01  0.10185336155E+01 0.  0.
     999903    2    3    3    0    0  0.15836440015E-01 -0.19134819184E-01 -0.12456866222E+00  0.12769977840E+00  0.13150956594E-01 0.  0.
         14    1    1    2    0    0 -0.14165311321E-02  0.19931162891E-01 -0.15169811702E-01  0.25087467024E-01  0.00000000000E+00 0. -1.
     999901    1    3    3    0    0 -0.14419908883E-01 -0.79634370703E-03  0.13973847392E+00  0.89114275457E+00  0.88000000000E+00 0. -1.
        -11    1    4    4    0    0  0.72528708988E-02 -0.14039954731E-01 -0.49374180315E-01  0.51843951122E-01  0.51100000000E-03 0. -1.
         11    1    4    4    0    0  0.85835691161E-02 -0.50948644524E-02 -0.75194481904E-01  0.75855827280E-01  0.51100000000E-03 0.  1.
</event>
<event>
 8    1  0.1101883E+005  0.1043930E+01  0.7957747E-01            NaN
         13   -1    0    0    0    0  0.00000000000E+00  0.00000000000E+00  0.74505805969E-08  0.10566000000E+00  0.10566000000E+00 0. -1.
     999900   -1    0    0    0    0 -0.00000000000E+00 -0.00000000000E+00 -0.74505805969E-08  0.93827000000E+00  0.93827000000E+00 0. -1.
     999902    2    1    2    0    0  0.83942106871E-02 -0.55612328060E-02 -0.21855462499E-01  0.10198665147E+01  0.10195825893E+01 0.  0.
     999903    2    3    3    0    0 -0.72660935421E-01  0.73069847840E-01  0.72640762341E-01  0.12763206118E+00  0.19860727271E-01 0.  0.
         14    1    1    2    0    0 -0.83942106871E-02  0.55612328060E-02  0.21855462499E-01  0.24063485293E-01  0.00000000000E+00 0. -1.
     999901    1    3    3    0    0  0.81055146108E-01 -0.78631080646E-01 -0.94496224840E-01  0.89223445353E+00  0.88000000000E+00 0.  1.
        -11    1    4    4    0    0 -0.25777866398E-01  0.13843313228E-01  0.23298356342E-01  0.37406018852E-01  0.51100000000E-03 0. -1.
         11    1    4    4    0    0 -0.46883069023E-01  0.59226534612E-01  0.49342405999E-01  0.90226042327E-01  0.51100000000E-03 0.  1.
</event>
<event>
 8    1  0.1101883E+005  0.1043930E+01  0.7957747E-01            NaN
         13   -1    0    0    0    0  0.00000000000E+00  0.00000000000E+00  0.74505805969E-08  0.10566000000E+00  0.10566000000E+00 0.  1.
     999900   -1    0    0    0    0 -0.00000000000E+00 -0.00000000000E+00 -0.74505805969E-08  0.93827000000E+00  0.93827000000E+00 0. -1.
     999902    2    1    2    0    0 -0.11478737746E-01  0.16393872302E-02  0.20903835311E-01  0.10200256209E+01  0.10197454819E+01 0.  0.
     999903    2    3    3    0    0 -0.65657951652E-01 -0.40675487104E-03  0.11553878218E+00  0.13329265820E+00  0.10324266552E-01 0.  0.
         14    1    1    2    0    0  0.11478737746E-01 -0.16393872302E-02 -0.20903835311E-01  0.23904379126E-01  0.00000000000E+00 0. -1.
     999901    1    3    3    0    0  0.54179213907E-01  0.20461421012E-02 -0.94634946865E-01  0.88673296267E+00  0.88000000000E+00 0. -1.
        -11    1    4    4    0    0 -0.16979202472E-01 -0.13037938049E-02  0.39281176956E-01  0.42816646049E-01  0.51100000000E-03 0. -1.
         11    1    4    4    0    0 -0.48678749181E-01  0.89703893390E-03  0.76257605219E-01  0.90476012155E-01  0.51100000000E-03 0.  1.
</event>
<event>
 8    1  0.1101883E+005  0.1043930E+01  0.7957747E-01            NaN
         13   -1    0    0    0    0  0.00000000000E+00  0.00000000000E+00  0.74505805969E-08  0.10566000000E+00  0.10566000000E+00 0. -1.
     999900   -1    0    0    0    0 -0.00000000000E+00 -0.00000000000E+00 -0.74505805969E-08  0.93827000000E+00  0.93827000000E+00 0. -1.
     999902    2    1    2    0    0  0.19666474402E-01 -0.79971447265E-02 -0.10081348764E-01  0.10204276994E+01  0.10201570132E+01 0.  0.
     999903    2    3    3    0    0 -0.52036142220E-01 -0.10257663437E+00  0.57028097862E-01  0.12992771464E+00  0.19982018633E-01 0.  0.
         14    1    1    2    0    0 -0.19666474402E-01  0.79971447265E-02  0.10081348764E-01  0.23502300570E-01  0.00000000000E+00 0.  1.
     999901    1    3    3    0    0  0.71702616622E-01  0.94579489645E-01 -0.67109446626E-01  0.89049998479E+00  0.88000000000E+00 0.  1.
        -11    1    4    4    0    0 -0.53542641537E-01 -0.95989240726E-01  0.52776870424E-01  0.12192788020E+00  0.51100000000E-03 0.  1.
         11    1    4    4    0    0  0.15064993171E-02 -0.65873936446E-02  0.42512274387E-02  0.79998344331E-02  0.51100000000E-03 0. -1.
</event>
<event>
 8    1  0.1101883E+005  0.1043930E+01  0.7957747E-01            NaN
         13   -1    0    0    0    0  0.00000000000E+00  0.00000000000E+00  0.74505805969E-08  0.10566000000E+00  0.10566000000E+00 0. -1.
     999900   -1    0    0    0    0 -0.00000000000E+00 -0.00000000000E+00 -0.74505805969E-08  0.93827000000E+00  0.93827000000E+00 0. -1.
     999902    2    1    2    0    0  0.11854131644E-01  0.28061550612E-02  0.20364976994E-01  0.10201996980E+01  0.10199236720E+01 0.  0.
     999903    2    3    3    0    0 -0.33368814699E-01 -0.10081186545E+00  0.73662530038E-01  0.13136763392E+00  0.23553702442E-01 0.  0.
         14    1    1    2    0    0 -0.11854131644E-01 -0.28061550612E-02 -0.20364976994E-01  0.23730301962E-01  0.00000000000E+00 0.  1.
     999901    1    3    3    0    0  0.45222946343E-01  0.10361802051E+00 -0.53297553044E-01  0.88883206412E+00  0.88000000000E+00 0. -1.
        -11    1    4    4    0    0 -0.11934346319E-01 -0.61094980562E-01  0.32233889755E-01  0.70102140065E-01  0.51100000000E-03 0. -1.
         11    1    4    4    0    0 -0.21434468380E-01 -0.39716884890E-01  0.41428640283E-01  0.61265493851E-01  0.51100000000E-03 0.  1.
</event>
<event>
 8    1  0.1101883E+005  0.1043930E+01  0.7957747E-01            NaN
         13   -1    0    0    0    0  0.00000000000E+00  0.00000000000E+00  0.74505805969E-08  0.10566000000E+00  0.10566000000E+00 0. -1.
     999900   -1    0    0    0    0 -0.00000000000E+00 -0.00000000000E+00 -0.74505805969E-08  0.93827000000E+00  0.93827000000E+00 0.  1.
     999902    2    1    2    0    0  0.35420162198E-02 -0.15352215290E-01 -0.16748301344E-01  0.10209356096E+01  0.10206766270E+01 0.  0.
     999903    2    3    3    0    0  0.93670832720E-01  0.82539924711E-01 -0.27525474796E-01  0.13086694812E+00  0.27954288990E-01 0.  0.
         14    1    1    2    0    0 -0.35420162198E-02  0.15352215290E-01  0.16748301344E-01  0.22994390427E-01  0.00000000000E+00 0. -1.
     999901    1    3    3    0    0 -0.90128816501E-01 -0.97892140001E-01  0.10777173452E-01  0.89006866146E+00  0.88000000000E+00 0.  1.
        -11    1    4    4    0    0  0.31646484364E-01  0.40414867867E-01 -0.10275288788E-02  0.51343728477E-01  0.51100000000E-03 0.  1.
         11    1    4    4    0    0  0.62024348356E-01  0.42125056844E-01 -0.26497945917E-01  0.79523219640E-01  0.51100000000E-03 0. -1.
</event>
<event>
 8    1  0.1101883E+005  0.1043930E+01  0.7957747E-01            NaN
         13   -1    0    0    0    0  0.00000000000E+00  0.00000000000E+00  0.74505805969E-08  0.10566000000E+00  0.10566000000E+00 0.  1.
     999900   -1    0    0    0    0 -0.00000000000E+00 -0.00000000000E+00 -0.74505805969E-08  0.93827000000E+00  0.93827000000E+00 0.  1.
     999902    2    1    2    0    0 -0.12843905244E-01 -0.11686088027E-01  0.13808075320E-01  0.10217445656E+01  0.10215036778E+01 0.  0.
     999903    2    3    3    0    0 -0.96723643714E-01 -0.56897220821E-01  0.71745432444E-01  0.13470646360E+00  0.20141183404E-01 0.  0.
         14    1    1    2    0    0  0.12843905244E-01  0.11686088027E-01 -0.13808075320E-01  0.22185434396E-01  0.00000000000E+00 0.  1.
     999901    1    3    3    0    0  0.83879738470E-01  0.45211132794E-01 -0.57937357123E-01  0.88703810200E+00  0.88000000000E+00 0.  1.
        -11    1    4    4    0    0 -0.43933028132E-01 -0.21981767264E-01  0.42592902516E-01  0.65020962147E-01  0.51100000000E-03 0. -1.
         11    1    4    4    0    0 -0.52790615582E-01 -0.34915453557E-01  0.29152529928E-01  0.69685501454E-01  0.51100000000E-03 0.  1.
</event>
<event>
 8    1  0.1101883E+005  0.1043930E+01  0.7957747E-01            NaN
         13   -1    0    0    0    0  0.00000000000E+00  0.00000000000E+00  0.74505805969E-08  0.10566000000E+00  0.10566000000E+00 0.  1.
     999900   -1    0    0    0    0 -0.00000000000E+00 -0.00000000000E+00 -0.74505805969E-08  0.93827000000E+00  0.93827000000E+00 0. -1.
     999902    2    1    2    0    0 -0.16967090213E-02 -0.66987722035E-02 -0.22396645767E-01  0.10204915250E+01  0.10202223240E+01 0.  0.
     999903    2    3    3    0    0  0.13274644623E-01  0.22957404074E-01 -0.12917372519E+00  0.13341487951E+00  0.20258830260E-01 0.  0.
         14    1    1    2    0    0  0.16967090213E-02  0.66987722035E-02  0.22396645767E-01  0.23438475039E-01  0.00000000000E+00 0.  1.
     999901    1    3    3    0    0 -0.14971353644E-01 -0.29656176278E-01  0.10677707942E+00  0.88707664545E+00  0.88000000000E+00 0.  1.
        -11    1    4    4    0    0 -0.34998520727E-02  0.10656782474E-01 -0.28890759950E-01  0.30996017627E-01  0.51100000000E-03 0. -1.
         11    1    4    4    0    0  0.16774496696E-01  0.12300621600E-01 -0.10028296524E+00  0.10241886188E+00  0.51100000000E-03 0.  1.
</event>
<event>
 8    1  0.1101883E+005  0.1043930E+01  0.7957747E-01            NaN
         13   -1    0    0    0    0  0.00000000000E+00  0.00000000000E+00  0.74505805969E-08  0.10566000000E+00  0.10566000000E+00 0.  1.
     999900   -1    0    0    0    0 -0.00000000000E+00 -0.00000000000E+00 -0.74505805969E-08  0.93827000000E+00  0.93827000000E+00 0.  1.
     999902    2    1    2    0    0  0.18859286657E-01  0.13340099198E-01  0.56831836200E-02  0.10201407269E+01  0.10198633110E+01 0.  0.
     999903    2    3    3    0    0 -0.51396770539E-01  0.54480124585E-01  0.10553083844E+00  0.13076006066E+00  0.18754295649E-01 0.  0.
         14    1    1    2    0    0 -0.18859286657E-01 -0.13340099198E-01 -0.56831836200E-02  0.23789273126E-01  0.00000000000E+00 0.  1.
     999901    1    3    3    0    0  0.70256057197E-01 -0.41140025387E-01 -0.99847654820E-01  0.88938066621E+00  0.88000000000E+00 0.  1.
        -11    1    4    4    0    0 -0.21428651387E-01  0.23961034351E-01  0.61356969478E-01  0.69269452806E-01  0.51100000000E-03 0. -1.
         11    1    4    4    0    0 -0.29968119153E-01  0.30519090234E-01  0.44173868962E-01  0.61490607854E-01  0.51100000000E-03 0.  1.
</event>
<event>
 8    1  0.1101883E+005  0.1043930E+01  0.7957747E-01            NaN
         13   -1    0    0    0    0  0.00000000000E+00  0.00000000000E+00  0.74505805969E-08  0.10566000000E+00  0.10566000000E+00 0.  1.
     999900   -1    0    0    0    0 -0.00000000000E+00 -0.00000000000E+00 -0.74505805969E-08  0.93827000000E+00  0.93827000000E+00 0. -1.
     999902    2    1    2    0    0 -0.11162768592E-01  0.20412195978E-01  0.58012455019E-02  0.10199525190E+01  0.10196706436E+01 0.  0.
     999903    2    3    3    0    0  0.25384027397E-01 -0.10916394319E+00  0.59418517114E-01  0.12810025769E+00  0.17832568617E-01 0.  0.
         14    1    1    2    0    0  0.11162768592E-01 -0.20412195978E-01 -0.58012455019E-02  0.23977481032E-01  0.00000000000E+00 0. -1.
     999901    1    3    3    0    0 -0.36546795989E-01  0.12957613917E+00 -0.53617271613E-01  0.89185226128E+00  0.88000000000E+00 0. -1.
        -11    1    4    4    0    0  0.23022244037E-01 -0.70711906780E-01  0.45238013142E-01  0.87045599745E-01  0.51100000000E-03 0.  1.
         11    1    4    4    0    0  0.23617833597E-02 -0.38452036410E-01  0.14180503972E-01  0.41054657941E-01  0.51100000000E-03 0. -1.
</event>
<event>
 8    1  0.1101883E+005  0.1043930E+01  0.7957747E-01            NaN
         13   -1    0    0    0    0  0.00000000000E+00  0.00000000000E+00  0.74505805969E-08  0.10566000000E+00  0.10566000000E+00 0. -1.
     999900   -1    0    0    0    0 -0.00000000000E+00 -0.00000000000E+00 -0.74505805969E-08  0.93827000000E+00  0.93827000000E+00 0.  1.
     999902    2    1    2    0    0  0.25950604075E-01  0.47132830274E-02 -0.68851721962E-04  0.10175547535E+01  0.10172128699E+01 0.  0.
     999903    2    3    3    0    0  0.94372561258E-01 -0.87143311624E-01 -0.39599440099E-02  0.13012343849E+00  0.20403210778E-01 0.  0.
         14    1    1    2    0    0 -0.25950604075E-01 -0.47132830274E-02  0.68851721962E-04  0.26375246526E-01  0.00000000000E+00 0. -1.
     999901    1    3    3    0    0 -0.68421957183E-01  0.91856594651E-01  0.38910922879E-02  0.88743131498E+00  0.88000000000E+00 0.  1.
        -11    1    4    4    0    0  0.79234670619E-01 -0.61706980024E-01 -0.19074285438E-02  0.10044791594E+00  0.51100000000E-03 0. -1.
         11    1    4    4    0    0  0.15137890639E-01 -0.25436331599E-01 -0.20525154660E-02  0.29675522556E-01  0.51100000000E-03 0.  1.
</event>
<event>
 8    1  0.1101883E+005  0.1043930E+01  0.7957747E-01            NaN
         13   -1    0    0    0    0  0.00000000000E+00  0.00000000000E+00  0.74505805969E-08  0.10566000000E+00  0.10566000000E+00 0. -1.
     999900   -1    0    0    0    0 -0.00000000000E+00 -0.00000000000E+00 -0.74505805969E-08  0.93827000000E+00  0.93827000000E+00 0. -1.
     999902    2    1    2    0    0  0.16840407930E-01 -0.15890600911E-01 -0.82619930397E-02  0.10193460405E+01  0.10190495470E+01 0.  0.
     999903    2    3    3    0    0 -0.70692412315E-01  0.92703552793E-01 -0.48540286057E-01  0.12745085285E+00  0.17210306849E-01 0.  0.
         14    1    1    2    0    0 -0.16840407930E-01  0.15890600911E-01  0.82619930397E-02  0.24583959517E-01  0.00000000000E+00 0.  1.
     999901    1    3    3    0    0  0.87532820245E-01 -0.10859415370E+00  0.40278293017E-01  0.89189518764E+00  0.88000000000E+00 0.  1.
        -11    1    4    4    0    0 -0.96852213568E-02  0.23566905760E-01 -0.78576060796E-02  0.26668439289E-01  0.51100000000E-03 0.  1.
         11    1    4    4    0    0 -0.61007190958E-01  0.69136647033E-01 -0.40682679977E-01  0.10078241356E+00  0.51100000000E-03 0. -1.
</event>
<event>
 8    1  0.1101883E+005  0.1043930E+01  0.7957747E-01            NaN
         13   -1    0    0    0    0  0.00000000000E+00  0.00000000000E+00  0.74505805969E-08  0.10566000000E+00  0.10566000000E+00 0.  1.
     999900   -1    0    0    0    0 -0.00000000000E+00 -0.00000000000E+00 -0.74505805969E-08  0.93827000000E+00  0.93827000000E+00 0. -1.
     999902    2    1    2    0    0 -0.38379362801E-02  0.22979374843E-01 -0.16927426762E-02  0.10205709161E+01  0.10203035568E+01 0.  0.
     999903    2    3    3    0    0 -0.11261994889E+00  0.50396300774E-01 -0.43750372016E-01  0.13245264791E+00  0.20163552961E-01 0.  0.
         14    1    1    2    0    0  0.38379362801E-02 -0.22979374843E-01  0.16927426762E-02  0.23359083904E-01  0.00000000000E+00 0. -1.
     999901    1    3    3    0    0  0.10878201261E+00 -0.27416925931E-01  0.42057629340E-01  0.88811826818E+00  0.88000000000E+00 0.  1.
        -11    1    4    4    0    0 -0.45788180833E-01  0.20123308993E-01 -0.73690321751E-02  0.50557579303E-01  0.51100000000E-03 0.  1.
         11    1    4    4    0    0 -0.66831768057E-01  0.30272991781E-01 -0.36381339841E-01  0.81895068610E-01  0.51100000000E-03 0. -1.
</event>
<event>
 8    1  0.1101883E+005  0.1043930E+01  0.7957747E-01            NaN
         13   -1    0    0    0    0  0.00000000000E+00  0.00000000000E+00  0.74505805969E-08  0.10566000000E+00  0.10566000000E+00 0. -1.
     999900   -1    0    0    0    0 -0.00000000000E+00 -0.00000000000E+00 -0.74505805969E-08  0.93827000000E+00  0.93827000000E+00 0. -1.
     999902    2    1    2    0    0  0.41177290160E-02  0.22175951302E-01 -0.53848710629E-02  0.10207410944E+01  0.10204776609E+01 0.  0.
     999903    2    3    3    0    0 -0.16425352503E-01  0.12534827091E+00  0.38000743050E-01  0.13341429028E+00  0.19321882745E-01 0.  0.
         14    1    1    2    0    0 -0.41177290160E-02 -0.22175951302E-01  0.53848710629E-02  0.23188905639E-01  0.00000000000E+00 0.  1.
     999901    1    3    3    0    0  0.20543081519E-01 -0.10317231961E+00 -0.43385614113E-01  0.88732680408E+00  0.88000000000E+00 0. -1.
        -11    1    4    4    0    0 -0.17752561863E-01  0.12157964906E+00  0.33459990627E-01  0.12734440157E+00  0.51100000000E-03 0. -1.
         11    1    4    4    0    0  0.13272093596E-02  0.37686218541E-02  0.45407524222E-02  0.60698887076E-02  0.51100000000E-03 0.  1.
</event>
<event>
 8    1  0.1101883E+005  0.1043930E+01  0.7957747E-01            NaN
         13   -1    0    0    0    0  0.00000000000E+00  0.00000000000E+00  0.74505805969E-08  0.10566000000E+00  0.10566000000E+00 0. -1.
     999900   -1    0    0    0    0 -0.00000000000E+00 -0.00000000000E+00 -0.74505805969E-08  0.93827000000E+00  0.93827000000E+00 0.  1.
     999902    2    1    2    0    0 -0.51383458275E-02 -0.11882761177E-01  0.19585543441E-01  0.10204524336E+01  0.10201823235E+01 0.  0.
     999903    2    3    3    0    0 -0.61235490447E-01  0.10541320308E+00 -0.37371661152E-01  0.12907745303E+00  0.20065371917E-01 0.  0.
         14    1    1    2    0    0  0.51383458275E-02  0.11882761177E-01 -0.19585543441E-01  0.23477566375E-01  0.00000000000E+00 0.  1.
     999901    1    3    3    0    0  0.56097144619E-01 -0.11729596426E+00  0.56957204593E-01  0.89137498059E+00  0.88000000000E+00 0.  1.
        -11    1    4    4    0    0 -0.61156480632E-01  0.94418498776E-01 -0.35040743164E-01  0.11782649463E+00  0.51100000000E-03 0. -1.
         11    1    4    4    0    0 -0.79009814971E-04  0.10994704307E-01 -0.23309179883E-02  0.11250958404E-01  0.51100000000E-03 0.  1.
</event>
<event>
 8    1  0.1101883E+005  0.1043930E+01  0.7957747E-01            NaN
         13   -1    0    0    0    0  0.00000000000E+00  0.00000000000E+00  0.74505805969E-08  0.10566000000E+00  0.10566000000E+00 0. -1.
     999900   -1    0    0    0    0 -0.00000000000E+00 -0.00000000000E+00 -0.74505805969E-08  0.93827000000E+00  0.93827000000E+00 0.  1.
     999902    2    1    2    0    0 -0.97270656880E-02  0.18299491102E-01  0.12277716423E-01  0.10198420465E+01  0.10195575366E+01 0.  0.
     999903    2    3    3    0    0  0.26196655197E-02 -0.76238662436E-01 -0.10021166428E+00  0.12757316048E+00  0.20330698977E-01 0.  0.
         14    1    1    2    0    0  0.97270656880E-02 -0.18299491102E-01 -0.12277716423E-01  0.24087953464E-01  0.00000000000E+00 0. -1.
     999901    1    3    3    0    0 -0.12346731208E-01  0.94538153539E-01  0.11248938070E+00  0.89226888605E+00  0.88000000000E+00 0. -1.
        -11    1    4    4    0    0  0.51655405911E-02 -0.74931921103E-01 -0.91451047817E-01  0.11834285309E+00  0.51100000000E-03 0.  1.
         11    1    4    4    0    0 -0.25458750714E-02 -0.13067413332E-02 -0.87606164614E-02  0.92303073933E-02  0.51100000000E-03 0. -1.
</event>
<event>
 8    1  0.1101883E+005  0.1043930E+01  0.7957747E-01            NaN
         13   -1    0    0    0    0  0.00000000000E+00  0.00000000000E+00  0.74505805969E-08  0.10566000000E+00  0.10566000000E+00 0.  1.
     999900   -1    0    0    0    0 -0.00000000000E+00 -0.00000000000E+00 -0.74505805969E-08  0.93827000000E+00  0.93827000000E+00 0. -1.
     999902    2    1    2    0    0  0.31169211938E-02 -0.22231308757E-02 -0.23864914177E-01  0.10197599434E+01  0.10194734673E+01 0.  0.
     999903    2    3    3    0    0  0.91416881969E-01  0.58614038301E-01 -0.72389956395E-01  0.13192396531E+00  0.19260712366E-01 0.  0.
         14    1    1    2    0    0 -0.31169211938E-02  0.22231308757E-02  0.23864914177E-01  0.24170056626E-01  0.00000000000E+00 0.  1.
     999901    1    3    3    0    0 -0.88299960775E-01 -0.60837169177E-01  0.48525042218E-01  0.88783597807E+00  0.88000000000E+00 0. -1.
        -11    1    4    4    0    0  0.35544787673E-01  0.23959888017E-01 -0.17609725622E-01  0.46345136983E-01  0.51100000000E-03 0.  1.
         11    1    4    4    0    0  0.55872094296E-01  0.34654150284E-01 -0.54780230773E-01  0.85578828325E-01  0.51100000000E-03 0. -1.
</event>
<event>
 8    1  0.1101883E+005  0.1043930E+01  0.7957747E-01            NaN
         13   -1    0    0    0    0  0.00000000000E+00  0.00000000000E+00  0.74505805969E-08  0.10566000000E+00  0.10566000000E+00 0. -1.
     999900   -1    0    0    0    0 -0.00000000000E+00 -0.00000000000E+00 -0.74505805969E-08  0.93827000000E+00  0.93827000000E+00 0.  1.
     999902    2    1    2    0    0  0.80914147583E-02  0.33377870623E-02  0.23256342625E-01  0.10190810707E+01  0.10187780717E+01 0.  0.
     999903    2    3    3    0    0  0.22119210597E-01  0.84407049150E-01 -0.91290321910E-01  0.12785161502E+00  0.19957534038E-01 0.  0.
         14    1    1    2    0    0 -0.80914147583E-02 -0.33377870623E-02 -0.23256342625E-01  0.24848929304E-01  0.00000000000E+00 0.  1.
     999901    1    3    3    0    0 -0.14027795838E-01 -0.81069262087E-01  0.11454666453E+00  0.89122945568E+00  0.88000000000E+00 0. -1.
        -11    1    4    4    0    0  0.27541231495E-02  0.49492513840E-01 -0.49607621200E-01  0.70130388012E-01  0.51100000000E-03 0. -1.
         11    1    4    4    0    0  0.19365087447E-01  0.34914535310E-01 -0.41682700709E-01  0.57721227006E-01  0.51100000000E-03 0.  1.
</event>
<event>
 8    1  0.1101883E+005  0.1043930E+01  0.7957747E-01            NaN
         13   -1    0    0    0    0  0.00000000000E+00  0.00000000000E+00  0.74505805969E-08  0.10566000000E+00  0.10566000000E+00 0.  1.
     999900   -1    0    0    0    0 -0.00000000000E+00 -0.00000000000E+00 -0.74505805969E-08  0.93827000000E+00  0.93827000000E+00 0.  1.
     999902    2    1    2    0    0 -0.16692958944E-02 -0.15989664800E-01  0.11993882997E-01  0.10238723541E+01  0.10236758708E+01 0.  0.
     999903    2    3    3    0    0 -0.11193889865E+00  0.65495137573E-01  0.23156382451E-01  0.13318511400E+00  0.19548055293E-01 0.  0.
         14    1    1    2    0    0  0.16692958944E-02  0.15989664800E-01 -0.11993882997E-01  0.20057645887E-01  0.00000000000E+00 0. -1.
     999901    1    3    3    0    0  0.11026960276E+00 -0.81484802373E-01 -0.11162499454E-01  0.89068724012E+00  0.88000000000E+00 0.  1.
        -11    1    4    4    0    0 -0.62525344904E-01  0.39250564242E-01  0.22675852261E-01  0.77230052087E-01  0.51100000000E-03 0.  1.
         11    1    4    4    0    0 -0.49413553746E-01  0.26244573331E-01  0.48053018996E-03  0.55955061911E-01  0.51100000000E-03 0. -1.
</event>
<event>
 8    1  0.1101883E+005  0.1043930E+01  0.7957747E-01            NaN
         13   -1    0    0    0    0  0.00000000000E+00  0.00000000000E+00  0.74505805969E-08  0.10566000000E+00  0.10566000000E+00 0.  1.
     999900   -1    0    0    0    0 -0.00000000000E+00 -0.00000000000E+00 -0.74505805969E-08  0.93827000000E+00  0.93827000000E+00 0. -1.
     999902    2    1    2    0    0  0.14966234634E-01 -0.17995260455E-01  0.74366463188E-03  0.10205126856E+01  0.10202439761E+01 0.  0.
     999903    2    3    3    0    0 -0.67719415611E-01 -0.11075342475E+00  0.11176950190E-01  0.13172145742E+00  0.19322985880E-01 0.  0.
         14    1    1    2    0    0 -0.14966234634E-01  0.17995260455E-01 -0.74366463188E-03  0.23417314428E-01  0.00000000000E+00 0.  1.
     999901    1    3    3    0    0  0.82685650245E-01  0.92758164296E-01 -0.10433285558E-01  0.88879122816E+00  0.88000000000E+00 0.  1.
        -11    1    4    4    0    0 -0.38469080960E-01 -0.78433322786E-01  0.11584673551E-01  0.88125604086E-01  0.51100000000E-03 0. -1.
         11    1    4    4    0    0 -0.29250334651E-01 -0.32320101965E-01 -0.40772336118E-03  0.43595853330E-01  0.51100000000E-03 0.  1.
</event>
<event>
 8    1  0.1101883E+005  0.1043930E+01  0.7957747E-01            NaN
         13   -1    0    0    0    0  0.00000000000E+00  0.00000000000E+00  0.74505805969E-08  0.10566000000E+00  0.10566000000E+00 0. -1.
     999900   -1    0    0    0    0 -0.00000000000E+00 -0.00000000000E+00 -0.74505805969E-08  0.93827000000E+00  0.93827000000E+00 0.  1.
     999902    2    1    2    0    0  0.15776429186E-01  0.41888472847E-02 -0.18346607587E-01  0.10193731238E+01  0.10190772911E+01 0.  0.
     999903    2    3    3    0    0  0.13967986822E-01 -0.84821179385E-01  0.92635076099E-01  0.12794562285E+00  0.19977185849E-01 0.  0.
         14    1    1    2    0    0 -0.15776429186E-01 -0.41888472847E-02  0.18346607587E-01  0.24556876214E-01  0.00000000000E+00 0. -1.
     999901    1    3    3    0    0  0.18084423641E-02  0.89010026669E-01 -0.11098168369E+00  0.89142750094E+00  0.88000000000E+00 0.  1.
        -11    1    4    4    0    0  0.14762920215E-02 -0.32942356241E-01  0.22968517930E-01  0.40189453962E-01  0.51100000000E-03 0. -1.
         11    1    4    4    0    0  0.12491694801E-01 -0.51878823143E-01  0.69666558169E-01  0.87756168888E-01  0.51100000000E-03 0.  1.
</event>
<event>
 8    1  0.1101883E+005  0.1043930E+01  0.7957747E-01            NaN
         13   -1    0    0    0    0  0.00000000000E+00  0.00000000000E+00  0.74505805969E-08  0.10566000000E+00  0.10566000000E+00 0. -1.
     999900   -1    0    0    0    0 -0.00000000000E+00 -0.00000000000E+00 -0.74505805969E-08  0.93827000000E+00  0.93827000000E+00 0.  1.
     999902    2    1    2    0    0  0.21427367334E-01 -0.77214546588E-02  0.58243073947E-02  0.10204209488E+01  0.10201501052E+01 0.  0.
     999903    2    3    3    0    0  0.52411162374E-01 -0.60665497314E-01 -0.10244518362E+00  0.13166600511E+00  0.20339339893E-01 0.  0.
         14    1    1    2    0    0 -0.21427367334E-01  0.77214546588E-02 -0.58243073947E-02  0.23509051226E-01  0.00000000000E+00 0.  1.
     999901    1    3    3    0    0 -0.30983795041E-01  0.52944042655E-01  0.10826949102E+00  0.88875494367E+00  0.88000000000E+00 0. -1.
        -11    1    4    4    0    0  0.63787271669E-02 -0.83653132067E-02 -0.44677267855E-02  0.11440643730E-01  0.51100000000E-03 0. -1.
         11    1    4    4    0    0  0.46032435208E-01 -0.52300184107E-01 -0.97977456839E-01  0.12022536138E+00  0.51100000000E-03 0.  1.
</event>
<event>
 8    1  0.1101883E+005  0.1043930E+01  0.7957747E-01            NaN
         13   -1    0    0    0    0  0.00000000000E+00  0.00000000000E+00  0.74505805969E-08  0.10566000000E+00  0.10566000000E+00 0.  1.
     999900   -1    0    0    0    0 -0.00000000000E+00 -0.00000000000E+00 -0.74505805969E-08  0.93827000000E+00  0.93827000000E+00 0.  1.
     999902    2    1    2    0    0 -0.13802316950E-01  0.24973913325E-01 -0.13278511819E-01  0.10124574854E+01  0.10119682013E+01 0.  0.
     999903    2    3    3    0    0  0.11317614853E+00  0.37334989201E-01 -0.24141986340E-01  0.12319130365E+00  0.19761573226E-01 0.  0.
         14    1    1    2    0    0  0.13802316950E-01 -0.24973913325E-01  0.13278511819E-01  0.31472514613E-01  0.00000000000E+00 0. -1.
     999901    1    3    3    0    0 -0.12697846548E+00 -0.12361075876E-01  0.10863474521E-01  0.88926618173E+00  0.88000000000E+00 0.  1.
        -11    1    4    4    0    0  0.26409190582E-01  0.15795772884E-02 -0.74435919054E-03  0.26471788818E-01  0.51100000000E-03 0. -1.
         11    1    4    4    0    0  0.86766957950E-01  0.35755411912E-01 -0.23397627150E-01  0.96719514837E-01  0.51100000000E-03 0.  1.
</event>
<event>
 8    1  0.1101883E+005  0.1043930E+01  0.7957747E-01            NaN
         13   -1    0    0    0    0  0.00000000000E+00  0.00000000000E+00  0.74505805969E-08  0.10566000000E+00  0.10566000000E+00 0. -1.
     999900   -1    0    0    0    0 -0.00000000000E+00 -0.00000000000E+00 -0.74505805969E-08  0.93827000000E+00  0.93827000000E+00 0. -1.
     999902    2    1    2    0    0  0.46701521372E-02  0.17985098353E-01  0.48039828580E-02  0.10247374927E+01  0.10245577469E+01 0.  0.
     999903    2    3    3    0    0  0.21830401739E-01 -0.52515271392E-02  0.13180644838E+00  0.13515104883E+00  0.19716013536E-01 0.  0.
         14    1    1    2    0    0 -0.46701521372E-02 -0.17985098353E-01 -0.48039828580E-02  0.19192507263E-01  0.00000000000E+00 0.  1.
     999901    1    3    3    0    0 -0.17160249602E-01  0.23236625492E-01 -0.12700246552E+00  0.88958644390E+00  0.88000000000E+00 0. -1.
        -11    1    4    4    0    0  0.11381142102E-01  0.72280074750E-02  0.65380851775E-01  0.66758455550E-01  0.51100000000E-03 0.  1.
         11    1    4    4    0    0  0.10449259638E-01 -0.12479534614E-01  0.66425596601E-01  0.68392593283E-01  0.51100000000E-03 0. -1.
</event>
<event>
 8    1  0.1101883E+005  0.1043930E+01  0.7957747E-01            NaN
         13   -1    0    0    0    0  0.00000000000E+00  0.00000000000E+00  0.74505805969E-08  0.10566000000E+00  0.10566000000E+00 0.  1.
     999900   -1    0    0    0    0 -0.00000000000E+00 -0.00000000000E+00 -0.74505805969E-08  0.93827000000E+00  0.93827000000E+00 0.  1.
     999902    2    1    2    0    0  0.23412425028E-02 -0.11576524318E-01  0.20550078187E-01  0.10202276152E+01  0.10199522458E+01 0.  0.
     999903    2    3    3    0    0 -0.48943762404E-02 -0.88490205387E-01  0.97778596771E-01  0.13347380912E+00  0.20003308881E-01 0.  0.
         14    1    1    2    0    0 -0.23412425028E-02  0.11576524318E-01 -0.20550078187E-01  0.23702384801E-01  0.00000000000E+00 0. -1.
     999901    1    3    3    0    0  0.72356187432E-02  0.76913681069E-01 -0.77228518584E-01  0.88675380608E+00  0.88000000000E+00 0.  1.
        -11    1    4    4    0    0 -0.42666854575E-02 -0.55544446780E-01  0.46742436078E-01  0.72722119224E-01  0.51100000000E-03 0. -1.
         11    1    4    4    0    0 -0.62769078287E-03 -0.32945758606E-01  0.51036160693E-01  0.60751689896E-01  0.51100000000E-03 0.  1.
</event>
<event>
 8    1  0.1101883E+005  0.1043930E+01  0.7957747E-01            NaN
         13   -1    0    0    0    0  0.00000000000E+00  0.00000000000E+00  0.74505805969E-08  0.10566000000E+00  0.10566000000E+00 0.  1.
     999900   -1    0    0    0    0 -0.00000000000E+00 -0.00000000000E+00 -0.74505805969E-08  0.93827000000E+00  0.93827000000E+00 0.  1.
     999902    2    1    2    0    0 -0.13660774713E-01  0.76870399626E-02 -0.19951132738E-01  0.10185576716E+01  0.10182416095E+01 0.  0.
     999903    2    3    3    0    0  0.51489431262E-01 -0.10367327920E+00  0.47688451175E-01  0.12658189655E+00  0.18694325550E-01 0.  0.
         14    1    1    2    0    0  0.13660774713E-01 -0.76870399626E-02  0.19951132738E-01  0.25372328365E-01  0.00000000000E+00 0.  1.
     999901    1    3    3    0    0 -0.65150205975E-01  0.11136031916E+00 -0.67639583913E-01  0.89197577508E+00  0.88000000000E+00 0.  1.
        -11    1    4    4    0    0  0.42852983606E-01 -0.81418042812E-01  0.45385822183E-01  0.10259342023E+00  0.51100000000E-03 0. -1.
         11    1    4    4    0    0  0.86364476554E-02 -0.22255236387E-01  0.23026289918E-02  0.23988476317E-01  0.51100000000E-03 0.  1.
</event>
<event>
 8    1  0.1101883E+005  0.1043930E+01  0.7957747E-01            NaN
         13   -1    0    0    0    0  0.00000000000E+00  0.00000000000E+00  0.74505805969E-08  0.10566000000E+00  0.10566000000E+00 0.  1.
     999900   -1    0    0    0    0 -0.00000000000E+00 -0.00000000000E+00 -0.74505805969E-08  0.93827000000E+00  0.93827000000E+00 0.  1.
     999902    2    1    2    0    0  0.11200236096E-01 -0.58165876963E-02  0.20469708753E-01  0.10198824023E+01  0.10195988562E+01 0.  0.
     999903    2    3    3    0    0 -0.82566045365E-01 -0.63596368252E-01 -0.71897150696E-01  0.12821976689E+00  0.20235079453E-01 0.  0.
         14    1    1    2    0    0 -0.11200236096E-01  0.58165876963E-02 -0.20469708753E-01  0.24047597749E-01  0.00000000000E+00 0. -1.
     999901    1    3    3    0    0  0.93766281461E-01  0.57779780555E-01  0.92366859449E-01  0.89166263536E+00  0.88000000000E+00 0. -1.
        -11    1    4    4    0    0 -0.45024986389E-01 -0.36419800299E-01 -0.27778118213E-01  0.64230337269E-01  0.51100000000E-03 0. -1.
         11    1    4    4    0    0 -0.37541058976E-01 -0.27176567952E-01 -0.44119032483E-01  0.63989429619E-01  0.51100000000E-03 0.  1.
</event>
<event>
 8    1  0.1101883E+005  0.1043930E+01  0.7957747E-01            NaN
         13   -1    0    0    0    0  0.00000000000E+00  0.00000000000E+00  0.74505805969E-08  0.10566000000E+00  0.10566000000E+00 0.  1.
     999900   -1    0    0    0    0 -0.00000000000E+00 -0.00000000000E+00 -0.74505805969E-08  0.93827000000E+00  0.93827000000E+00 0. -1.
     999902    2    1    2    0    0  0.22009826837E-01 -0.65536952709E-02 -0.61963045922E-02  0.10201439203E+01  0.10198665797E+01 0.  0.
     999903    2    3    3    0    0  0.11253622144E+00 -0.18028042295E-01  0.64673351303E-01  0.13259155736E+00  0.20210573175E-01 0.  0.
         14    1    1    2    0    0 -0.22009826837E-01  0.65536952709E-02  0.61963045922E-02  0.23786079746E-01  0.00000000000E+00 0.  1.
     999901    1    3    3    0    0 -0.90526394604E-01  0.11474347024E-01 -0.70869655895E-01  0.88755236290E+00  0.88000000000E+00 0. -1.
        -11    1    4    4    0    0  0.74896338987E-01 -0.21560485266E-01  0.43793415631E-01  0.89400450179E-01  0.51100000000E-03 0.  1.
         11    1    4    4    0    0  0.37639882454E-01  0.35324429713E-02  0.20879935671E-01  0.43191107177E-01  0.51100000000E-03 0. -1.
</event>
<event>
 8    1  0.1101883E+005  0.1043930E+01  0.7957747E-01            NaN
         13   -1    0    0    0    0  0.00000000000E+00  0.00000000000E+00  0.74505805969E-08  0.10566000000E+00  0.10566000000E+00 0.  1.
     999900   -1    0    0    0    0 -0.00000000000E+00 -0.00000000000E+00 -0.74505805969E-08  0.93827000000E+00  0.93827000000E+00 0.  1.
     999902    2    1    2    0    0 -0.27156895454E-02 -0.19190173168E-01 -0.13582663595E-01  0.10202630089E+01  0.10199884710E+01 0.  0.
     999903    2    3    3    0    0 -0.30932233193E-02  0.11018647753E+00 -0.64859704362E-01  0.12932653803E+00  0.19181874972E-01 0.  0.
         14    1    1    2    0    0  0.27156895454E-02  0.19190173168E-01  0.13582663595E-01  0.23666991069E-01  0.00000000000E+00 0.  1.
     999901    1    3    3    0    0  0.37753377386E-03 -0.12937665070E+00  0.51277040767E-01  0.89093647090E+00  0.88000000000E+00 0.  1.
        -11    1    4    4    0    0  0.33236862817E-03  0.64412599210E-01 -0.27086958620E-01  0.69878879887E-01  0.51100000000E-03 0. -1.
         11    1    4    4    0    0 -0.34255919474E-02  0.45773878319E-01 -0.37772745741E-01  0.59447658140E-01  0.51100000000E-03 0.  1.
</event>
<event>
 8    1  0.1101883E+005  0.1043930E+01  0.7957747E-01            NaN
         13   -1    0    0    0    0  0.00000000000E+00  0.00000000000E+00  0.74505805969E-08  0.10566000000E+00  0.10566000000E+00 0. -1.
     999900   -1    0    0    0    0 -0.00000000000E+00 -0.00000000000E+00 -0.74505805969E-08  0.93827000000E+00  0.93827000000E+00 0. -1.
     999902    2    1    2    0    0  0.22635503861E-01 -0.41755441257E-02 -0.25616838033E-02  0.10207704787E+01  0.10205077201E+01 0.  0.
     999903    2    3    3    0    0 -0.96768812275E-01 -0.55084996263E-01 -0.62078968054E-01  0.12925969908E+00  0.21347404717E-01 0.  0.
         14    1    1    2    0    0 -0.22635503861E-01  0.41755441257E-02  0.25616838033E-02  0.23159521319E-01  0.00000000000E+00 0.  1.
     999901    1    3    3    0    0  0.11940431614E+00  0.50909452137E-01  0.59517284251E-01  0.89151077961E+00  0.88000000000E+00 0.  1.
        -11    1    4    4    0    0 -0.51181569421E-01 -0.31860244340E-01 -0.45306009467E-01  0.75415673654E-01  0.51100000000E-03 0. -1.
         11    1    4    4    0    0 -0.45587242854E-01 -0.23224751923E-01 -0.16772958587E-01  0.53844025422E-01  0.51100000000E-03 0.  1.
</event>
<event>
 7    1  0.1101883E+005  0.1043930E+01  0.7957747E-01            NaN
         13   -1    0    0    0    0  0.00000000000E+00  0.00000000000E+00  0.74505805969E-08  0.10566000000E+00  0.10566000000E+00 0.  1.
     999900   -1    0    0    0    0 -0.00000000000E+00 -0.00000000000E+00 -0.74505805969E-08  0.93827000000E+00  0.93827000000E+00 0. -1.
     999902    2    1    2    0    0  0.17481894283E-01 -0.14768548002E-01  0.52759974379E-02  0.10204446261E+01  0.10201743342E+01 0.  0.
         14    1    1    2    0    0 -0.17481894283E-01  0.14768548002E-01 -0.52759974379E-02  0.23485373890E-01  0.00000000000E+00 0. -1.
     999901    1    3    3    0    0  0.93795963560E-01  0.52423317578E-01  0.74269053978E-01  0.88964137684E+00  0.88000000000E+00 0.  1.
        -11    1    3    3    0    0 -0.13955763766E-01 -0.17564152373E-01 -0.40247037421E-01  0.46079799621E-01  0.51100000000E-03 0. -1.
         11    1    3    3    0    0 -0.62358305512E-01 -0.49627713206E-01 -0.28746019119E-01  0.84723449650E-01  0.51100000000E-03 0.  1.
</event>
<event>
 8    1  0.1101883E+005  0.1043930E+01  0.7957747E-01            NaN
         13   -1    0    0    0    0  0.00000000000E+00  0.00000000000E+00  0.74505805969E-08  0.10566000000E+00  0.10566000000E+00 0. -1.
     999900   -1    0    0    0    0 -0.00000000000E+00 -0.00000000000E+00 -0.74505805969E-08  0.93827000000E+00  0.93827000000E+00 0.  1.
     999902    2    1    2    0    0 -0.14090370155E-01 -0.15082635163E-01 -0.11303805032E-01  0.10203970354E+01  0.10201256341E+01 0.  0.
     999903    2    3    3    0    0  0.67028725821E-02  0.26259293700E-01 -0.12730792410E+00  0.13157845455E+00  0.19264037911E-01 0.  0.
         14    1    1    2    0    0  0.14090370155E-01  0.15082635163E-01  0.11303805032E-01  0.23532964598E-01  0.00000000000E+00 0.  1.
     999901    1    3    3    0    0 -0.20793242737E-01 -0.41341928863E-01  0.11600411907E+00  0.88881858085E+00  0.88000000000E+00 0. -1.
        -11    1    4    4    0    0 -0.60958494353E-02  0.13697001102E-01 -0.66981613046E-01  0.68640839350E-01  0.51100000000E-03 0. -1.
         11    1    4    4    0    0  0.12798722017E-01  0.12562292598E-01 -0.60326311055E-01  0.62937615200E-01  0.51100000000E-03 0.  1.
</event>
<event>
 8    1  0.1101883E+005  0.1043930E+01  0.7957747E-01            NaN
         13   -1    0    0    0    0  0.00000000000E+00  0.00000000000E+00  0.74505805969E-08  0.10566000000E+00  0.10566000000E+00 0.  1.
     999900   -1    0    0    0    0 -0.00000000000E+00 -0.00000000000E+00 -0.74505805969E-08  0.93827000000E+00  0.93827000000E+00 0.  1.
     999902    2    1    2    0    0  0.13347104291E-01  0.20641366332E-01 -0.12727751752E-02  0.10193163624E+01  0.10190191439E+01 0.  0.
     999903    2    3    3    0    0  0.71482020787E-01  0.48381362370E-01  0.97238242095E-01  0.13147989303E+00  0.19525650453E-01 0.  0.
         14    1    1    2    0    0 -0.13347104291E-01 -0.20641366332E-01  0.12727751752E-02  0.24613637554E-01  0.00000000000E+00 0. -1.
     999901    1    3    3    0    0 -0.58134916497E-01 -0.27739996038E-01 -0.98511017270E-01  0.88783646941E+00  0.88000000000E+00 0.  1.
        -11    1    4    4    0    0  0.43690854490E-01  0.30555321142E-01  0.45452734491E-01  0.70062333746E-01  0.51100000000E-03 0.  1.
         11    1    4    4    0    0  0.27791166297E-01  0.17826041228E-01  0.51785507604E-01  0.61417559287E-01  0.51100000000E-03 0. -1.
</event>
<event>
 8    1  0.1101883E+005  0.1043930E+01  0.7957747E-01            NaN
         13   -1    0    0    0    0  0.00000000000E+00  0.00000000000E+00  0.74505805969E-08  0.10566000000E+00  0.10566000000E+00 0.  1.
     999900   -1    0    0    0    0 -0.00000000000E+00 -0.00000000000E+00 -0.74505805969E-08  0.93827000000E+00  0.93827000000E+00 0. -1.
     999902    2    1    2    0    0 -0.11684453008E-01 -0.90828862868E-02  0.18118310196E-01  0.10205355898E+01  0.10202674118E+01 0.  0.
     999903    2    3    3    0    0  0.24356434421E-01  0.96392433508E-02  0.12854781020E+00  0.13270444695E+00  0.19994494811E-01 0.  0.
         14    1    1    2    0    0  0.11684453008E-01  0.90828862868E-02 -0.18118310196E-01  0.23394410225E-01  0.00000000000E+00 0. -1.
     999901    1    3    3    0    0 -0.36040887429E-01 -0.18722129638E-01 -0.11042950000E+00  0.88783114283E+00  0.88000000000E+00 0.  1.
        -11    1    4    4    0    0  0.28457035077E-02  0.98996577415E-02  0.59305859034E-01  0.60195907574E-01  0.51100000000E-03 0.  1.
         11    1    4    4    0    0  0.21510730913E-01 -0.26041439072E-03  0.69241951164E-01  0.72508539373E-01  0.51100000000E-03 0. -1.
</event>
<event>
 8    1  0.1101883E+005  0.1043930E+01  0.7957747E-01            NaN
         13   -1    0    0    0    0  0.00000000000E+00  0.00000000000E+00  0.74505805969E-08  0.10566000000E+00  0.10566000000E+00 0.  1.
     999900   -1    0    0    0    0 -0.00000000000E+00 -0.00000000000E+00 -0.74505805969E-08  0.93827000000E+00  0.93827000000E+00 0. -1.
     999902    2    1    2    0    0  0.75549310484E-02 -0.12228416142E-01 -0.19550712937E-01  0.10196639430E+01  0.10193751592E+01 0.  0.
     999903    2    3    3    0    0  0.29276240121E-01 -0.26770441760E-01 -0.12521926245E+00  0.13295704211E+00  0.20590205713E-01 0.  0.
         14    1    1    2    0    0 -0.75549310484E-02  0.12228416142E-01  0.19550712937E-01  0.24266056969E-01  0.00000000000E+00 0. -1.
     999901    1    3    3    0    0 -0.21721309072E-01  0.14542025618E-01  0.10566854951E+00  0.88670690092E+00  0.88000000000E+00 0.  1.
        -11    1    4    4    0    0  0.59713698715E-02 -0.18635070402E-01 -0.46361676280E-01  0.50324837362E-01  0.51100000000E-03 0. -1.
         11    1    4    4    0    0  0.23304870249E-01 -0.81353713585E-02 -0.78857586171E-01  0.82632204752E-01  0.51100000000E-03 0.  1.
</event>
<event>
 8    1  0.1101883E+005  0.1043930E+01  0.7957747E-01            NaN
         13   -1    0    0    0    0  0.00000000000E+00  0.00000000000E+00  0.74505805969E-08  0.10566000000E+00  0.10566000000E+00 0.  1.
     999900   -1    0    0    0    0 -0.00000000000E+00 -0.00000000000E+00 -0.74505805969E-08  0.93827000000E+00  0.93827000000E+00 0.  1.
     999902    2    1    2    0    0  0.12090316321E-01 -0.19557279749E-01 -0.35716776344E-02  0.10206615703E+01  0.10203963060E+01 0.  0.
     999903    2    3    3    0    0 -0.24014927525E-01 -0.22168147033E-01 -0.12582041340E+00  0.13147364940E+00  0.19657074360E-01 0.  0.
         14    1    1    2    0    0 -0.12090316321E-01  0.19557279749E-01  0.35716776344E-02  0.23268429707E-01  0.00000000000E+00 0. -1.
     999901    1    3    3    0    0  0.36105243845E-01  0.26108672833E-02  0.12224873576E+00  0.88918792089E+00  0.88000000000E+00 0. -1.
        -11    1    4    4    0    0 -0.16560446639E-01 -0.21175119361E-01 -0.67334376518E-01  0.72503885792E-01  0.51100000000E-03 0.  1.
         11    1    4    4    0    0 -0.74544808853E-02 -0.99302767139E-03 -0.58486036881E-01  0.58969763611E-01  0.51100000000E-03 0. -1.
</event>
<event>
 8    1  0.1101883E+005  0.1043930E+01  0.7957747E-01            NaN
         13   -1    0    0    0    0  0.00000000000E+00  0.00000000000E+00  0.74505805969E-08  0.10566000000E+00  0.10566000000E+00 0.  1.
     999900   -1    0    0    0    0 -0.00000000000E+00 -0.00000000000E+00 -0.74505805969E-08  0.93827000000E+00  0.93827000000E+00 0. -1.
     999902    2    1    2    0    0  0.18847318220E-01 -0.13275470840E-01 -0.64865574043E-02  0.10199814101E+01  0.10197002217E+01 0.  0.
     999903    2    3    3    0    0  0.73823743499E-01  0.10314331973E+00  0.19999689510E-01  0.13021893428E+00  0.21644716585E-01 0.  0.
         14    1    1    2    0    0 -0.18847318220E-01  0.13275470840E-01  0.64865574043E-02  0.23948589876E-01  0.00000000000E+00 0.  1.
     999901    1    3    3    0    0 -0.54976425279E-01 -0.11641879057E+00 -0.26486246914E-01  0.88976247584E+00  0.88000000000E+00 0. -1.
        -11    1    4    4    0    0  0.45962990637E-02  0.14888893279E-01 -0.25764584330E-02  0.15802036806E-01  0.51100000000E-03 0. -1.
         11    1    4    4    0    0  0.69227444435E-01  0.88254426454E-01  0.22576147943E-01  0.11441689748E+00  0.51100000000E-03 0.  1.
</event>
<event>
 8    1  0.1101883E+005  0.1043930E+01  0.7957747E-01            NaN
         13   -1    0    0    0    0  0.00000000000E+00  0.00000000000E+00  0.74505805969E-08  0.10566000000E+00  0.10566000000E+00 0.  1.
     999900   -1    0    0    0    0 -0.00000000000E+00 -0.00000000000E+00 -0.74505805969E-08  0.93827000000E+00  0.93827000000E+00 0. -1.
     999902    2    1    2    0    0 -0.76983704840E-04 -0.20683780480E-01  0.11757510325E-01  0.10201379057E+01  0.10198604233E+01 0.  0.
     999903    2    3    3    0    0  0.12289214144E+00 -0.18469234885E-01  0.37367915921E-01  0.13121597280E+00  0.19433973109E-01 0.  0.
         14    1    1    2    0    0  0.76983704840E-04  0.20683780480E-01 -0.11757510325E-01  0.23792094285E-01  0.00000000000E+00 0.  1.
     999901    1    3    3    0    0 -0.12296912515E+00 -0.22145455949E-02 -0.25610405596E-01  0.88892193292E+00  0.88000000000E+00 0. -1.
        -11    1    4    4    0    0  0.34741044181E-01  0.12606172391E-03  0.33157739665E-02  0.34902886991E-01  0.51100000000E-03 0. -1.
         11    1    4    4    0    0  0.88151097262E-01 -0.18595296609E-01  0.34052141954E-01  0.96313085804E-01  0.51100000000E-03 0.  1.
</event>
<event>
 8    1  0.1101883E+005  0.1043930E+01  0.7957747E-01            NaN
         13   -1    0    0    0    0  0.00000000000E+00  0.00000000000E+00  0.74505805969E-08  0.10566000000E+00  0.10566000000E+00 0. -1.
     999900   -1    0    0    0    0 -0.00000000000E+00 -0.00000000000E+00 -0.74505805969E-08  0.93827000000E+00  0.93827000000E+00 0.  1.
     999902    2    1    2    0    0  0.19564013058E-01 -0.12973812400E-01  0.50164412418E-02  0.10199251026E+01  0.10196425746E+01 0.  0.
     999903    2    3    3    0    0 -0.25142859925E-02 -0.10272648408E+00  0.80139058880E-01  0.13190122849E+00  0.20411103670E-01 0.  0.
         14    1    1    2    0    0 -0.19564013058E-01  0.12973812400E-01 -0.50164412418E-02  0.24004897372E-01  0.00000000000E+00 0. -1.
     999901    1    3    3    0    0  0.22078299050E-01  0.89752671679E-01 -0.75122617638E-01  0.88802387414E+00  0.88000000000E+00 0.  1.
        -11    1    4    4    0    0 -0.81799790104E-02 -0.36437102018E-01  0.37213376520E-01  0.52722585038E-01  0.51100000000E-03 0.  1.
         11    1    4    4    0    0  0.56656930180E-02 -0.66289382061E-01  0.42925682360E-01  0.79178643449E-01  0.51100000000E-03 0. -1.
</event>
<event>
 8    1  0.1101883E+005  0.1043930E+01  0.7957747E-01            NaN
         13   -1    0    0    0    0  0.00000000000E+00  0.00000000000E+00  0.74505805969E-08  0.10566000000E+00  0.10566000000E+00 0.  1.
     999900   -1    0    0    0    0 -0.00000000000E+00 -0.00000000000E+00 -0.74505805969E-08  0.93827000000E+00  0.93827000000E+00 0.  1.
     999902    2    1    2    0    0  0.64352747429E-02 -0.22647047387E-01  0.10496479226E-01  0.10181525371E+01  0.10178261695E+01 0.  0.
     999903    2    3    3    0    0  0.20886367136E-01 -0.12616360612E+00  0.24373807455E-01  0.13185851579E+00  0.20954471019E-01 0.  0.
         14    1    1    2    0    0 -0.64352747429E-02  0.22647047387E-01 -0.10496479226E-01  0.25777462879E-01  0.00000000000E+00 0. -1.
     999901    1    3    3    0    0 -0.14451092393E-01  0.10351655873E+00 -0.13877328229E-01  0.88629402133E+00  0.88000000000E+00 0.  1.
        -11    1    4    4    0    0  0.12351423652E-01 -0.10037988735E+00  0.26674873534E-01  0.10459679464E+00  0.51100000000E-03 0. -1.
         11    1    4    4    0    0  0.85349434841E-02 -0.25783718770E-01 -0.23010660788E-02  0.27261721148E-01  0.51100000000E-03 0.  1.
</event>
<event>
 8    1  0.1101883E+005  0.1043930E+01  0.7957747E-01            NaN
         13   -1    0    0    0    0  0.00000000000E+00  0.00000000000E+00  0.74505805969E-08  0.10566000000E+00  0.10566000000E+00 0. -1.
     999900   -1    0    0    0    0 -0.00000000000E+00 -0.00000000000E+00 -0.74505805969E-08  0.93827000000E+00  0.93827000000E+00 0. -1.
     999902    2    1    2    0    0 -0.24019319339E-01  0.12696608532E-01  0.16336126214E-01  0.10122282557E+01  0.10117317041E+01 0.  0.
     999903    2    3    3    0    0  0.42218964721E-01  0.65806075721E-01  0.94883562384E-01  0.12465976513E+00  0.20598204983E-01 0.  0.
         14    1    1    2    0    0  0.24019319339E-01 -0.12696608532E-01 -0.16336126214E-01  0.31701744264E-01  0.00000000000E+00 0. -1.
     999901    1    3    3    0    0 -0.66238284060E-01 -0.53109467189E-01 -0.78547436171E-01  0.88756849060E+00  0.88000000000E+00 0. -1.
        -11    1    4    4    0    0  0.20767168006E-01  0.15383454501E-01  0.26357911687E-01  0.36917835377E-01  0.51100000000E-03 0. -1.
         11    1    4    4    0    0  0.21451796714E-01  0.50422621221E-01  0.68525650697E-01  0.87741929757E-01  0.51100000000E-03 0.  1.
</event>
<event>
 8    1  0.1101883E+005  0.1043930E+01  0.7957747E-01            NaN
         13   -1    0    0    0    0  0.00000000000E+00  0.00000000000E+00  0.74505805969E-08  0.10566000000E+00  0.10566000000E+00 0. -1.
     999900   -1    0    0    0    0 -0.00000000000E+00 -0.00000000000E+00 -0.74505805969E-08  0.93827000000E+00  0.93827000000E+00 0.  1.
     999902    2    1    2    0    0  0.13339284094E-01 -0.14854929118E-01 -0.90174785518E-02  0.10220229158E+01  0.10217880994E+01 0.  0.
     999903    2    3    3    0    0  0.95051812176E-01  0.71236854334E-01  0.53498268232E-01  0.13185610500E+00  0.20357586048E-01 0.  0.
         14    1    1    2    0    0 -0.13339284094E-01  0.14854929118E-01  0.90174785518E-02  0.21907084212E-01  0.00000000000E+00 0.  1.
     999901    1    3    3    0    0 -0.81712528082E-01 -0.86091783452E-01 -0.62515746784E-01  0.89016681078E+00  0.88000000000E+00 0.  1.
        -11    1    4    4    0    0  0.27306509271E-01  0.21798331904E-01  0.59490491091E-02  0.35446650458E-01  0.51100000000E-03 0.  1.
         11    1    4    4    0    0  0.67745302906E-01  0.49438522430E-01  0.47549219123E-01  0.96409454547E-01  0.51100000000E-03 0. -1.
</event>
<event>
 8    1  0.1101883E+005  0.1043930E+01  0.7957747E-01            NaN
         13   -1    0    0    0    0  0.00000000000E+00  0.00000000000E+00  0.74505805969E-08  0.10566000000E+00  0.10566000000E+00 0. -1.
     999900   -1    0    0    0    0 -0.00000000000E+00 -0.00000000000E+00 -0.74505805969E-08  0.93827000000E+00  0.93827000000E+00 0. -1.
     999902    2    1    2    0    0  0.72918873020E-02  0.21915768095E-01  0.43167669200E-02  0.10204330430E+01  0.10201624813E+01 0.  0.
     999903    2    3    3    0    0  0.70633251022E-01 -0.65763703844E-01 -0.84471331856E-01  0.12937572462E+00  0.16992684358E-01 0.  0.
         14    1    1    2    0    0 -0.72918873020E-02 -0.21915768095E-01 -0.43167669200E-02  0.23496957000E-01  0.00000000000E+00 0.  1.
     999901    1    3    3    0    0 -0.63341363720E-01  0.87679471938E-01  0.88788098776E-01  0.89105731838E+00  0.88000000000E+00 0.  1.
        -11    1    4    4    0    0  0.64761146466E-01 -0.55415489883E-01 -0.67932263154E-01  0.10899511966E+00  0.51100000000E-03 0.  1.
         11    1    4    4    0    0  0.58721045568E-02 -0.10348213961E-01 -0.16539068703E-01  0.20380604963E-01  0.51100000000E-03 0. -1.
</event>
<event>
 8    1  0.1101883E+005  0.1043930E+01  0.7957747E-01            NaN
         13   -1    0    0    0    0  0.00000000000E+00  0.00000000000E+00  0.74505805969E-08  0.10566000000E+00  0.10566000000E+00 0.  1.
     999900   -1    0    0    0    0 -0.00000000000E+00 -0.00000000000E+00 -0.74505805969E-08  0.93827000000E+00  0.93827000000E+00 0. -1.
     999902    2    1    2    0    0  0.22970209583E-01  0.45238994010E-02  0.45832821806E-02  0.10200741271E+01  0.10197951374E+01 0.  0.
     999903    2    3    3    0    0  0.77514067329E-01  0.86459609640E-01  0.61223198032E-01  0.13277678516E+00  0.19942416277E-01 0.  0.
         14    1    1    2    0    0 -0.22970209583E-01 -0.45238994010E-02 -0.45832821806E-02  0.23855872854E-01  0.00000000000E+00 0. -1.
     999901    1    3    3    0    0 -0.54543857747E-01 -0.81935710239E-01 -0.56639915851E-01  0.88729734199E+00  0.88000000000E+00 0.  1.
        -11    1    4    4    0    0  0.37829112188E-01  0.41577041845E-01  0.18456996911E-01  0.59165986795E-01  0.51100000000E-03 0. -1.
         11    1    4    4    0    0  0.39684955142E-01  0.44882567795E-01  0.42766201121E-01  0.73610798364E-01  0.51100000000E-03 0.  1.
</event>
<event>
 8    1  0.1101883E+005  0.1043930E+01  0.7957747E-01            NaN
         13   -1    0    0    0    0  0.00000000000E+00  0.00000000000E+00  0.74505805969E-08  0.10566000000E+00  0.10566000000E+00 0.  1.
     999900   -1    0    0    0    0 -0.00000000000E+00 -0.00000000000E+00 -0.74505805969E-08  0.93827000000E+00  0.93827000000E+00 0. -1.
     999902    2    1    2    0    0 -0.17907157016E-01  0.10637018925E-01  0.67669888068E-02  0.10220301237E+01  0.10217954635E+01 0.  0.
     999903    2    3    3    0    0  0.46140791252E-01 -0.11266758883E+00  0.42308118832E-01  0.13041959332E+00  0.19908169500E-01 0.  0.
         14    1    1    2    0    0  0.17907157016E-01 -0.10637018925E-01 -0.67669888068E-02  0.21899876290E-01  0.00000000000E+00 0. -1.
     999901    1    3    3    0    0 -0.64047948269E-01  0.12330460776E+00 -0.35541130025E-01  0.89161053039E+00  0.88000000000E+00 0.  1.
        -11    1    4    4    0    0  0.15627315535E-01 -0.46446250334E-01  0.26862192106E-01  0.55886542626E-01  0.51100000000E-03 0.  1.
         11    1    4    4    0    0  0.30513475717E-01 -0.66221338499E-01  0.15445926726E-01  0.74533050698E-01  0.51100000000E-03 0. -1.
</event>
<event>
 8    1  0.1101883E+005  0.1043930E+01  0.7957747E-01            NaN
         13   -1    0    0    0    0  0.00000000000E+00  0.00000000000E+00  0.74505805969E-08  0.10566000000E+00  0.10566000000E+00 0. -1.
     999900   -1    0    0    0    0 -0.00000000000E+00 -0.00000000000E+00 -0.74505805969E-08  0.93827000000E+00  0.93827000000E+00 0.  1.
     999902    2    1    2    0    0 -0.65999306061E-02  0.47279866432E-02  0.21847021953E-01  0.10206232347E+01  0.10203570855E+01 0.  0.
     999903    2    3    3    0    0  0.98968094064E-01 -0.71295426612E-01 -0.37347414107E-01  0.12909188444E+00  0.19803125733E-01 0.  0.
         14    1    1    2    0    0  0.65999306061E-02 -0.47279866432E-02 -0.21847021953E-01  0.23306765325E-01  0.00000000000E+00 0.  1.
     999901    1    3    3    0    0 -0.10556802467E+00  0.76023413255E-01  0.59194436060E-01  0.89153135024E+00  0.88000000000E+00 0.  1.
        -11    1    4    4    0    0  0.36498374564E-01 -0.16470895379E-01 -0.72728418454E-02  0.40701069886E-01  0.51100000000E-03 0.  1.
         11    1    4    4    0    0  0.62469719500E-01 -0.54824531233E-01 -0.30074572261E-01  0.88390814551E-01  0.51100000000E-03 0. -1.
</event>
<event>
 8    1  0.1101883E+005  0.1043930E+01  0.7957747E-01            NaN
         13   -1    0    0    0    0  0.00000000000E+00  0.00000000000E+00  0.74505805969E-08  0.10566000000E+00  0.10566000000E+00 0.  1.
     999900   -1    0    0    0    0 -0.00000000000E+00 -0.00000000000E+00 -0.74505805969E-08  0.93827000000E+00  0.93827000000E+00 0. -1.
     999902    2    1    2    0    0 -0.21244794690E-01 -0.78201025400E-02  0.58863548475E-02  0.10205388803E+01  0.10202707787E+01 0.  0.
     999903    2    3    3    0    0 -0.11799384350E+00  0.43813773479E-01  0.39740708855E-01  0.13308603491E+00  0.17040390169E-01 0.  0.
         14    1    1    2    0    0  0.21244794690E-01  0.78201025400E-02 -0.58863548475E-02  0.23391119652E-01  0.00000000000E+00 0.  1.
     999901    1    3    3    0    0  0.96749048807E-01 -0.51633876019E-01 -0.33854354007E-01  0.88745284544E+00  0.88000000000E+00 0. -1.
        -11    1    4    4    0    0 -0.10316648386E+00  0.43857931930E-01  0.36545774969E-01  0.11790969585E+00  0.51100000000E-03 0.  1.
         11    1    4    4    0    0 -0.14827359633E-01 -0.44158450642E-04  0.31949338852E-02  0.15176339058E-01  0.51100000000E-03 0. -1.
</event>
<event>
 8    1  0.1101883E+005  0.1043930E+01  0.7957747E-01            NaN
         13   -1    0    0    0    0  0.00000000000E+00  0.00000000000E+00  0.74505805969E-08  0.10566000000E+00  0.10566000000E+00 0.  1.
     999900   -1    0    0    0    0 -0.00000000000E+00 -0.00000000000E+00 -0.74505805969E-08  0.93827000000E+00  0.93827000000E+00 0.  1.
     999902    2    1    2    0    0 -0.47290386659E-02  0.23134356307E-01 -0.53940938231E-02  0.10197089658E+01  0.10194212655E+01 0.  0.
     999903    2    3    3    0    0  0.11161352594E+00  0.22848724974E-01  0.58834836947E-01  0.12973085965E+00  0.19720915287E-01 0.  0.
         14    1    1    2    0    0  0.47290386659E-02 -0.23134356307E-01  0.53940938231E-02  0.24221034177E-01  0.00000000000E+00 0. -1.
     999901    1    3    3    0    0 -0.11634256461E+00  0.28563133217E-03 -0.64228930770E-01  0.88997810618E+00  0.88000000000E+00 0. -1.
        -11    1    4    4    0    0  0.89530669889E-01  0.11117257669E-01  0.50358872240E-01  0.10332285034E+00  0.51100000000E-03 0.  1.
         11    1    4    4    0    0  0.22082856054E-01  0.11731467305E-01  0.84759647065E-02  0.26408009303E-01  0.51100000000E-03 0. -1.
</event>
<event>
 8    1  0.1101883E+005  0.1043930E+01  0.7957747E-01            NaN
         13   -1    0    0    0    0  0.00000000000E+00  0.00000000000E+00  0.74505805969E-08  0.10566000000E+00  0.10566000000E+00 0. -1.
     999900   -1    0    0    0    0 -0.00000000000E+00 -0.00000000000E+00 -0.74505805969E-08  0.93827000000E+00  0.93827000000E+00 0. -1.
     999902    2    1    2    0    0  0.28621963197E-02  0.24059954253E-01  0.45977363422E-02  0.10192680304E+01  0.10189696291E+01 0.  0.
     999903    2    3    3    0    0  0.12355282572E+00  0.33516752055E-01  0.18574599448E-01  0.13087002736E+00  0.19831159950E-01 0.  0.
         14    1    1    2    0    0 -0.28621963197E-02 -0.24059954253E-01 -0.45977363422E-02  0.24661969627E-01  0.00000000000E+00 0.  1.
     999901    1    3    3    0    0 -0.12069062940E+00 -0.94567978020E-02 -0.13976863106E-01  0.88839800301E+00  0.88000000000E+00 0. -1.
        -11    1    4    4    0    0  0.82170294321E-01  0.16327732320E-01  0.19617543609E-01  0.86044530621E-01  0.51100000000E-03 0. -1.
         11    1    4    4    0    0  0.41382531402E-01  0.17189019735E-01 -0.10429441611E-02  0.44825496742E-01  0.51100000000E-03 0.  1.
</event>
<event>
 8    1  0.1101883E+005  0.1043930E+01  0.7957747E-01            NaN
         13   -1    0    0    0    0  0.00000000000E+00  0.00000000000E+00  0.74505805969E-08  0.10566000000E+00  0.10566000000E+00 0. -1.
     999900   -1    0    0    0    0 -0.00000000000E+00 -0.00000000000E+00 -0.74505805969E-08  0.93827000000E+00  0.93827000000E+00 0.  1.
     999902    2    1    2    0    0  0.14340719411E-01  0.90935190104E-02 -0.15817301810E-01  0.10207236354E+01  0.10204598005E+01 0.  0.
     999903    2    3    3    0    0  0.42924472529E-01 -0.10872789375E+00  0.53373838702E-01  0.12972064429E+00  0.17731713876E-01 0.  0.
         14    1    1    2    0    0 -0.14340719411E-01 -0.90935190104E-02  0.15817301810E-01  0.23206364596E-01  0.00000000000E+00 0. -1.
     999901    1    3    3    0    0 -0.28583753118E-01  0.11782141276E+00 -0.69191140512E-01  0.89100299111E+00  0.88000000000E+00 0.  1.
        -11    1    4    4    0    0  0.13085810555E-01 -0.28202007619E-01  0.60865588957E-02  0.31684365100E-01  0.51100000000E-03 0.  1.
         11    1    4    4    0    0  0.29838661974E-01 -0.80525886128E-01  0.47287279806E-01  0.98036279191E-01  0.51100000000E-03 0. -1.
</event>
<event>
 8    1  0.1101883E+005  0.1043930E+01  0.7957747E-01            NaN
         13   -1    0    0    0    0  0.00000000000E+00  0.00000000000E+00  0.74505805969E-08  0.10566000000E+00  0.10566000000E+00 0. -1.
     999900   -1    0    0    0    0 -0.00000000000E+00 -0.00000000000E+00 -0.74505805969E-08  0.93827000000E+00  0.93827000000E+00 0.  1.
     999902    2    1    2    0    0  0.16199367012E-01 -0.66553566131E-02 -0.15717807968E-01  0.10203978358E+01  0.10201264532E+01 0.  0.
     999903    2    3    3    0    0 -0.25912485445E-01 -0.10840328093E+00  0.63668881998E-01  0.12998877547E+00  0.20509192988E-01 0.  0.
         14    1    1    2    0    0 -0.16199367012E-01  0.66553566131E-02  0.15717807968E-01  0.23532164171E-01  0.00000000000E+00 0. -1.
     999901    1    3    3    0    0  0.42111852457E-01  0.10174792431E+00 -0.79386689966E-01  0.89040906036E+00  0.88000000000E+00 0.  1.
        -11    1    4    4    0    0 -0.10194441286E-01 -0.56269650692E-01  0.21422831762E-01  0.61068805980E-01  0.51100000000E-03 0.  1.
         11    1    4    4    0    0 -0.15718044159E-01 -0.52133630233E-01  0.42246050236E-01  0.68919969494E-01  0.51100000000E-03 0. -1.
</event>
<event>
 8    1  0.1101883E+005  0.1043930E+01  0.7957747E-01            NaN
         13   -1    0    0    0    0  0.00000000000E+00  0.00000000000E+00  0.74505805969E-08  0.10566000000E+00  0.10566000000E+00 0.  1.
     999900   -1    0    0    0    0 -0.00000000000E+00 -0.00000000000E+00 -0.74505805969E-08  0.93827000000E+00  0.93827000000E+00 0. -1.
     999902    2    1    2    0    0  0.58258093282E-02  0.12433058923E-01  0.18738945634E-01  0.10206992210E+01  0.10204348243E+01 0.  0.
     999903    2    3    3    0    0  0.33898415964E-02 -0.90396466486E-01  0.93490063768E-01  0.13156055079E+00  0.19615665224E-01 0.  0.
         14    1    1    2    0    0 -0.58258093282E-02 -0.12433058923E-01 -0.18738945634E-01  0.23230778979E-01  0.00000000000E+00 0. -1.
     999901    1    3    3    0    0  0.24359677318E-02  0.10282952541E+00 -0.74751118134E-01  0.88913867023E+00  0.88000000000E+00 0. -1.
        -11    1    4    4    0    0 -0.72717950709E-03 -0.60051869635E-01  0.48810937979E-01  0.77392019124E-01  0.51100000000E-03 0. -1.
         11    1    4    4    0    0  0.41170211035E-02 -0.30344596851E-01  0.44679125789E-01  0.54168531668E-01  0.51100000000E-03 0.  1.
</event>
<event>
 8    1  0.1101883E+005  0.1043930E+01  0.7957747E-01            NaN
         13   -1    0    0    0    0  0.00000000000E+00  0.00000000000E+00  0.74505805969E-08  0.10566000000E+00  0.10566000000E+00 0. -1.
     999900   -1    0    0    0    0 -0.00000000000E+00 -0.00000000000E+00 -0.74505805969E-08  0.93827000000E+00  0.93827000000E+00 0. -1.
     999902    2    1    2    0    0 -0.11852704832E-01 -0.19400940282E-01  0.17454582396E-02  0.10211280325E+01  0.10208734148E+01 0.  0.
     999903    2    3    3    0    0  0.54693676541E-03 -0.15223568451E-01 -0.12888932485E+00  0.13138838067E+00  0.20454641043E-01 0.  0.
         14    1    1    2    0    0  0.11852704832E-01  0.19400940282E-01 -0.17454582396E-02  0.22801967462E-01  0.00000000000E+00 0.  1.
     999901    1    3    3    0    0 -0.12399641598E-01 -0.41773718311E-02  0.13063478309E+00  0.88973965186E+00  0.88000000000E+00 0.  1.
        -11    1    4    4    0    0  0.92217433784E-02 -0.11187451406E-01 -0.55027836752E-01  0.56908027189E-01  0.51100000000E-03 0. -1.
         11    1    4    4    0    0 -0.86748066130E-02 -0.40361170449E-02 -0.73861488095E-01  0.74480353485E-01  0.51100000000E-03 0.  1.
</event>
<event>
 8    1  0.1101883E+005  0.1043930E+01  0.7957747E-01            NaN
         13   -1    0    0    0    0  0.00000000000E+00  0.00000000000E+00  0.74505805969E-08  0.10566000000E+00  0.10566000000E+00 0.  1.
     999900   -1    0    0    0    0 -0.00000000000E+00 -0.00000000000E+00 -0.74505805969E-08  0.93827000000E+00  0.93827000000E+00 0.  1.
     999902    2    1    2    0    0 -0.13326810255E-01 -0.11591686132E-01 -0.15507276173E-01  0.10204258158E+01  0.10201550857E+01 0.  0.
     999903    2    3    3    0    0  0.11111635083E+00  0.64006330162E-04  0.60921775655E-01  0.12831407649E+00  0.20154204501E-01 0.  0.
         14    1    1    2    0    0  0.13326810255E-01  0.11591686132E-01  0.15507276173E-01  0.23504184166E-01  0.00000000000E+00 0.  1.
     999901    1    3    3    0    0 -0.12444316108E+00 -0.11655692463E-01 -0.76429051829E-01  0.89211173934E+00  0.88000000000E+00 0.  1.
        -11    1    4    4    0    0  0.16748439775E-01  0.73199160867E-03  0.18116336416E-01  0.24688232273E-01  0.51100000000E-03 0. -1.
         11    1    4    4    0    0  0.94367911053E-01 -0.66798527851E-03  0.42805439239E-01  0.10362584422E+00  0.51100000000E-03 0.  1.
</event>
<event>
 8    1  0.1101883E+005  0.1043930E+01  0.7957747E-01            NaN
         13   -1    0    0    0    0  0.00000000000E+00  0.00000000000E+00  0.74505805969E-08  0.10566000000E+00  0.10566000000E+00 0.  1.
     999900   -1    0    0    0    0 -0.00000000000E+00 -0.00000000000E+00 -0.74505805969E-08  0.93827000000E+00  0.93827000000E+00 0.  1.
     999902    2    1    2    0    0  0.19983704074E-01  0.81760081485E-02  0.84848596503E-02  0.10207311125E+01  0.10204674496E+01 0.  0.
     999903    2    3    3    0    0 -0.10657566336E+00 -0.34272420478E-05  0.70743960566E-01  0.12946214508E+00  0.19934066838E-01 0.  0.
         14    1    1    2    0    0 -0.19983704074E-01 -0.81760081485E-02 -0.84848596503E-02  0.23198887496E-01  0.00000000000E+00 0.  1.
     999901    1    3    3    0    0  0.12655936743E+00  0.81794353906E-02 -0.62259100916E-01  0.89126896742E+00  0.88000000000E+00 0.  1.
        -11    1    4    4    0    0 -0.80759416517E-01 -0.18166557848E-02  0.63000991197E-01  0.10244398278E+00  0.51100000000E-03 0.  1.
         11    1    4    4    0    0 -0.25816246838E-01  0.18132285427E-02  0.77429693687E-02  0.27018162302E-01  0.51100000000E-03 0. -1.
</event>
<event>
 8    1  0.1101883E+005  0.1043930E+01  0.7957747E-01            NaN
         13   -1    0    0    0    0  0.00000000000E+00  0.00000000000E+00  0.74505805969E-08  0.10566000000E+00  0.10566000000E+00 0.  1.
     999900   -1    0    0    0    0 -0.00000000000E+00 -0.00000000000E+00 -0.74505805969E-08  0.93827000000E+00  0.93827000000E+00 0.  1.
     999902    2    1    2    0    0 -0.41933190068E-02 -0.20417634899E-01  0.11601936870E-01  0.10200748396E+01  0.10197958667E+01 0.  0.
     999903    2    3    3    0    0 -0.84541506595E-01  0.92149443506E-01 -0.18726565393E-01  0.12875727753E+00  0.24268621486E-01 0.  0.
         14    1    1    2    0    0  0.41933190068E-02  0.20417634899E-01 -0.11601936870E-01  0.23855160412E-01  0.00000000000E+00 0. -1.
     999901    1    3    3    0    0  0.80348187588E-01 -0.11256707840E+00  0.30328502263E-01  0.89131756206E+00  0.88000000000E+00 0. -1.
        -11    1    4    4    0    0 -0.82331215549E-01  0.79711297338E-01 -0.14992299259E-01  0.11557400285E+00  0.51100000000E-03 0. -1.
         11    1    4    4    0    0 -0.22102910461E-02  0.12438146167E-01 -0.37342661340E-02  0.13183274675E-01  0.51100000000E-03 0.  1.
</event>
<event>
 8    1  0.1101883E+005  0.1043930E+01  0.7957747E-01            NaN
         13   -1    0    0    0    0  0.00000000000E+00  0.00000000000E+00  0.74505805969E-08  0.10566000000E+00  0.10566000000E+00 0. -1.
     999900   -1    0    0    0    0 -0.00000000000E+00 -0.00000000000E+00 -0.74505805969E-08  0.93827000000E+00  0.93827000000E+00 0.  1.
     999902    2    1    2    0    0 -0.27214177143E-01  0.93321218791E-02 -0.24045205694E-01  0.10064350423E+01  0.10057363584E+01 0.  0.
     999903    2    3    3    0    0 -0.32036614087E-01 -0.10070554438E+00 -0.50649643031E-01  0.11916995227E+00  0.21636540243E-01 0.  0.
         14    1    1    2    0    0  0.27214177143E-01 -0.93321218791E-02  0.24045205694E-01  0.37494957704E-01  0.00000000000E+00 0. -1.
     999901    1    3    3    0    0  0.48224369439E-02  0.11003766626E+00  0.26604437336E-01  0.88726509003E+00  0.88000000000E+00 0.  1.
        -11    1    4    4    0    0 -0.68725367751E-02 -0.13915296974E-01 -0.16253642329E-01  0.22479084980E-01  0.51100000000E-03 0.  1.
         11    1    4    4    0    0 -0.25164077312E-01 -0.86790247407E-01 -0.34396000701E-01  0.96690867289E-01  0.51100000000E-03 0. -1.
</event>
<event>
 8    1  0.1101883E+005  0.1043930E+01  0.7957747E-01            NaN
         13   -1    0    0    0    0  0.00000000000E+00  0.00000000000E+00  0.74505805969E-08  0.10566000000E+00  0.10566000000E+00 0.  1.
     999900   -1    0    0    0    0 -0.00000000000E+00 -0.00000000000E+00 -0.74505805969E-08  0.93827000000E+00  0.93827000000E+00 0.  1.
     999902    2    1    2    0    0  0.19037010088E-01 -0.11337361029E-01  0.35242600252E-02  0.10214942268E+01  0.10212478110E+01 0.  0.
     999903    2    3    3    0    0 -0.51980011532E-01  0.53989621281E-01 -0.10398219112E+00  0.12971585247E+00  0.19927506246E-01 0.  0.
         14    1    1    2    0    0 -0.19037010088E-01  0.11337361029E-01 -0.35242600252E-02  0.22435773152E-01  0.00000000000E+00 0. -1.
     999901    1    3    3    0    0  0.71017021620E-01 -0.65326982311E-01  0.10750645115E+00  0.89177837438E+00  0.88000000000E+00 0. -1.
        -11    1    4    4    0    0 -0.44150225925E-01  0.33916890886E-01 -0.69479181553E-01  0.89034912966E-01  0.51100000000E-03 0. -1.
         11    1    4    4    0    0 -0.78297856068E-02  0.20072730395E-01 -0.34503009570E-01  0.40680939500E-01  0.51100000000E-03 0.  1.
</event>
<event>
 8    1  0.1101883E+005  0.1043930E+01  0.7957747E-01            NaN
         13   -1    0    0    0    0  0.00000000000E+00  0.00000000000E+00  0.74505805969E-08  0.10566000000E+00  0.10566000000E+00 0.  1.
     999900   -1    0    0    0    0 -0.00000000000E+00 -0.00000000000E+00 -0.74505805969E-08  0.93827000000E+00  0.93827000000E+00 0. -1.
     999902    2    1    2    0    0 -0.21056210336E-01 -0.13177988365E-02 -0.15818870108E-01  0.10175607520E+01  0.10172190260E+01 0.  0.
     999903    2    3    3    0    0  0.83660047772E-02 -0.26913048887E-01  0.12139109448E+00  0.12607471290E+00  0.19097988853E-01 0.  0.
         14    1    1    2    0    0  0.21056210336E-01  0.13177988365E-02  0.15818870108E-01  0.26369247979E-01  0.00000000000E+00 0.  1.
     999901    1    3    3    0    0 -0.29422215113E-01  0.25595250050E-01 -0.13720996458E+00  0.89148603912E+00  0.88000000000E+00 0. -1.
        -11    1    4    4    0    0  0.89340928813E-02 -0.19898238070E-01  0.52921882459E-01  0.57242856829E-01  0.51100000000E-03 0. -1.
         11    1    4    4    0    0 -0.56808810415E-03 -0.70148108169E-02  0.68469212017E-01  0.68831856071E-01  0.51100000000E-03 0.  1.
</event>
<event>
 8    1  0.1101883E+005  0.1043930E+01  0.7957747E-01            NaN
         13   -1    0    0    0    0  0.00000000000E+00  0.00000000000E+00  0.74505805969E-08  0.10566000000E+00  0.10566000000E+00 0.  1.
     999900   -1    0    0    0    0 -0.00000000000E+00 -0.00000000000E+00 -0.74505805969E-08  0.93827000000E+00  0.93827000000E+00 0. -1.
     999902    2    1    2    0    0  0.82123532439E-02 -0.22502557952E-01  0.70017408913E-03  0.10199654824E+01  0.10196839153E+01 0.  0.
     999903    2    3    3    0    0 -0.97357259472E-01 -0.25209192110E-01  0.80060152040E-01  0.13010578835E+00  0.20098479485E-01 0.  0.
         14    1    1    2    0    0 -0.82123532439E-02  0.22502557952E-01 -0.70017408913E-03  0.23964517603E-01  0.00000000000E+00 0. -1.
     999901    1    3    3    0    0  0.10556961272E+00  0.27066341580E-02 -0.79359977951E-01  0.88985969405E+00  0.88000000000E+00 0. -1.
        -11    1    4    4    0    0 -0.65898348241E-01 -0.25417042309E-01  0.60943708902E-01  0.93289951851E-01  0.51100000000E-03 0. -1.
         11    1    4    4    0    0 -0.31458911231E-01  0.20785019934E-03  0.19116443138E-01  0.36815836495E-01  0.51100000000E-03 0.  1.
</event>
<event>
 8    1  0.1101883E+005  0.1043930E+01  0.7957747E-01            NaN
         13   -1    0    0    0    0  0.00000000000E+00  0.00000000000E+00  0.74505805969E-08  0.10566000000E+00  0.10566000000E+00 0.  1.
     999900   -1    0    0    0    0 -0.00000000000E+00 -0.00000000000E+00 -0.74505805969E-08  0.93827000000E+00  0.93827000000E+00 0.  1.
     999902    2    1    2    0    0  0.88632742737E-02 -0.12871408014E-01 -0.18176857839E-01  0.10199585809E+01  0.10196768497E+01 0.  0.
     999903    2    3    3    0    0 -0.66559045326E-01 -0.67458571758E-01  0.85188328319E-01  0.12903061157E+00  0.20275157754E-01 0.  0.
         14    1    1    2    0    0 -0.88632742737E-02  0.12871408014E-01  0.18176857839E-01  0.23971419149E-01  0.00000000000E+00 0.  1.
     999901    1    3    3    0    0  0.75422319600E-01  0.54587163744E-01 -0.10336518616E+00  0.89092796928E+00  0.88000000000E+00 0.  1.
        -11    1    4    4    0    0 -0.35145589045E-01 -0.36992287805E-01  0.59098209474E-01  0.78080095225E-01  0.51100000000E-03 0. -1.
         11    1    4    4    0    0 -0.31413456281E-01 -0.30466283953E-01  0.26090118845E-01  0.50950516344E-01  0.51100000000E-03 0.  1.
</event>
<event>
 8    1  0.1101883E+005  0.1043930E+01  0.7957747E-01            NaN
         13   -1    0    0    0    0  0.00000000000E+00  0.00000000000E+00  0.74505805969E-08  0.10566000000E+00  0.10566000000E+00 0.  1.
     999900   -1    0    0    0    0 -0.00000000000E+00 -0.00000000000E+00 -0.74505805969E-08  0.93827000000E+00  0.93827000000E+00 0.  1.
     999902    2    1    2    0    0  0.57781152719E-02 -0.33873577001E-02  0.24477809882E-01  0.10185523724E+01  0.10182361766E+01 0.  0.
     999903    2    3    3    0    0 -0.35309047987E-01 -0.48123568239E-01  0.11569619524E+00  0.13175460660E+00  0.20274616578E-01 0.  0.
         14    1    1    2    0    0 -0.57781152719E-02  0.33873577001E-02 -0.24477809882E-01  0.25377627646E-01  0.00000000000E+00 0. -1.
     999901    1    3    3    0    0  0.41087163259E-01  0.44736210539E-01 -0.91218385359E-01  0.88679776575E+00  0.88000000000E+00 0.  1.
        -11    1    4    4    0    0 -0.14497796474E-01 -0.10343973624E-01  0.50768637565E-01  0.53804270965E-01  0.51100000000E-03 0. -1.
         11    1    4    4    0    0 -0.20811251514E-01 -0.37779594615E-01  0.64927557676E-01  0.77950335635E-01  0.51100000000E-03 0.  1.
</event>
<event>
 8    1  0.1101883E+005  0.1043930E+01  0.7957747E-01            NaN
         13   -1    0    0    0    0  0.00000000000E+00  0.00000000000E+00  0.74505805969E-08  0.10566000000E+00  0.10566000000E+00 0. -1.
     999900   -1    0    0    0    0 -0.00000000000E+00 -0.00000000000E+00 -0.74505805969E-08  0.93827000000E+00  0.93827000000E+00 0.  1.
     999902    2    1    2    0    0 -0.23204732842E-01  0.22779715408E-02  0.20487262839E-02  0.10205238884E+01  0.10202554390E+01 0.  0.
     999903    2    3    3    0    0 -0.46998820101E-01  0.59917920036E-01  0.10630784930E+00  0.13217796086E+00  0.19251189119E-01 0.  0.
         14    1    1    2    0    0  0.23204732842E-01 -0.22779715408E-02 -0.20487262839E-02  0.23406111595E-01  0.00000000000E+00 0.  1.
     999901    1    3    3    0    0  0.23794087259E-01 -0.57639948496E-01 -0.10425912301E+00  0.88834592754E+00  0.88000000000E+00 0.  1.
        -11    1    4    4    0    0 -0.14852350726E-01  0.32734092295E-01  0.56402212061E-01  0.66884854540E-01  0.51100000000E-03 0.  1.
         11    1    4    4    0    0 -0.32146469375E-01  0.27183827741E-01  0.49905637238E-01  0.65293106321E-01  0.51100000000E-03 0. -1.
</event>
<event>
 8    1  0.1101883E+005  0.1043930E+01  0.7957747E-01            NaN
         13   -1    0    0    0    0  0.00000000000E+00  0.00000000000E+00  0.74505805969E-08  0.10566000000E+00  0.10566000000E+00 0. -1.
     999900   -1    0    0    0    0 -0.00000000000E+00 -0.00000000000E+00 -0.74505805969E-08  0.93827000000E+00  0.93827000000E+00 0.  1.
     999902    2    1    2    0    0 -0.83714539694E-02 -0.21309420759E-01 -0.15288822396E-02  0.10209841913E+01  0.10207263144E+01 0.  0.
     999903    2    3    3    0    0  0.15213475043E-01 -0.10764013243E+00 -0.75087162409E-01  0.13339190811E+00  0.18370390749E-01 0.  0.
         14    1    1    2    0    0  0.83714539694E-02  0.21309420759E-01  0.15288822396E-02  0.22945808671E-01  0.00000000000E+00 0.  1.
     999901    1    3    3    0    0 -0.23584929013E-01  0.86330711675E-01  0.73558280170E-01  0.88759228322E+00  0.88000000000E+00 0. -1.
        -11    1    4    4    0    0  0.63567392403E-02 -0.21322950418E-01 -0.23851707287E-01  0.32622713097E-01  0.51100000000E-03 0.  1.
         11    1    4    4    0    0  0.88567358031E-02 -0.86317182016E-01 -0.51235455122E-01  0.10076919501E+00  0.51100000000E-03 0. -1.
</event>
<event>
 8    1  0.1101883E+005  0.1043930E+01  0.7957747E-01            NaN
         13   -1    0    0    0    0  0.00000000000E+00  0.00000000000E+00  0.74505805969E-08  0.10566000000E+00  0.10566000000E+00 0. -1.
     999900   -1    0    0    0    0 -0.00000000000E+00 -0.00000000000E+00 -0.74505805969E-08  0.93827000000E+00  0.93827000000E+00 0.  1.
     999902    2    1    2    0    0 -0.17323969234E-01  0.13508865774E-01 -0.99033576901E-02  0.10198325757E+01  0.10195478393E+01 0.  0.
     999903    2    3    3    0    0 -0.11978940632E+00 -0.49912829041E-01  0.40684372814E-03  0.13156022026E+00  0.21613275187E-01 0.  0.
         14    1    1    2    0    0  0.17323969234E-01 -0.13508865774E-01  0.99033576901E-02  0.24097424303E-01  0.00000000000E+00 0.  1.
     999901    1    3    3    0    0  0.10246543709E+00  0.63421694815E-01 -0.10310201418E-01  0.88827235543E+00  0.88000000000E+00 0.  1.
        -11    1    4    4    0    0 -0.60402537156E-01 -0.19374769281E-01  0.95711517807E-02  0.64153848264E-01  0.51100000000E-03 0.  1.
         11    1    4    4    0    0 -0.59386869166E-01 -0.30538059760E-01 -0.91643080525E-02  0.67406372001E-01  0.51100000000E-03 0. -1.
</event>
<event>
 8    1  0.1101883E+005  0.1043930E+01  0.7957747E-01            NaN
         13   -1    0    0    0    0  0.00000000000E+00  0.00000000000E+00  0.74505805969E-08  0.10566000000E+00  0.10566000000E+00 0.  1.
     999900   -1    0    0    0    0 -0.00000000000E+00 -0.00000000000E+00 -0.74505805969E-08  0.93827000000E+00  0.93827000000E+00 0.  1.
     999902    2    1    2    0    0 -0.11195310619E-01  0.16237943288E-02 -0.20486394619E-01  0.10205277768E+01  0.10202594175E+01 0.  0.
     999903    2    3    3    0    0  0.90511601091E-01 -0.89892351045E-01  0.98305578231E-02  0.12943933090E+00  0.19619271332E-01 0.  0.
         14    1    1    2    0    0  0.11195310619E-01 -0.16237943288E-02  0.20486394619E-01  0.23402223235E-01  0.00000000000E+00 0.  1.
     999901    1    3    3    0    0 -0.10170691171E+00  0.91516145373E-01 -0.30316952442E-01  0.89108844587E+00  0.88000000000E+00 0.  1.
        -11    1    4    4    0    0  0.55426575056E-01 -0.61723853825E-01  0.14443584563E-01  0.84206992641E-01  0.51100000000E-03 0.  1.
         11    1    4    4    0    0  0.35085026035E-01 -0.28168497219E-01 -0.46130267402E-02  0.45232338257E-01  0.51100000000E-03 0. -1.
</event>
<event>
 8    1  0.1101883E+005  0.1043930E+01  0.7957747E-01            NaN
         13   -1    0    0    0    0  0.00000000000E+00  0.00000000000E+00  0.74505805969E-08  0.10566000000E+00  0.10566000000E+00 0. -1.
     999900   -1    0    0    0    0 -0.00000000000E+00 -0.00000000000E+00 -0.74505805969E-08  0.93827000000E+00  0.93827000000E+00 0. -1.
     999902    2    1    2    0    0 -0.83266395233E-02 -0.22406160499E-01  0.76615801105E-02  0.10188288294E+01  0.10185195702E+01 0.  0.
     999903    2    3    3    0    0  0.24222764854E-01 -0.99244952348E-01 -0.77834029279E-01  0.13075610556E+00  0.24550358944E-01 0.  0.
         14    1    1    2    0    0  0.83266395233E-02  0.22406160499E-01 -0.76615801105E-02  0.25101170567E-01  0.00000000000E+00 0.  1.
     999901    1    3    3    0    0 -0.32549404377E-01  0.76838791849E-01  0.85495609389E-01  0.88807272387E+00  0.88000000000E+00 0.  1.
        -11    1    4    4    0    0  0.52644515269E-02 -0.67485588454E-01 -0.44912364915E-01  0.81236695786E-01  0.51100000000E-03 0.  1.
         11    1    4    4    0    0  0.18958313327E-01 -0.31759363894E-01 -0.32921664363E-01  0.49519409776E-01  0.51100000000E-03 0. -1.
</event>
<event>
 8    1  0.1101883E+005  0.1043930E+01  0.7957747E-01            NaN
         13   -1    0    0    0    0  0.00000000000E+00  0.00000000000E+00  0.74505805969E-08  0.10566000000E+00  0.10566000000E+00 0.  1.
     999900   -1    0    0    0    0 -0.00000000000E+00 -0.00000000000E+00 -0.74505805969E-08  0.93827000000E+00  0.93827000000E+00 0. -1.
     999902    2    1    2    0    0  0.89067402420E-02 -0.11050390629E-01  0.22481141409E-01  0.10173434832E+01  0.10169960275E+01 0.  0.
     999903    2    3    3    0    0  0.67704783708E-01 -0.35307410519E-01 -0.99614766375E-01  0.12663981555E+00  0.16852009602E-01 0.  0.
         14    1    1    2    0    0 -0.89067402420E-02  0.11050390629E-01 -0.22481141409E-01  0.26586516767E-01  0.00000000000E+00 0. -1.
     999901    1    3    3    0    0 -0.58798043466E-01  0.24257019890E-01  0.12209590778E+00  0.89070366768E+00  0.88000000000E+00 0.  1.
        -11    1    4    4    0    0  0.35207188149E-01 -0.12187141060E-01 -0.37825881682E-01  0.53095488986E-01  0.51100000000E-03 0.  1.
         11    1    4    4    0    0  0.32497595559E-01 -0.23120269459E-01 -0.61788884692E-01  0.73544326562E-01  0.51100000000E-03 0. -1.
</event>
<event>
 8    1  0.1101883E+005  0.1043930E+01  0.7957747E-01            NaN
         13   -1    0    0    0    0  0.00000000000E+00  0.00000000000E+00  0.74505805969E-08  0.10566000000E+00  0.10566000000E+00 0. -1.
     999900   -1    0    0    0    0 -0.00000000000E+00 -0.00000000000E+00 -0.74505805969E-08  0.93827000000E+00  0.93827000000E+00 0.  1.
     999902    2    1    2    0    0  0.99651530631E-02 -0.49166819736E-02 -0.20729676833E-01  0.10204098482E+01  0.10201387459E+01 0.  0.
     999903    2    3    3    0    0  0.49171883410E-01 -0.43071300586E-01 -0.11495857824E+00  0.13369003427E+00  0.19609678713E-01 0.  0.
         14    1    1    2    0    0 -0.99651530631E-02  0.49166819736E-02  0.20729676833E-01  0.23520151759E-01  0.00000000000E+00 0. -1.
     999901    1    3    3    0    0 -0.39206730347E-01  0.38154618612E-01  0.94228901411E-01  0.88671981397E+00  0.88000000000E+00 0.  1.
        -11    1    4    4    0    0  0.34855327740E-01 -0.26728736992E-01 -0.58225580062E-01  0.72936949124E-01  0.51100000000E-03 0. -1.
         11    1    4    4    0    0  0.14316555670E-01 -0.16342563594E-01 -0.56732998182E-01  0.60753085147E-01  0.51100000000E-03 0.  1.
</event>
<event>
 8    1  0.1101883E+005  0.1043930E+01  0.7957747E-01            NaN
         13   -1    0    0    0    0  0.00000000000E+00  0.00000000000E+00  0.74505805969E-08  0.10566000000E+00  0.10566000000E+00 0. -1.
     999900   -1    0    0    0    0 -0.00000000000E+00 -0.00000000000E+00 -0.74505805969E-08  0.93827000000E+00  0.93827000000E+00 0.  1.
     999902    2    1    2    0    0  0.72211484712E-02 -0.19994760884E-01  0.88977818839E-02  0.10208842635E+01  0.10206241098E+01 0.  0.
     999903    2    3    3    0    0 -0.88852356653E-01 -0.75819622217E-01 -0.55796584234E-01  0.13154074465E+00  0.23374180081E-01 0.  0.
         14    1    1    2    0    0 -0.72211484712E-02  0.19994760884E-01 -0.88977818839E-02  0.23045736493E-01  0.00000000000E+00 0.  1.
     999901    1    3    3    0    0  0.96073505124E-01  0.55824861333E-01  0.64694366118E-01  0.88934351886E+00  0.88000000000E+00 0. -1.
        -11    1    4    4    0    0 -0.60301882575E-01 -0.53676346947E-01 -0.49951979412E-01  0.94936445225E-01  0.51100000000E-03 0. -1.
         11    1    4    4    0    0 -0.28550474078E-01 -0.22143275270E-01 -0.58446048217E-02  0.36604299423E-01  0.51100000000E-03 0.  1.
</event>
<event>
 8    1  0.1101883E+005  0.1043930E+01  0.7957747E-01            NaN
         13   -1    0    0    0    0  0.00000000000E+00  0.00000000000E+00  0.74505805969E-08  0.10566000000E+00  0.10566000000E+00 0. -1.
     999900   -1    0    0    0    0 -0.00000000000E+00 -0.00000000000E+00 -0.74505805969E-08  0.93827000000E+00  0.93827000000E+00 0.  1.
     999902    2    1    2    0    0  0.92393766962E-02  0.17758657299E-01 -0.13623978249E-01  0.10197153603E+01  0.10194278137E+01 0.  0.
     999903    2    3    3    0    0 -0.62104357396E-01  0.13261695135E-01  0.10951031122E+00  0.12827147298E+00  0.20693930275E-01 0.  0.
         14    1    1    2    0    0 -0.92393766962E-02 -0.17758657299E-01  0.13623978249E-01  0.24214639665E-01  0.00000000000E+00 0.  1.
     999901    1    3    3    0    0  0.71343734092E-01  0.44969621636E-02 -0.12313428947E+00  0.89144388736E+00  0.88000000000E+00 0.  1.
        -11    1    4    4    0    0 -0.25624777363E-01  0.15978990368E-01  0.48823771250E-01  0.57410618427E-01  0.51100000000E-03 0. -1.
         11    1    4    4    0    0 -0.36479580033E-01 -0.27172952327E-02  0.60686539973E-01  0.70860854551E-01  0.51100000000E-03 0.  1.
</event>
<event>
 8    1  0.1101883E+005  0.1043930E+01  0.7957747E-01            NaN
         13   -1    0    0    0    0  0.00000000000E+00  0.00000000000E+00  0.74505805969E-08  0.10566000000E+00  0.10566000000E+00 0. -1.
     999900   -1    0    0    0    0 -0.00000000000E+00 -0.00000000000E+00 -0.74505805969E-08  0.93827000000E+00  0.93827000000E+00 0.  1.
     999902    2    1    2    0    0 -0.17044953173E-02  0.19287943892E-01 -0.11327944016E-01  0.10214967122E+01  0.10212503516E+01 0.  0.
     999903    2    3    3    0    0 -0.17018529449E-01  0.10282758907E+00 -0.82721025233E-01  0.13452976585E+00  0.19807737495E-01 0.  0.
         14    1    1    2    0    0  0.17044953173E-02 -0.19287943892E-01  0.11327944016E-01  0.22433287755E-01  0.00000000000E+00 0. -1.
     999901    1    3    3    0    0  0.15314034132E-01 -0.83539645178E-01  0.71393081216E-01  0.88696694640E+00  0.88000000000E+00 0.  1.
        -11    1    4    4    0    0 -0.37400627880E-02  0.71884609153E-01 -0.61893238964E-01  0.94933762452E-01  0.51100000000E-03 0. -1.
         11    1    4    4    0    0 -0.13278466661E-01  0.30942979916E-01 -0.20827786269E-01  0.39596003395E-01  0.51100000000E-03 0.  1.
</event>
<event>
 8    1  0.1101883E+005  0.1043930E+01  0.7957747E-01            NaN
         13   -1    0    0    0    0  0.00000000000E+00  0.00000000000E+00  0.74505805969E-08  0.10566000000E+00  0.10566000000E+00 0. -1.
     999900   -1    0    0    0    0 -0.00000000000E+00 -0.00000000000E+00 -0.74505805969E-08  0.93827000000E+00  0.93827000000E+00 0.  1.
     999902    2    1    2    0    0  0.16578243434E-01 -0.43028379620E-02 -0.15637359992E-01  0.10207377686E+01  0.10204742587E+01 0.  0.
     999903    2    3    3    0    0 -0.89930542935E-01 -0.87119906652E-02  0.88904045841E-01  0.12816145940E+00  0.18921653615E-01 0.  0.
         14    1    1    2    0    0 -0.16578243434E-01  0.43028379620E-02  0.15637359992E-01  0.23192231402E-01  0.00000000000E+00 0. -1.
     999901    1    3    3    0    0  0.10650878637E+00  0.44091527031E-02 -0.10454140583E+00  0.89257630919E+00  0.88000000000E+00 0.  1.
        -11    1    4    4    0    0 -0.59024492979E-01 -0.14277557079E-01  0.54801403564E-01  0.81799721034E-01  0.51100000000E-03 0.  1.
         11    1    4    4    0    0 -0.30906049956E-01  0.55655664137E-02  0.34102642277E-01  0.46361738370E-01  0.51100000000E-03 0. -1.
</event>
<event>
 8    1  0.1101883E+005  0.1043930E+01  0.7957747E-01            NaN
         13   -1    0    0    0    0  0.00000000000E+00  0.00000000000E+00  0.74505805969E-08  0.10566000000E+00  0.10566000000E+00 0. -1.
     999900   -1    0    0    0    0 -0.00000000000E+00 -0.00000000000E+00 -0.74505805969E-08  0.93827000000E+00  0.93827000000E+00 0.  1.
     999902    2    1    2    0    0 -0.10322711896E-01  0.16560696899E-01  0.12705937082E-01  0.10206436113E+01  0.10203779326E+01 0.  0.
     999903    2    3    3    0    0 -0.67574712687E-01 -0.89717401330E-01 -0.61331779921E-01  0.12932189085E+00  0.18628213272E-01 0.  0.
         14    1    1    2    0    0  0.10322711896E-01 -0.16560696899E-01 -0.12705937082E-01  0.23286388723E-01  0.00000000000E+00 0.  1.
     999901    1    3    3    0    0  0.57252000791E-01  0.10627809823E+00  0.74037717003E-01  0.89132172042E+00  0.88000000000E+00 0. -1.
        -11    1    4    4    0    0 -0.23413737556E-01 -0.18160708108E-01 -0.18722827394E-01  0.35054526269E-01  0.51100000000E-03 0.  1.
         11    1    4    4    0    0 -0.44160975131E-01 -0.71556693222E-01 -0.42608952527E-01  0.94267364585E-01  0.51100000000E-03 0. -1.
</event>
<event>
 8    1  0.1101883E+005  0.1043930E+01  0.7957747E-01            NaN
         13   -1    0    0    0    0  0.00000000000E+00  0.00000000000E+00  0.74505805969E-08  0.10566000000E+00  0.10566000000E+00 0.  1.
     999900   -1    0    0    0    0 -0.00000000000E+00 -0.00000000000E+00 -0.74505805969E-08  0.93827000000E+00  0.93827000000E+00 0.  1.
     999902    2    1    2    0    0 -0.20357164222E-01 -0.11561756112E-01 -0.81818279381E-02  0.10191301885E+01  0.10188284009E+01 0.  0.
     999903    2    3    3    0    0  0.90667733613E-01  0.80789379461E-01  0.29933742024E-01  0.12654514674E+00  0.19237554433E-01 0.  0.
         14    1    1    2    0    0  0.20357164222E-01  0.11561756112E-01  0.81818279381E-02  0.24799811450E-01  0.00000000000E+00 0.  1.
     999901    1    3    3    0    0 -0.11102489784E+00 -0.92351135574E-01 -0.38115569962E-01  0.89258504181E+00  0.88000000000E+00 0.  1.
        -11    1    4    4    0    0  0.40590618690E-01  0.44822302321E-01  0.75094191526E-02  0.60936767292E-01  0.51100000000E-03 0. -1.
         11    1    4    4    0    0  0.50077114923E-01  0.35967077140E-01  0.22424322872E-01  0.65608379452E-01  0.51100000000E-03 0.  1.
</event>
<event>
 8    1  0.1101883E+005  0.1043930E+01  0.7957747E-01            NaN
         13   -1    0    0    0    0  0.00000000000E+00  0.00000000000E+00  0.74505805969E-08  0.10566000000E+00  0.10566000000E+00 0. -1.
     999900   -1    0    0    0    0 -0.00000000000E+00 -0.00000000000E+00 -0.74505805969E-08  0.93827000000E+00  0.93827000000E+00 0.  1.
     999902    2    1    2    0    0 -0.41259982681E-02  0.55176179487E-03  0.23346375804E-01  0.10202154145E+01  0.10199397582E+01 0.  0.
     999903    2    3    3    0    0  0.26375677749E-01  0.10375205575E+00  0.75037859800E-01  0.13215423280E+00  0.19336374890E-01 0.  0.
         14    1    1    2    0    0  0.41259982681E-02 -0.55176179487E-03 -0.23346375804E-01  0.23714585511E-01  0.00000000000E+00 0.  1.
     999901    1    3    3    0    0 -0.30501676017E-01 -0.10320029395E+00 -0.51691483996E-01  0.88806118169E+00  0.88000000000E+00 0.  1.
        -11    1    4    4    0    0 -0.39697532073E-03  0.28369626998E-01  0.24829598752E-01  0.37706278265E-01  0.51100000000E-03 0. -1.
         11    1    4    4    0    0  0.26772653070E-01  0.75382428750E-01  0.50208261048E-01  0.94447954531E-01  0.51100000000E-03 0.  1.
</event>
<event>
 8    1  0.1101883E+005  0.1043930E+01  0.7957747E-01            NaN
         13   -1    0    0    0    0  0.00000000000E+00  0.00000000000E+00  0.74505805969E-08  0.10566000000E+00  0.10566000000E+00 0.  1.
     999900   -1    0    0    0    0 -0.00000000000E+00 -0.00000000000E+00 -0.74505805969E-08  0.93827000000E+00  0.93827000000E+00 0. -1.
     999902    2    1    2    0    0  0.85616140451E-02  0.21228224536E-01 -0.65475889815E-02  0.10201222350E+01  0.10198443826E+01 0.  0.
     999903    2    3    3    0    0  0.10522687514E+00  0.49268270492E-01 -0.60977107981E-01  0.13271421758E+00  0.19869527419E-01 0.  0.
         14    1    1    2    0    0 -0.85616140451E-02 -0.21228224536E-01  0.65475889815E-02  0.23807764983E-01  0.00000000000E+00 0. -1.
     999901    1    3    3    0    0 -0.96665261096E-01 -0.28040045956E-01  0.54429519000E-01  0.88740801744E+00  0.88000000000E+00 0.  1.
        -11    1    4    4    0    0  0.31665100609E-01  0.58735956564E-02 -0.20675586139E-01  0.38274256436E-01  0.51100000000E-03 0. -1.
         11    1    4    4    0    0  0.73561774531E-01  0.43394674836E-01 -0.40301521842E-01  0.94439961140E-01  0.51100000000E-03 0.  1.
</event>
<event>
 8    1  0.1101883E+005  0.1043930E+01  0.7957747E-01            NaN
         13   -1    0    0    0    0  0.00000000000E+00  0.00000000000E+00  0.74505805969E-08  0.10566000000E+00  0.10566000000E+00 0. -1.
     999900   -1    0    0    0    0 -0.00000000000E+00 -0.00000000000E+00 -0.74505805969E-08  0.93827000000E+00  0.93827000000E+00 0.  1.
     999902    2    1    2    0    0  0.22813547166E-01  0.15356358621E-01 -0.28530625176E-02  0.10162819323E+01  0.10159057782E+01 0.  0.
     999903    2    3    3    0    0 -0.72508960527E-01  0.96920587053E-01  0.32623455194E-01  0.12667657754E+00  0.18207578536E-01 0.  0.
         14    1    1    2    0    0 -0.22813547166E-01 -0.15356358621E-01  0.28530625176E-02  0.27648067747E-01  0.00000000000E+00 0.  1.
     999901    1    3    3    0    0  0.95322507693E-01 -0.81564228432E-01 -0.35476517712E-01  0.88960535472E+00  0.88000000000E+00 0.  1.
        -11    1    4    4    0    0 -0.28895382384E-01  0.47919927067E-01  0.22432844662E-01  0.60288939067E-01  0.51100000000E-03 0.  1.
         11    1    4    4    0    0 -0.43613578143E-01  0.49000659986E-01  0.10190610532E-01  0.66387638469E-01  0.51100000000E-03 0. -1.
</event>
<event>
 8    1  0.1101883E+005  0.1043930E+01  0.7957747E-01            NaN
         13   -1    0    0    0    0  0.00000000000E+00  0.00000000000E+00  0.74505805969E-08  0.10566000000E+00  0.10566000000E+00 0. -1.
     999900   -1    0    0    0    0 -0.00000000000E+00 -0.00000000000E+00 -0.74505805969E-08  0.93827000000E+00  0.93827000000E+00 0.  1.
     999902    2    1    2    0    0 -0.89599476462E-02  0.94952605985E-02 -0.20157972106E-01  0.10199136623E+01  0.10196308617E+01 0.  0.
     999903    2    3    3    0    0 -0.57426734176E-01 -0.11498287461E+00  0.34672430489E-03  0.12959670859E+00  0.16622136110E-01 0.  0.
         14    1    1    2    0    0  0.89599476462E-02 -0.94952605985E-02  0.20157972106E-01  0.24016337670E-01  0.00000000000E+00 0. -1.
     999901    1    3    3    0    0  0.48466786529E-01  0.12447813521E+00 -0.20504696411E-01  0.89031695374E+00  0.88000000000E+00 0.  1.
        -11    1    4    4    0    0 -0.57652308822E-01 -0.11143781556E+00  0.23416487982E-02  0.12549071635E+00  0.51100000000E-03 0. -1.
         11    1    4    4    0    0  0.22557464650E-03 -0.35450590464E-02 -0.19949244933E-02  0.41059922427E-02  0.51100000000E-03 0.  1.
</event>
<event>
 8    1  0.1101883E+005  0.1043930E+01  0.7957747E-01            NaN
         13   -1    0    0    0    0  0.00000000000E+00  0.00000000000E+00  0.74505805969E-08  0.10566000000E+00  0.10566000000E+00 0.  1.
     999900   -1    0    0    0    0 -0.00000000000E+00 -0.00000000000E+00 -0.74505805969E-08  0.93827000000E+00  0.93827000000E+00 0. -1.
     999902    2    1    2    0    0  0.25590244255E-01 -0.18413193643E-02 -0.13214886398E-02  0.10182395856E+01  0.10179154466E+01 0.  0.
     999903    2    3    3    0    0 -0.11330892460E+00 -0.51481927714E-01  0.39656667107E-02  0.12594752408E+00  0.18914307674E-01 0.  0.
         14    1    1    2    0    0 -0.25590244255E-01  0.18413193643E-02  0.13214886398E-02  0.25690414366E-01  0.00000000000E+00 0.  1.
     999901    1    3    3    0    0  0.13889916885E+00  0.49640608350E-01 -0.52871553506E-02  0.89229206156E+00  0.88000000000E+00 0. -1.
        -11    1    4    4    0    0 -0.87602498758E-01 -0.48067608049E-01  0.21715510627E-02  0.99948334090E-01  0.51100000000E-03 0. -1.
         11    1    4    4    0    0 -0.25706425837E-01 -0.34143196649E-02  0.17941156480E-02  0.25999189988E-01  0.51100000000E-03 0.  1.
</event>
<event>
 8    1  0.1101883E+005  0.1043930E+01  0.7957747E-01            NaN
         13   -1    0    0    0    0  0.00000000000E+00  0.00000000000E+00  0.74505805969E-08  0.10566000000E+00  0.10566000000E+00 0. -1.
     999900   -1    0    0    0    0 -0.00000000000E+00 -0.00000000000E+00 -0.74505805969E-08  0.93827000000E+00  0.93827000000E+00 0. -1.
     999902    2    1    2    0    0  0.11883854723E-01  0.89568371682E-03 -0.20006394390E-01  0.10206430064E+01  0.10203773138E+01 0.  0.
     999903    2    3    3    0    0  0.11476034183E+00  0.17188198067E-01  0.57550950202E-01  0.13111270380E+00  0.20323853419E-01 0.  0.
         14    1    1    2    0    0 -0.11883854723E-01 -0.89568371682E-03  0.20006394390E-01  0.23286993556E-01  0.00000000000E+00 0. -1.
     999901    1    3    3    0    0 -0.10287648711E+00 -0.16292514350E-01 -0.77557344592E-01  0.88953030265E+00  0.88000000000E+00 0.  1.
        -11    1    4    4    0    0  0.87377105561E-01  0.21260240170E-01  0.40794848931E-01  0.98748352942E-01  0.51100000000E-03 0. -1.
         11    1    4    4    0    0  0.27383236272E-01 -0.40720421031E-02  0.16756101270E-01  0.32364350857E-01  0.51100000000E-03 0.  1.
</event>
<event>
 8    1  0.1101883E+005  0.1043930E+01  0.7957747E-01            NaN
         13   -1    0    0    0    0  0.00000000000E+00  0.00000000000E+00  0.74505805969E-08  0.10566000000E+00  0.10566000000E+00 0. -1.
     999900   -1    0    0    0    0 -0.00000000000E+00 -0.00000000000E+00 -0.74505805969E-08  0.93827000000E+00  0.93827000000E+00 0.  1.
     999902    2    1    2    0    0 -0.20679125509E-01  0.14703839851E-01 -0.11342534475E-01  0.10161364355E+01  0.10157562569E+01 0.  0.
     999903    2    3    3    0    0 -0.47678386541E-01  0.11639578255E+00 -0.24448123341E-01  0.12977196886E+00  0.20538900362E-01 0.  0.
         14    1    1    2    0    0  0.20679125509E-01 -0.14703839851E-01  0.11342534475E-01  0.27793564480E-01  0.00000000000E+00 0. -1.
     999901    1    3    3    0    0  0.26999261032E-01 -0.10169194270E+00  0.13105588866E-01  0.88636446666E+00  0.88000000000E+00 0.  1.
        -11    1    4    4    0    0 -0.44124502180E-01  0.10158436974E+00 -0.14812134351E-01  0.11174084442E+00  0.51100000000E-03 0. -1.
         11    1    4    4    0    0 -0.35538843609E-02  0.14811412808E-01 -0.96359889905E-02  0.18031124431E-01  0.51100000000E-03 0.  1.
</event>
<event>
 8    1  0.1101883E+005  0.1043930E+01  0.7957747E-01            NaN
         13   -1    0    0    0    0  0.00000000000E+00  0.00000000000E+00  0.74505805969E-08  0.10566000000E+00  0.10566000000E+00 0. -1.
     999900   -1    0    0    0    0 -0.00000000000E+00 -0.00000000000E+00 -0.74505805969E-08  0.93827000000E+00  0.93827000000E+00 0. -1.
     999902    2    1    2    0    0  0.77237532231E-02 -0.17629659910E-01  0.14219139467E-01  0.10199999937E+01  0.10197192467E+01 0.  0.
     999903    2    3    3    0    0  0.64985979365E-01 -0.94404458959E-01 -0.61487196528E-01  0.13157172898E+00  0.19876245751E-01 0.  0.
         14    1    1    2    0    0 -0.77237532231E-02  0.17629659910E-01 -0.14219139467E-01  0.23930006259E-01  0.00000000000E+00 0. -1.
     999901    1    3    3    0    0 -0.57262226142E-01  0.76774799049E-01  0.75706335994E-01  0.88842826476E+00  0.88000000000E+00 0. -1.
        -11    1    4    4    0    0  0.31898729489E-01 -0.63354722865E-01 -0.36693309700E-01  0.79862443927E-01  0.51100000000E-03 0. -1.
         11    1    4    4    0    0  0.33087249876E-01 -0.31049736095E-01 -0.24793886827E-01  0.51709285055E-01  0.51100000000E-03 0.  1.
</event>
<event>
 8    1  0.1101883E+005  0.1043930E+01  0.7957747E-01            NaN
         13   -1    0    0    0    0  0.00000000000E+00  0.00000000000E+00  0.74505805969E-08  0.10566000000E+00  0.10566000000E+00 0. -1.
     999900   -1    0    0    0    0 -0.00000000000E+00 -0.00000000000E+00 -0.74505805969E-08  0.93827000000E+00  0.93827000000E+00 0. -1.
     999902    2    1    2    0    0 -0.81735264633E-02 -0.67196913452E-03  0.22205496786E-01  0.10202584524E+01  0.10199838075E+01 0.  0.
     999903    2    3    3    0    0  0.34899558873E-01  0.75252930605E-02 -0.12070190190E+00  0.12765271057E+00  0.21252203362E-01 0.  0.
         14    1    1    2    0    0  0.81735264633E-02  0.67196913452E-03 -0.22205496786E-01  0.23671547581E-01  0.00000000000E+00 0.  1.
     999901    1    3    3    0    0 -0.43073085336E-01 -0.81972621950E-02  0.14290739869E+00  0.89260574185E+00  0.88000000000E+00 0.  1.
        -11    1    4    4    0    0  0.13108561466E-01 -0.15848002535E-02 -0.75520357938E-01  0.76667669585E-01  0.51100000000E-03 0.  1.
         11    1    4    4    0    0  0.21790997406E-01  0.91100933140E-02 -0.45181543963E-01  0.50985040983E-01  0.51100000000E-03 0. -1.
</event>
<event>
 8    1  0.1101883E+005  0.1043930E+01  0.7957747E-01            NaN
         13   -1    0    0    0    0  0.00000000000E+00  0.00000000000E+00  0.74505805969E-08  0.10566000000E+00  0.10566000000E+00 0.  1.
     999900   -1    0    0    0    0 -0.00000000000E+00 -0.00000000000E+00 -0.74505805969E-08  0.93827000000E+00  0.93827000000E+00 0.  1.
     999902    2    1    2    0    0 -0.18079379122E-01  0.57176749561E-02 -0.13948211784E-01  0.10203904935E+01  0.10201189395E+01 0.  0.
     999903    2    3    3    0    0  0.69949410536E-01 -0.89656458422E-01  0.55652486326E-01  0.12815198818E+00  0.19862836358E-01 0.  0.
         14    1    1    2    0    0  0.18079379122E-01 -0.57176749561E-02  0.13948211784E-01  0.23539506544E-01  0.00000000000E+00 0.  1.
     999901    1    3    3    0    0 -0.88028789659E-01  0.95374133378E-01 -0.69600698110E-01  0.89223850528E+00  0.88000000000E+00 0.  1.
        -11    1    4    4    0    0  0.10009537890E-01 -0.23882179210E-01  0.74743339872E-02  0.26956930874E-01  0.51100000000E-03 0. -1.
         11    1    4    4    0    0  0.59939872646E-01 -0.65774279212E-01  0.48178152338E-01  0.10119505730E+00  0.51100000000E-03 0.  1.
</event>
<event>
 8    1  0.1101883E+005  0.1043930E+01  0.7957747E-01            NaN
         13   -1    0    0    0    0  0.00000000000E+00  0.00000000000E+00  0.74505805969E-08  0.10566000000E+00  0.10566000000E+00 0. -1.
     999900   -1    0    0    0    0 -0.00000000000E+00 -0.00000000000E+00 -0.74505805969E-08  0.93827000000E+00  0.93827000000E+00 0. -1.
     999902    2    1    2    0    0  0.14146137044E-01  0.41336707202E-02 -0.21813133105E-01  0.10176048561E+01  0.10172642871E+01 0.  0.
     999903    2    3    3    0    0 -0.10184786287E+00 -0.62504244254E-01 -0.39148216698E-01  0.12732640253E+00  0.19991552963E-01 0.  0.
         14    1    1    2    0    0 -0.14146137044E-01 -0.41336707202E-02  0.21813133105E-01  0.26325143926E-01  0.00000000000E+00 0. -1.
     999901    1    3    3    0    0  0.11599399991E+00  0.66637914974E-01  0.17335083593E-01  0.89027845355E+00  0.88000000000E+00 0.  1.
        -11    1    4    4    0    0 -0.66926029890E-01 -0.51711093726E-01 -0.28534722537E-01  0.89261538203E-01  0.51100000000E-03 0. -1.
         11    1    4    4    0    0 -0.34921832976E-01 -0.10793150528E-01 -0.10613494161E-01  0.38064864324E-01  0.51100000000E-03 0.  1.
</event>
<event>
 8    1  0.1101883E+005  0.1043930E+01  0.7957747E-01            NaN
         13   -1    0    0    0    0  0.00000000000E+00  0.00000000000E+00  0.74505805969E-08  0.10566000000E+00  0.10566000000E+00 0. -1.
     999900   -1    0    0    0    0 -0.00000000000E+00 -0.00000000000E+00 -0.74505805969E-08  0.93827000000E+00  0.93827000000E+00 0. -1.
     999902    2    1    2    0    0  0.13851048580E-01  0.12619025190E-01 -0.13912420005E-01  0.10205923314E+01  0.10203254678E+01 0.  0.
     999903    2    3    3    0    0  0.51484959031E-01  0.11066884217E+00  0.46607063266E-01  0.13228344052E+00  0.20697745206E-01 0.  0.
         14    1    1    2    0    0 -0.13851048580E-01 -0.12619025190E-01  0.13912420005E-01  0.23337668562E-01  0.00000000000E+00 0.  1.
     999901    1    3    3    0    0 -0.37633910451E-01 -0.98049816979E-01 -0.60519483271E-01  0.88830889092E+00  0.88000000000E+00 0. -1.
        -11    1    4    4    0    0  0.13922461024E-01  0.42815227006E-01  0.26168446193E-01  0.52077128202E-01  0.51100000000E-03 0.  1.
         11    1    4    4    0    0  0.37562498007E-01  0.67853615163E-01  0.20438617072E-01  0.80206312320E-01  0.51100000000E-03 0. -1.
</event>
<event>
 8    1  0.1101883E+005  0.1043930E+01  0.7957747E-01            NaN
         13   -1    0    0    0    0  0.00000000000E+00  0.00000000000E+00  0.74505805969E-08  0.10566000000E+00  0.10566000000E+00 0. -1.
     999900   -1    0    0    0    0 -0.00000000000E+00 -0.00000000000E+00 -0.74505805969E-08  0.93827000000E+00  0.93827000000E+00 0.  1.
     999902    2    1    2    0    0 -0.15079295128E-01  0.10440736458E-01 -0.14915002259E-01  0.10202899617E+01  0.10200160560E+01 0.  0.
     999903    2    3    3    0    0 -0.59184430046E-01  0.87711443165E-01  0.75239812712E-01  0.13122083293E+00  0.19020608697E-01 0.  0.
         14    1    1    2    0    0  0.15079295128E-01 -0.10440736458E-01  0.14915002259E-01  0.23640038319E-01  0.00000000000E+00 0. -1.
     999901    1    3    3    0    0  0.44105134919E-01 -0.77270706707E-01 -0.90154814971E-01  0.88906912875E+00  0.88000000000E+00 0.  1.
        -11    1    4    4    0    0 -0.10493682421E-01  0.29016779890E-01  0.16767179290E-01  0.35121080682E-01  0.51100000000E-03 0.  1.
         11    1    4    4    0    0 -0.48690747626E-01  0.58694663275E-01  0.58472633422E-01  0.96099752245E-01  0.51100000000E-03 0. -1.
</event>
<event>
 8    1  0.1101883E+005  0.1043930E+01  0.7957747E-01            NaN
         13   -1    0    0    0    0  0.00000000000E+00  0.00000000000E+00  0.74505805969E-08  0.10566000000E+00  0.10566000000E+00 0. -1.
     999900   -1    0    0    0    0 -0.00000000000E+00 -0.00000000000E+00 -0.74505805969E-08  0.93827000000E+00  0.93827000000E+00 0. -1.
     999902    2    1    2    0    0 -0.44240774983E-02 -0.10777449387E-01  0.19860186128E-01  0.10209049512E+01  0.10206452697E+01 0.  0.
     999903    2    3    3    0    0  0.29744246827E-01  0.98613934427E-01 -0.74290955267E-01  0.12849339447E+00  0.19544260179E-01 0.  0.
         14    1    1    2    0    0  0.44240774983E-02  0.10777449387E-01 -0.19860186128E-01  0.23025048752E-01  0.00000000000E+00 0.  1.
     999901    1    3    3    0    0 -0.34168324325E-01 -0.10939138381E+00  0.94151141396E-01  0.89241155678E+00  0.88000000000E+00 0.  1.
        -11    1    4    4    0    0  0.13813684199E-01  0.31457079758E-01 -0.14960641766E-01  0.37475961110E-01  0.51100000000E-03 0. -1.
         11    1    4    4    0    0  0.15930562628E-01  0.67156854670E-01 -0.59330313502E-01  0.91017433363E-01  0.51100000000E-03 0.  1.
</event>
<event>
 8    1  0.1101883E+005  0.1043930E+01  0.7957747E-01            NaN
         13   -1    0    0    0    0  0.00000000000E+00  0.00000000000E+00  0.74505805969E-08  0.10566000000E+00  0.10566000000E+00 0.  1.
     999900   -1    0    0    0    0 -0.00000000000E+00 -0.00000000000E+00 -0.74505805969E-08  0.93827000000E+00  0.93827000000E+00 0.  1.
     999902    2    1    2    0    0  0.14865169268E-01 -0.82617494298E-02  0.17970386647E-01  0.10191880406E+01  0.10188876766E+01 0.  0.
     999903    2    3    3    0    0  0.37375783297E-01 -0.10860436902E+00  0.61431723210E-01  0.13213434611E+00  0.22220950874E-01 0.  0.
         14    1    1    2    0    0 -0.14865169268E-01  0.82617494298E-02 -0.17970386647E-01  0.24741959447E-01  0.00000000000E+00 0. -1.
     999901    1    3    3    0    0 -0.22510614029E-01  0.10034261959E+00 -0.43461336562E-01  0.88705369444E+00  0.88000000000E+00 0. -1.
        -11    1    4    4    0    0  0.22811304965E-01 -0.91974810639E-01  0.47516620681E-01  0.10600854583E+00  0.51100000000E-03 0. -1.
         11    1    4    4    0    0  0.14564478331E-01 -0.16629558383E-01  0.13915102529E-01  0.26125800283E-01  0.51100000000E-03 0.  1.
</event>
<event>
 8    1  0.1101883E+005  0.1043930E+01  0.7957747E-01            NaN
         13   -1    0    0    0    0  0.00000000000E+00  0.00000000000E+00  0.74505805969E-08  0.10566000000E+00  0.10566000000E+00 0.  1.
     999900   -1    0    0    0    0 -0.00000000000E+00 -0.00000000000E+00 -0.74505805969E-08  0.93827000000E+00  0.93827000000E+00 0. -1.
     999902    2    1    2    0    0 -0.52747940755E-02 -0.95390923619E-02  0.21692849260E-01  0.10196524910E+01  0.10193634312E+01 0.  0.
     999903    2    3    3    0    0 -0.89581201270E-01 -0.17841527813E-01 -0.88506665981E-01  0.12874259997E+00  0.19952829066E-01 0.  0.
         14    1    1    2    0    0  0.52747940755E-02  0.95390923619E-02 -0.21692849260E-01  0.24277509029E-01  0.00000000000E+00 0. -1.
     999901    1    3    3    0    0  0.84306407194E-01  0.83024354513E-02  0.11019951524E+00  0.89090989100E+00  0.88000000000E+00 0.  1.
        -11    1    4    4    0    0 -0.31428482974E-01 -0.27849206106E-02 -0.43212814844E-01  0.53508072406E-01  0.51100000000E-03 0.  1.
         11    1    4    4    0    0 -0.58152718295E-01 -0.15056607203E-01 -0.45293851137E-01  0.75234527562E-01  0.51100000000E-03 0. -1.
</event>
<event>
 8    1  0.1101883E+005  0.1043930E+01  0.7957747E-01            NaN
         13   -1    0    0    0    0  0.00000000000E+00  0.00000000000E+00  0.74505805969E-08  0.10566000000E+00  0.10566000000E+00 0. -1.
     999900   -1    0    0    0    0 -0.00000000000E+00 -0.00000000000E+00 -0.74505805969E-08  0.93827000000E+00  0.93827000000E+00 0.  1.
     999902    2    1    2    0    0 -0.77877670946E-02  0.18791703927E-02 -0.22771759059E-01  0.10197901241E+01  0.10195043715E+01 0.  0.
     999903    2    3    3    0    0  0.73220892007E-01  0.39125446169E-01  0.94923177148E-01  0.12748872552E+00  0.18731417725E-01 0.  0.
         14    1    1    2    0    0  0.77877670946E-02 -0.18791703927E-02  0.22771759059E-01  0.24139875897E-01  0.00000000000E+00 0. -1.
     999901    1    3    3    0    0 -0.81008659102E-01 -0.37246275776E-01 -0.11769493621E+00  0.89230139859E+00  0.88000000000E+00 0.  1.
        -11    1    4    4    0    0  0.25889435415E-01  0.21334443036E-01  0.47567442413E-01  0.58209483973E-01  0.51100000000E-03 0.  1.
         11    1    4    4    0    0  0.47331456592E-01  0.17791003133E-01  0.47355734735E-01  0.69279241544E-01  0.51100000000E-03 0. -1.
</event>
<event>
 8    1  0.1101883E+005  0.1043930E+01  0.7957747E-01            NaN
         13   -1    0    0    0    0  0.00000000000E+00  0.00000000000E+00  0.74505805969E-08  0.10566000000E+00  0.10566000000E+00 0.  1.
     999900   -1    0    0    0    0 -0.00000000000E+00 -0.00000000000E+00 -0.74505805969E-08  0.93827000000E+00  0.93827000000E+00 0. -1.
     999902    2    1    2    0    0  0.12600654513E-01  0.99791866047E-02 -0.17520430441E-01  0.10201534119E+01  0.10198762953E+01 0.  0.
     999903    2    3    3    0    0  0.12144753292E+00  0.48398160993E-01  0.37783445180E-02  0.13235991205E+00  0.20322037077E-01 0.  0.
         14    1    1    2    0    0 -0.12600654513E-01 -0.99791866047E-02  0.17520430441E-01  0.23776588113E-01  0.00000000000E+00 0.  1.
     999901    1    3    3    0    0 -0.10884687841E+00 -0.38418974389E-01 -0.21298774959E-01  0.88779349983E+00  0.88000000000E+00 0.  1.
        -11    1    4    4    0    0  0.58990083016E-01  0.30410637118E-01 -0.59596788575E-02  0.66636443762E-01  0.51100000000E-03 0. -1.
         11    1    4    4    0    0  0.62457449906E-01  0.17987523876E-01  0.97380233755E-02  0.65723468291E-01  0.51100000000E-03 0.  1.
</event>
<event>
 8    1  0.1101883E+005  0.1043930E+01  0.7957747E-01            NaN
         13   -1    0    0    0    0  0.00000000000E+00  0.00000000000E+00  0.74505805969E-08  0.10566000000E+00  0.10566000000E+00 0. -1.
     999900   -1    0    0    0    0 -0.00000000000E+00 -0.00000000000E+00 -0.74505805969E-08  0.93827000000E+00  0.93827000000E+00 0.  1.
     999902    2    1    2    0    0 -0.15821350350E-01  0.18844990196E-02 -0.22239163655E-01  0.10165722431E+01  0.10162040536E+01 0.  0.
     999903    2    3    3    0    0  0.17311796701E-01 -0.12166706590E+00  0.21158900462E-01  0.12626544956E+00  0.19816444026E-01 0.  0.
         14    1    1    2    0    0  0.15821350350E-01 -0.18844990196E-02  0.22239163655E-01  0.27357756917E-01  0.00000000000E+00 0. -1.
     999901    1    3    3    0    0 -0.33133147051E-01  0.12355156492E+00 -0.43398064117E-01  0.89030679352E+00  0.88000000000E+00 0. -1.
        -11    1    4    4    0    0  0.68451768136E-02 -0.64773320321E-01  0.20923786464E-01  0.68414219516E-01  0.51100000000E-03 0.  1.
         11    1    4    4    0    0  0.10466619888E-01 -0.56893745579E-01  0.23511399804E-03  0.57851230043E-01  0.51100000000E-03 0. -1.
</event>
<event>
 8    1  0.1101883E+005  0.1043930E+01  0.7957747E-01            NaN
         13   -1    0    0    0    0  0.00000000000E+00  0.00000000000E+00  0.74505805969E-08  0.10566000000E+00  0.10566000000E+00 0. -1.
     999900   -1    0    0    0    0 -0.00000000000E+00 -0.00000000000E+00 -0.74505805969E-08  0.93827000000E+00  0.93827000000E+00 0.  1.
     999902    2    1    2    0    0 -0.23750385187E-01  0.14834968753E-02 -0.20157866376E-02  0.10200481040E+01  0.10197684980E+01 0.  0.
     999903    2    3    3    0    0 -0.33892085838E-01 -0.15255749435E-01  0.12378258460E+00  0.13088654016E+00  0.20682039785E-01 0.  0.
         14    1    1    2    0    0  0.23750385187E-01 -0.14834968753E-02  0.20157866376E-02  0.23881895973E-01  0.00000000000E+00 0. -1.
     999901    1    3    3    0    0  0.10141700651E-01  0.16739246310E-01 -0.12579837124E+00  0.88916156387E+00  0.88000000000E+00 0.  1.
        -11    1    4    4    0    0 -0.24857644445E-01 -0.14940950401E-01  0.62071042656E-01  0.68514304664E-01  0.51100000000E-03 0.  1.
         11    1    4    4    0    0 -0.90344413935E-02 -0.31479903314E-03  0.61711541947E-01  0.62372235491E-01  0.51100000000E-03 0. -1.
</event>
<event>
 8    1  0.1101883E+005  0.1043930E+01  0.7957747E-01            NaN
         13   -1    0    0    0    0  0.00000000000E+00  0.00000000000E+00  0.74505805969E-08  0.10566000000E+00  0.10566000000E+00 0. -1.
     999900   -1    0    0    0    0 -0.00000000000E+00 -0.00000000000E+00 -0.74505805969E-08  0.93827000000E+00  0.93827000000E+00 0.  1.
     999902    2    1    2    0    0 -0.19282669684E-01 -0.12238202907E-01 -0.21058136975E-01  0.10128649055E+01  0.10123884021E+01 0.  0.
     999903    2    3    3    0    0  0.96377445753E-01  0.69627308438E-01 -0.14588528140E-01  0.12150578595E+00  0.20353297907E-01 0.  0.
         14    1    1    2    0    0  0.19282669684E-01  0.12238202907E-01  0.21058136975E-01  0.31065094453E-01  0.00000000000E+00 0. -1.
     999901    1    3    3    0    0 -0.11566011544E+00 -0.81865511345E-01 -0.64696088354E-02  0.89135911960E+00  0.88000000000E+00 0.  1.
        -11    1    4    4    0    0  0.61643158732E-01  0.50695724541E-01 -0.14746662852E-02  0.79827133650E-01  0.51100000000E-03 0.  1.
         11    1    4    4    0    0  0.34734287021E-01  0.18931583897E-01 -0.13113861854E-01  0.41678652299E-01  0.51100000000E-03 0. -1.
</event>
<event>
 8    1  0.1101883E+005  0.1043930E+01  0.7957747E-01            NaN
         13   -1    0    0    0    0  0.00000000000E+00  0.00000000000E+00  0.74505805969E-08  0.10566000000E+00  0.10566000000E+00 0. -1.
     999900   -1    0    0    0    0 -0.00000000000E+00 -0.00000000000E+00 -0.74505805969E-08  0.93827000000E+00  0.93827000000E+00 0. -1.
     999902    2    1    2    0    0 -0.20735448590E-01 -0.60692812526E-02  0.15874468018E-01  0.10171196711E+01  0.10167662620E+01 0.  0.
     999903    2    3    3    0    0 -0.11728967654E+00 -0.53481889117E-01 -0.20530031825E-02  0.13038855705E+00  0.19487952767E-01 0.  0.
         14    1    1    2    0    0  0.20735448590E-01  0.60692812526E-02 -0.15874468018E-01  0.26810328942E-01  0.00000000000E+00 0.  1.
     999901    1    3    3    0    0  0.96554227947E-01  0.47412607864E-01  0.17927471201E-01  0.88673111400E+00  0.88000000000E+00 0.  1.
        -11    1    4    4    0    0 -0.53957414276E-01 -0.14716774534E-01  0.25600180078E-02  0.55989292023E-01  0.51100000000E-03 0.  1.
         11    1    4    4    0    0 -0.63332262260E-01 -0.38765114583E-01 -0.46130211902E-02  0.74399265031E-01  0.51100000000E-03 0. -1.
</event>
<event>
 8    1  0.1101883E+005  0.1043930E+01  0.7957747E-01            NaN
         13   -1    0    0    0    0  0.00000000000E+00  0.00000000000E+00  0.74505805969E-08  0.10566000000E+00  0.10566000000E+00 0. -1.
     999900   -1    0    0    0    0 -0.00000000000E+00 -0.00000000000E+00 -0.74505805969E-08  0.93827000000E+00  0.93827000000E+00 0.  1.
     999902    2    1    2    0    0  0.12644446348E-01 -0.13742982634E-01 -0.14833210700E-01  0.10200809804E+01  0.10198021528E+01 0.  0.
     999903    2    3    3    0    0  0.48759987914E-01  0.10120412661E+00  0.59873958793E-01  0.12873462157E+00  0.19180724309E-01 0.  0.
         14    1    1    2    0    0 -0.12644446348E-01  0.13742982634E-01  0.14833210700E-01  0.23849019577E-01  0.00000000000E+00 0. -1.
     999901    1    3    3    0    0 -0.36115541566E-01 -0.11494710924E+00 -0.74707169493E-01  0.89134635885E+00  0.88000000000E+00 0. -1.
        -11    1    4    4    0    0  0.45504727860E-01  0.79268041377E-01  0.43891717762E-01  0.10139450996E+00  0.51100000000E-03 0.  1.
         11    1    4    4    0    0  0.32552600537E-02  0.21936085233E-01  0.15982241030E-01  0.27340111608E-01  0.51100000000E-03 0. -1.
</event>
<event>
 8    1  0.1101883E+005  0.1043930E+01  0.7957747E-01            NaN
         13   -1    0    0    0    0  0.00000000000E+00  0.00000000000E+00  0.74505805969E-08  0.10566000000E+00  0.10566000000E+00 0. -1.
     999900   -1    0    0    0    0 -0.00000000000E+00 -0.00000000000E+00 -0.74505805969E-08  0.93827000000E+00  0.93827000000E+00 0.  1.
     999902    2    1    2    0    0  0.21478643908E-01  0.71809370105E-02  0.68918275452E-02  0.10202573304E+01  0.10199826591E+01 0.  0.
     999903    2    3    3    0    0 -0.20591621419E-01  0.11885332895E+00  0.47792499178E-01  0.13126155125E+00  0.19883238791E-01 0.  0.
         14    1    1    2    0    0 -0.21478643908E-01 -0.71809370105E-02 -0.68918275452E-02  0.23672669629E-01  0.00000000000E+00 0.  1.
     999901    1    3    3    0    0  0.42070265326E-01 -0.11167239194E+00 -0.40900671632E-01  0.88899577912E+00  0.88000000000E+00 0. -1.
        -11    1    4    4    0    0 -0.16449189002E-01  0.84055676253E-01  0.24169507608E-01  0.88996397389E-01  0.51100000000E-03 0. -1.
         11    1    4    4    0    0 -0.41424324165E-02  0.34797652698E-01  0.23622991570E-01  0.42265153866E-01  0.51100000000E-03 0.  1.
</event>
<event>
 8    1  0.1101883E+005  0.1043930E+01  0.7957747E-01            NaN
         13   -1    0    0    0    0  0.00000000000E+00  0.00000000000E+00  0.74505805969E-08  0.10566000000E+00  0.10566000000E+00 0.  1.
     999900   -1    0    0    0    0 -0.00000000000E+00 -0.00000000000E+00 -0.74505805969E-08  0.93827000000E+00  0.93827000000E+00 0. -1.
     999902    2    1    2    0    0  0.15908583305E-01 -0.11805144104E-01 -0.14242340840E-01  0.10195314606E+01  0.10192394765E+01 0.  0.
     999903    2    3    3    0    0  0.94233904264E-01  0.77257365256E-01  0.39392275355E-01  0.12995647306E+00  0.22095346433E-01 0.  0.
         14    1    1    2    0    0 -0.15908583305E-01  0.11805144104E-01  0.14242340840E-01  0.24398539356E-01  0.00000000000E+00 0.  1.
     999901    1    3    3    0    0 -0.78325320960E-01 -0.89062509360E-01 -0.53634616195E-01  0.88957498758E+00  0.88000000000E+00 0. -1.
        -11    1    4    4    0    0  0.66655064549E-01  0.44575024927E-01  0.33008649315E-01  0.86715987729E-01  0.51100000000E-03 0. -1.
         11    1    4    4    0    0  0.27578839715E-01  0.32682340329E-01  0.63836260400E-02  0.43240485333E-01  0.51100000000E-03 0.  1.
</event>
<event>
 8    1  0.1101883E+005  0.1043930E+01  0.7957747E-01            NaN
         13   -1    0    0    0    0  0.00000000000E+00  0.00000000000E+00  0.74505805969E-08  0.10566000000E+00  0.10566000000E+00 0. -1.
     999900   -1    0    0    0    0 -0.00000000000E+00 -0.00000000000E+00 -0.74505805969E-08  0.93827000000E+00  0.93827000000E+00 0. -1.
     999902    2    1    2    0    0  0.22053401123E-01 -0.22927055402E-02  0.63502140449E-02  0.10208663009E+01  0.10206057368E+01 0.  0.
     999903    2    3    3    0    0 -0.64149273454E-01  0.25268669984E-01  0.10894605098E+00  0.13029545231E+00  0.18815629147E-01 0.  0.
         14    1    1    2    0    0 -0.22053401123E-01  0.22927055402E-02 -0.63502140449E-02  0.23063699144E-01  0.00000000000E+00 0.  1.
     999901    1    3    3    0    0  0.86202674578E-01 -0.27561375524E-01 -0.10259583694E+00  0.89057084855E+00  0.88000000000E+00 0. -1.
        -11    1    4    4    0    0 -0.42726506294E-01  0.26014426996E-01  0.76466495118E-01  0.91376642249E-01  0.51100000000E-03 0.  1.
         11    1    4    4    0    0 -0.21422767160E-01 -0.74575701241E-03  0.32479555865E-01  0.38918810060E-01  0.51100000000E-03 0. -1.
</event>
<event>
 8    1  0.1101883E+005  0.1043930E+01  0.7957747E-01            NaN
         13   -1    0    0    0    0  0.00000000000E+00  0.00000000000E+00  0.74505805969E-08  0.10566000000E+00  0.10566000000E+00 0.  1.
     999900   -1    0    0    0    0 -0.00000000000E+00 -0.00000000000E+00 -0.74505805969E-08  0.93827000000E+00  0.93827000000E+00 0.  1.
     999902    2    1    2    0    0 -0.14332850396E-01  0.15755927821E-01 -0.70516327007E-02  0.10214933027E+01  0.10212468664E+01 0.  0.
     999903    2    3    3    0    0 -0.51210804181E-01 -0.82575086262E-01  0.84741831345E-01  0.13050788652E+00  0.20246953545E-01 0.  0.
         14    1    1    2    0    0  0.14332850396E-01 -0.15755927821E-01  0.70516327007E-02  0.22436697300E-01  0.00000000000E+00 0.  1.
     999901    1    3    3    0    0  0.36877953784E-01  0.98331014083E-01 -0.91793464046E-01  0.89098541618E+00  0.88000000000E+00 0.  1.
        -11    1    4    4    0    0 -0.48354712193E-01 -0.71646843449E-01  0.66555716059E-01  0.10909341331E+00  0.51100000000E-03 0.  1.
         11    1    4    4    0    0 -0.28560919876E-02 -0.10928242814E-01  0.18186115286E-01  0.21414473204E-01  0.51100000000E-03 0. -1.
</event>
<event>
 8    1  0.1101883E+005  0.1043930E+01  0.7957747E-01            NaN
         13   -1    0    0    0    0  0.00000000000E+00  0.00000000000E+00  0.74505805969E-08  0.10566000000E+00  0.10566000000E+00 0.  1.
     999900   -1    0    0    0    0 -0.00000000000E+00 -0.00000000000E+00 -0.74505805969E-08  0.93827000000E+00  0.93827000000E+00 0.  1.
     999902    2    1    2    0    0 -0.23050798257E-01  0.17002892012E-02  0.53356117664E-02  0.10202087219E+01  0.10199329081E+01 0.  0.
     999903    2    3    3    0    0  0.10148868608E+00 -0.39951368397E-02 -0.75049530228E-01  0.12779385640E+00  0.19568424216E-01 0.  0.
         14    1    1    2    0    0  0.23050798257E-01 -0.17002892012E-02 -0.53356117664E-02  0.23721278139E-01  0.00000000000E+00 0. -1.
     999901    1    3    3    0    0 -0.12453948434E+00  0.56954260409E-02  0.80385141994E-01  0.89241486546E+00  0.88000000000E+00 0. -1.
        -11    1    4    4    0    0  0.16407492546E-01 -0.70147338037E-02 -0.87111920188E-02  0.19863491369E-01  0.51100000000E-03 0. -1.
         11    1    4    4    0    0  0.85081193534E-01  0.30195969640E-02 -0.66338338209E-01  0.10793036503E+00  0.51100000000E-03 0.  1.
</event>
<event>
 8    1  0.1101883E+005  0.1043930E+01  0.7957747E-01            NaN
         13   -1    0    0    0    0  0.00000000000E+00  0.00000000000E+00  0.74505805969E-08  0.10566000000E+00  0.10566000000E+00 0. -1.
     999900   -1    0    0    0    0 -0.00000000000E+00 -0.00000000000E+00 -0.74505805969E-08  0.93827000000E+00  0.93827000000E+00 0. -1.
     999902    2    1    2    0    0 -0.32551498987E-01 -0.36599159623E-02 -0.58904714372E-02  0.10106479820E+01  0.10100998222E+01 0.  0.
     999903    2    3    3    0    0 -0.98931884445E-01 -0.12948251809E-01  0.71931819905E-01  0.12467454117E+00  0.20356313903E-01 0.  0.
         14    1    1    2    0    0  0.32551498987E-01  0.36599159623E-02  0.58904714372E-02  0.33282018042E-01  0.00000000000E+00 0.  1.
     999901    1    3    3    0    0  0.66380385458E-01  0.92883358470E-02 -0.77822291342E-01  0.88597344079E+00  0.88000000000E+00 0. -1.
        -11    1    4    4    0    0 -0.22778932776E-01 -0.55656572447E-02  0.27705549699E-01  0.36300343306E-01  0.51100000000E-03 0. -1.
         11    1    4    4    0    0 -0.76152951669E-01 -0.73825945646E-02  0.44226270206E-01  0.88374197862E-01  0.51100000000E-03 0.  1.
</event>
<event>
 8    1  0.1101883E+005  0.1043930E+01  0.7957747E-01            NaN
         13   -1    0    0    0    0  0.00000000000E+00  0.00000000000E+00  0.74505805969E-08  0.10566000000E+00  0.10566000000E+00 0. -1.
     999900   -1    0    0    0    0 -0.00000000000E+00 -0.00000000000E+00 -0.74505805969E-08  0.93827000000E+00  0.93827000000E+00 0. -1.
     999902    2    1    2    0    0  0.12783468327E-01  0.13283501598E-01  0.14816601756E-01  0.10202783581E+01  0.10200041803E+01 0.  0.
     999903    2    3    3    0    0 -0.38895164491E-01  0.17966471027E-01  0.12354819806E+00  0.13206938982E+00  0.18507797866E-01 0.  0.
         14    1    1    2    0    0 -0.12783468327E-01 -0.13283501598E-01 -0.14816601756E-01  0.23651641904E-01  0.00000000000E+00 0.  1.
     999901    1    3    3    0    0  0.51678632818E-01 -0.46829694286E-02 -0.10873159630E+00  0.88820896828E+00  0.88000000000E+00 0. -1.
        -11    1    4    4    0    0 -0.85170065265E-02 -0.31766903142E-02  0.33376675374E-01  0.34596160792E-01  0.51100000000E-03 0.  1.
         11    1    4    4    0    0 -0.30378157965E-01  0.21143161341E-01  0.90171522684E-01  0.97473229027E-01  0.51100000000E-03 0. -1.
</event>
<event>
 8    1  0.1101883E+005  0.1043930E+01  0.7957747E-01            NaN
         13   -1    0    0    0    0  0.00000000000E+00  0.00000000000E+00  0.74505805969E-08  0.10566000000E+00  0.10566000000E+00 0.  1.
     999900   -1    0    0    0    0 -0.00000000000E+00 -0.00000000000E+00 -0.74505805969E-08  0.93827000000E+00  0.93827000000E+00 0. -1.
     999902    2    1    2    0    0  0.10880888928E-01  0.17238275855E-01 -0.85666687353E-02  0.10218180188E+01  0.10215787409E+01 0.  0.
     999903    2    3    3    0    0 -0.70427935114E-02  0.55684693770E-01  0.11762852695E+00  0.13180419148E+00  0.19633860559E-01 0.  0.
         14    1    1    2    0    0 -0.10880888928E-01 -0.17238275855E-01  0.85666687353E-02  0.22111981176E-01  0.00000000000E+00 0. -1.
     999901    1    3    3    0    0  0.17923682440E-01 -0.38446417915E-01 -0.12619519568E+00  0.89001382734E+00  0.88000000000E+00 0. -1.
        -11    1    4    4    0    0 -0.98582595418E-02  0.14684262509E-01  0.26860933789E-01  0.32164945697E-01  0.51100000000E-03 0.  1.
         11    1    4    4    0    0  0.28154660304E-02  0.41000431261E-01  0.90767593157E-01  0.99639245788E-01  0.51100000000E-03 0. -1.
</event>
<event>
 8    1  0.1101883E+005  0.1043930E+01  0.7957747E-01            NaN
         13   -1    0    0    0    0  0.00000000000E+00  0.00000000000E+00  0.74505805969E-08  0.10566000000E+00  0.10566000000E+00 0. -1.
     999900   -1    0    0    0    0 -0.00000000000E+00 -0.00000000000E+00 -0.74505805969E-08  0.93827000000E+00  0.93827000000E+00 0. -1.
     999902    2    1    2    0    0  0.11458717264E-01  0.20167106669E-01  0.53204960252E-02  0.10201324776E+01  0.10198548671E+01 0.  0.
     999903    2    3    3    0    0 -0.66788530993E-01  0.22017910067E-01  0.10827994214E+00  0.13067944072E+00  0.20176077941E-01 0.  0.
         14    1    1    2    0    0 -0.11458717264E-01 -0.20167106669E-01 -0.53204960252E-02  0.23797522364E-01  0.00000000000E+00 0.  1.
     999901    1    3    3    0    0  0.78247248257E-01 -0.18508033984E-02 -0.10295944612E+00  0.88945303692E+00  0.88000000000E+00 0.  1.
        -11    1    4    4    0    0 -0.51542025267E-01  0.22029840348E-01  0.71444650598E-01  0.90810205674E-01  0.51100000000E-03 0. -1.
         11    1    4    4    0    0 -0.15246505726E-01 -0.11930280955E-04  0.36835291543E-01  0.39869235047E-01  0.51100000000E-03 0.  1.
</event>
<event>
 8    1  0.1101883E+005  0.1043930E+01  0.7957747E-01            NaN
         13   -1    0    0    0    0  0.00000000000E+00  0.00000000000E+00  0.74505805969E-08  0.10566000000E+00  0.10566000000E+00 0.  1.
     999900   -1    0    0    0    0 -0.00000000000E+00 -0.00000000000E+00 -0.74505805969E-08  0.93827000000E+00  0.93827000000E+00 0. -1.
     999902    2    1    2    0    0 -0.20006274514E-01  0.10075441612E-01  0.20793700366E-01  0.10133662385E+01  0.10129052225E+01 0.  0.
     999903    2    3    3    0    0  0.22453671353E-01  0.99408620397E-01  0.72077709800E-01  0.12634125943E+00  0.19510930700E-01 0.  0.
         14    1    1    2    0    0  0.20006274514E-01 -0.10075441612E-01 -0.20793700366E-01  0.30563761524E-01  0.00000000000E+00 0.  1.
     999901    1    3    3    0    0 -0.42459945867E-01 -0.89333178785E-01 -0.51284009435E-01  0.88702497905E+00  0.88000000000E+00 0. -1.
        -11    1    4    4    0    0  0.23379408848E-01  0.68944042164E-01  0.56203566734E-01  0.91972711946E-01  0.51100000000E-03 0. -1.
         11    1    4    4    0    0 -0.92573749449E-03  0.30464578233E-01  0.15874143066E-01  0.34368547480E-01  0.51100000000E-03 0.  1.
</event>
<event>
 8    1  0.1101883E+005  0.1043930E+01  0.7957747E-01            NaN
         13   -1    0    0    0    0  0.00000000000E+00  0.00000000000E+00  0.74505805969E-08  0.10566000000E+00  0.10566000000E+00 0.  1.
     999900   -1    0    0    0    0 -0.00000000000E+00 -0.00000000000E+00 -0.74505805969E-08  0.93827000000E+00  0.93827000000E+00 0.  1.
     999902    2    1    2    0    0 -0.95054095383E-02  0.20927312088E-01  0.48662876112E-02  0.10204356186E+01  0.10201651169E+01 0.  0.
     999903    2    3    3    0    0  0.21298212007E-01 -0.11015792128E+00 -0.58240163431E-01  0.12795893787E+00  0.19829061739E-01 0.  0.
         14    1    1    2    0    0  0.95054095383E-02 -0.20927312088E-01 -0.48662876112E-02  0.23494381389E-01  0.00000000000E+00 0.  1.
     999901    1    3    3    0    0 -0.30803621545E-01  0.13108523336E+00  0.63106451042E-01  0.89247668074E+00  0.88000000000E+00 0. -1.
        -11    1    4    4    0    0  0.39139483884E-02 -0.17634918852E-01 -0.17216187332E-02  0.18153083677E-01  0.51100000000E-03 0. -1.
         11    1    4    4    0    0  0.17384263618E-01 -0.92523002424E-01 -0.56518544698E-01  0.10980585419E+00  0.51100000000E-03 0.  1.
</event>
<event>
 8    1  0.1101883E+005  0.1043930E+01  0.7957747E-01            NaN
         13   -1    0    0    0    0  0.00000000000E+00  0.00000000000E+00  0.74505805969E-08  0.10566000000E+00  0.10566000000E+00 0. -1.
     999900   -1    0    0    0    0 -0.00000000000E+00 -0.00000000000E+00 -0.74505805969E-08  0.93827000000E+00  0.93827000000E+00 0. -1.
     999902    2    1    2    0    0  0.16087823721E-01 -0.60987150747E-02  0.16366313401E-01  0.10201840822E+01  0.10199076885E+01 0.  0.
     999903    2    3    3    0    0  0.92791790075E-01  0.42983352981E-01  0.82666208199E-01  0.13300415462E+00  0.19962921362E-01 0.  0.
         14    1    1    2    0    0 -0.16087823721E-01  0.60987150747E-02 -0.16366313401E-01  0.23745917796E-01  0.00000000000E+00 0.  1.
     999901    1    3    3    0    0 -0.76703966354E-01 -0.49082068056E-01 -0.66299894799E-01  0.88717992758E+00  0.88000000000E+00 0. -1.
        -11    1    4    4    0    0  0.32274653007E-01  0.19416796825E-01  0.19543094946E-01  0.42436527977E-01  0.51100000000E-03 0.  1.
         11    1    4    4    0    0  0.60517137068E-01  0.23566556157E-01  0.63123113253E-01  0.90567626643E-01  0.51100000000E-03 0. -1.
</event>
<event>
 8    1  0.1101883E+005  0.1043930E+01  0.7957747E-01            NaN
         13   -1    0    0    0    0  0.00000000000E+00  0.00000000000E+00  0.74505805969E-08  0.10566000000E+00  0.10566000000E+00 0.  1.
     999900   -1    0    0    0    0 -0.00000000000E+00 -0.00000000000E+00 -0.74505805969E-08  0.93827000000E+00  0.93827000000E+00 0.  1.
     999902    2    1    2    0    0 -0.18141901297E-01 -0.18679423480E-01  0.20983484141E-01  0.10104881691E+01  0.10099346434E+01 0.  0.
     999903    2    3    3    0    0 -0.10178381629E+00 -0.62630957185E-01  0.31873456188E-01  0.12536315043E+00  0.20430864397E-01 0.  0.
         14    1    1    2    0    0  0.18141901297E-01  0.18679423480E-01 -0.20983484141E-01  0.33441830854E-01  0.00000000000E+00 0.  1.
     999901    1    3    3    0    0  0.83641914997E-01  0.43951533705E-01 -0.10889972047E-01  0.88512501871E+00  0.88000000000E+00 0. -1.
        -11    1    4    4    0    0 -0.52775580552E-01 -0.23290820152E-01  0.85042015442E-02  0.58312149427E-01  0.51100000000E-03 0.  1.
         11    1    4    4    0    0 -0.49008235742E-01 -0.39340137033E-01  0.23369254644E-01  0.67051001006E-01  0.51100000000E-03 0. -1.
</event>
<event>
 8    1  0.1101883E+005  0.1043930E+01  0.7957747E-01            NaN
         13   -1    0    0    0    0  0.00000000000E+00  0.00000000000E+00  0.74505805969E-08  0.10566000000E+00  0.10566000000E+00 0.  1.
     999900   -1    0    0    0    0 -0.00000000000E+00 -0.00000000000E+00 -0.74505805969E-08  0.93827000000E+00  0.93827000000E+00 0. -1.
     999902    2    1    2    0    0  0.15981771787E-01 -0.13807992654E-01 -0.10410008199E-01  0.10203833238E+01  0.10201116025E+01 0.  0.
     999903    2    3    3    0    0  0.56075181983E-01  0.14152098437E-01  0.11474518763E+00  0.13018499122E+00  0.20903730042E-01 0.  0.
         14    1    1    2    0    0 -0.15981771787E-01  0.13807992654E-01  0.10410008199E-01  0.23546676226E-01  0.00000000000E+00 0. -1.
     999901    1    3    3    0    0 -0.40093410196E-01 -0.27960091091E-01 -0.12515519583E+00  0.89019833255E+00  0.88000000000E+00 0. -1.
        -11    1    4    4    0    0  0.48708068916E-01  0.56376101811E-02  0.81873488382E-01  0.95434730821E-01  0.51100000000E-03 0. -1.
         11    1    4    4    0    0  0.73671130669E-02  0.85144882560E-02  0.32871699251E-01  0.34750260400E-01  0.51100000000E-03 0.  1.
</event>
<event>
 8    1  0.1101883E+005  0.1043930E+01  0.7957747E-01            NaN
         13   -1    0    0    0    0  0.00000000000E+00  0.00000000000E+00  0.74505805969E-08  0.10566000000E+00  0.10566000000E+00 0.  1.
     999900   -1    0    0    0    0 -0.00000000000E+00 -0.00000000000E+00 -0.74505805969E-08  0.93827000000E+00  0.93827000000E+00 0.  1.
     999902    2    1    2    0    0 -0.10322009402E-01 -0.17119905640E-01  0.14242914228E-01  0.10193842131E+01  0.10190886509E+01 0.  0.
     999903    2    3    3    0    0 -0.14341324704E-01 -0.12958375789E+00  0.86087265466E-02  0.13219989349E+00  0.20126543733E-01 0.  0.
         14    1    1    2    0    0  0.10322009402E-01  0.17119905640E-01 -0.14242914228E-01  0.24545786867E-01  0.00000000000E+00 0. -1.
     999901    1    3    3    0    0  0.40193153023E-02  0.11246385225E+00  0.56341876817E-02  0.88718431965E+00  0.88000000000E+00 0.  1.
        -11    1    4    4    0    0 -0.28936053455E-02 -0.22059219367E-02 -0.13643583463E-02  0.39193925784E-02  0.51100000000E-03 0. -1.
         11    1    4    4    0    0 -0.11447719358E-01 -0.12737783595E+00  0.99730848929E-02  0.12828050091E+00  0.51100000000E-03 0.  1.
</event>
<event>
 8    1  0.1101883E+005  0.1043930E+01  0.7957747E-01            NaN
         13   -1    0    0    0    0  0.00000000000E+00  0.00000000000E+00  0.74505805969E-08  0.10566000000E+00  0.10566000000E+00 0. -1.
     999900   -1    0    0    0    0 -0.00000000000E+00 -0.00000000000E+00 -0.74505805969E-08  0.93827000000E+00  0.93827000000E+00 0. -1.
     999902    2    1    2    0    0 -0.16347620404E-01  0.11921080136E-01 -0.11275357508E-01  0.10207677348E+01  0.10205049132E+01 0.  0.
     999903    2    3    3    0    0  0.63901858473E-01 -0.56138429268E-01  0.94048533643E-01  0.12826272203E+00  0.19267289018E-01 0.  0.
         14    1    1    2    0    0  0.16347620404E-01 -0.11921080136E-01  0.11275357508E-01  0.23162265248E-01  0.00000000000E+00 0. -1.
     999901    1    3    3    0    0 -0.80249478876E-01  0.68059509404E-01 -0.10532389115E+00  0.89250501272E+00  0.88000000000E+00 0. -1.
        -11    1    4    4    0    0  0.15698432746E-01 -0.25831244737E-01  0.34481248760E-01  0.45857514460E-01  0.51100000000E-03 0. -1.
         11    1    4    4    0    0  0.48203425727E-01 -0.30307184531E-01  0.59567284883E-01  0.82405207574E-01  0.51100000000E-03 0.  1.
</event>
<event>
 7    1  0.1101883E+005  0.1043930E+01  0.7957747E-01            NaN
         13   -1    0    0    0    0  0.00000000000E+00  0.00000000000E+00  0.74505805969E-08  0.10566000000E+00  0.10566000000E+00 0.  1.
     999900   -1    0    0    0    0 -0.00000000000E+00 -0.00000000000E+00 -0.74505805969E-08  0.93827000000E+00  0.93827000000E+00 0. -1.
     999903    2    1    2    0    0  0.89910835928E-01 -0.55540949372E-01  0.12885506966E-01  0.10862641920E+00  0.21561706443E-01 0.  0.
         14    1    1    2    0    0 -0.44061549169E-02  0.49992649407E-01  0.84062280316E-02  0.50885595856E-01  0.00000000000E+00 0.  1.
     999901    1    1    2    0    0 -0.85504681011E-01  0.55482999656E-02 -0.21291734998E-01  0.88441798494E+00  0.88000000000E+00 0. -1.
        -11    1    3    3    0    0  0.30205830581E-01 -0.27908636906E-01 -0.19821465446E-02  0.41176136790E-01  0.51100000000E-03 0. -1.
         11    1    3    3    0    0  0.59705005348E-01 -0.27632312467E-01  0.14867653511E-01  0.67450282414E-01  0.51100000000E-03 0.  1.
</event>
<event>
 8    1  0.1101883E+005  0.1043930E+01  0.7957747E-01            NaN
         13   -1    0    0    0    0  0.00000000000E+00  0.00000000000E+00  0.74505805969E-08  0.10566000000E+00  0.10566000000E+00 0.  1.
     999900   -1    0    0    0    0 -0.00000000000E+00 -0.00000000000E+00 -0.74505805969E-08  0.93827000000E+00  0.93827000000E+00 0.  1.
     999902    2    1    2    0    0  0.83532049620E-02  0.49264121810E-02 -0.20693501133E-01  0.10210768479E+01  0.10208210729E+01 0.  0.
     999903    2    3    3    0    0 -0.12452406694E+00 -0.72126738115E-02 -0.34014300729E-01  0.13091890100E+00  0.20603884936E-01 0.  0.
         14    1    1    2    0    0 -0.83532049620E-02 -0.49264121810E-02  0.20693501133E-01  0.22853152064E-01  0.00000000000E+00 0.  1.
     999901    1    3    3    0    0  0.13287727190E+00  0.12139085993E-01  0.13320799596E-01  0.89015794694E+00  0.88000000000E+00 0. -1.
        -11    1    4    4    0    0 -0.99654786407E-01 -0.37087321488E-03 -0.20305348712E-01  0.10170438687E+00  0.51100000000E-03 0. -1.
         11    1    4    4    0    0 -0.24869280529E-01 -0.68418005966E-02 -0.13708952017E-01  0.29214514130E-01  0.51100000000E-03 0.  1.
</event>
<event>
 8    1  0.1101883E+005  0.1043930E+01  0.7957747E-01            NaN
         13   -1    0    0    0    0  0.00000000000E+00  0.00000000000E+00  0.74505805969E-08  0.10566000000E+00  0.10566000000E+00 0.  1.
     999900   -1    0    0    0    0 -0.00000000000E+00 -0.00000000000E+00 -0.74505805969E-08  0.93827000000E+00  0.93827000000E+00 0.  1.
     999902    2    1    2    0    0  0.90716449496E-02 -0.19942449914E-01  0.86720112267E-02  0.10203673213E+01  0.10200952262E+01 0.  0.
     999903    2    3    3    0    0 -0.11112906836E+00 -0.92930211216E-02  0.62879782431E-01  0.13047962932E+00  0.25199931601E-01 0.  0.
         14    1    1    2    0    0 -0.90716449496E-02  0.19942449914E-01 -0.86720112267E-02  0.23562678740E-01  0.00000000000E+00 0. -1.
     999901    1    3    3    0    0  0.12020071331E+00 -0.10649428793E-01 -0.54207771205E-01  0.88988769194E+00  0.88000000000E+00 0. -1.
        -11    1    4    4    0    0 -0.79823564023E-01  0.37856243226E-02  0.38550824264E-01  0.88727445006E-01  0.51100000000E-03 0.  1.
         11    1    4    4    0    0 -0.31305504334E-01 -0.13078645444E-01  0.24328958168E-01  0.41752184311E-01  0.51100000000E-03 0. -1.
</event>
<event>
 8    1  0.1101883E+005  0.1043930E+01  0.7957747E-01            NaN
         13   -1    0    0    0    0  0.00000000000E+00  0.00000000000E+00  0.74505805969E-08  0.10566000000E+00  0.10566000000E+00 0.  1.
     999900   -1    0    0    0    0 -0.00000000000E+00 -0.00000000000E+00 -0.74505805969E-08  0.93827000000E+00  0.93827000000E+00 0. -1.
     999902    2    1    2    0    0 -0.69740579415E-02  0.16083154406E-01 -0.15141578489E-01  0.10207659602E+01  0.10205030979E+01 0.  0.
     999903    2    3    3    0    0  0.60297664183E-01  0.11647422579E+00 -0.67030588536E-02  0.13246699004E+00  0.17335480140E-01 0.  0.
         14    1    1    2    0    0  0.69740579415E-02 -0.16083154406E-01  0.15141578489E-01  0.23164039781E-01  0.00000000000E+00 0.  1.
     999901    1    3    3    0    0 -0.67271722125E-01 -0.10039107139E+00 -0.84385196358E-02  0.88829897018E+00  0.88000000000E+00 0. -1.
        -11    1    4    4    0    0  0.34249680539E-01  0.77718698189E-01 -0.10671831230E-01  0.85600150514E-01  0.51100000000E-03 0. -1.
         11    1    4    4    0    0  0.26047983644E-01  0.38755527604E-01  0.39687723763E-02  0.46866839524E-01  0.51100000000E-03 0.  1.
</event>
<event>
 8    1  0.1101883E+005  0.1043930E+01  0.7957747E-01            NaN
         13   -1    0    0    0    0  0.00000000000E+00  0.00000000000E+00  0.74505805969E-08  0.10566000000E+00  0.10566000000E+00 0. -1.
     999900   -1    0    0    0    0 -0.00000000000E+00 -0.00000000000E+00 -0.74505805969E-08  0.93827000000E+00  0.93827000000E+00 0. -1.
     999902    2    1    2    0    0 -0.57556239496E-02 -0.18870422325E-01  0.13060036995E-01  0.10202702322E+01  0.10199958638E+01 0.  0.
     999903    2    3    3    0    0  0.15685726578E-01  0.11995770272E+00  0.39104159634E-01  0.12874834457E+00  0.20275809932E-01 0.  0.
         14    1    1    2    0    0  0.57556239496E-02  0.18870422325E-01 -0.13060036995E-01  0.23659767795E-01  0.00000000000E+00 0.  1.
     999901    1    3    3    0    0 -0.21441350528E-01 -0.13882812504E+00 -0.26044122639E-01  0.89152188764E+00  0.88000000000E+00 0. -1.
        -11    1    4    4    0    0  0.54387409252E-02  0.58512046723E-01  0.29366912150E-01  0.65695632768E-01  0.51100000000E-03 0. -1.
         11    1    4    4    0    0  0.10246985653E-01  0.61445655994E-01  0.97372474835E-02  0.63052711798E-01  0.51100000000E-03 0.  1.
</event>
<event>
 8    1  0.1101883E+005  0.1043930E+01  0.7957747E-01            NaN
         13   -1    0    0    0    0  0.00000000000E+00  0.00000000000E+00  0.74505805969E-08  0.10566000000E+00  0.10566000000E+00 0. -1.
     999900   -1    0    0    0    0 -0.00000000000E+00 -0.00000000000E+00 -0.74505805969E-08  0.93827000000E+00  0.93827000000E+00 0. -1.
     999902    2    1    2    0    0  0.18036942279E-01  0.14287076849E-01 -0.64711632552E-02  0.10200275356E+01  0.10197474420E+01 0.  0.
     999903    2    3    3    0    0 -0.41965597504E-01  0.11952371213E+00 -0.28766609159E-01  0.13144881588E+00  0.20105826484E-01 0.  0.
         14    1    1    2    0    0 -0.18036942279E-01 -0.14287076849E-01  0.64711632552E-02  0.23902464424E-01  0.00000000000E+00 0.  1.
     999901    1    3    3    0    0  0.60002539783E-01 -0.10523663528E+00  0.22295445904E-01  0.88857871969E+00  0.88000000000E+00 0. -1.
        -11    1    4    4    0    0 -0.75425582357E-02  0.48004095077E-01 -0.66324125727E-02  0.49046236822E-01  0.51100000000E-03 0. -1.
         11    1    4    4    0    0 -0.34423039269E-01  0.71519617054E-01 -0.22134196586E-01  0.82402579059E-01  0.51100000000E-03 0.  1.
</event>
<event>
 8    1  0.1101883E+005  0.1043930E+01  0.7957747E-01            NaN
         13   -1    0    0    0    0  0.00000000000E+00  0.00000000000E+00  0.74505805969E-08  0.10566000000E+00  0.10566000000E+00 0. -1.
     999900   -1    0    0    0    0 -0.00000000000E+00 -0.00000000000E+00 -0.74505805969E-08  0.93827000000E+00  0.93827000000E+00 0. -1.
     999902    2    1    2    0    0  0.16954849434E-01  0.51003667172E-02  0.17825265498E-01  0.10188058930E+01  0.10184960613E+01 0.  0.
     999903    2    3    3    0    0  0.10367165000E-01 -0.12368367872E+00 -0.25116808509E-01  0.12837186985E+00  0.21055935194E-01 0.  0.
         14    1    1    2    0    0 -0.16954849434E-01 -0.51003667172E-02 -0.17825265498E-01  0.25124106950E-01  0.00000000000E+00 0. -1.
     999901    1    3    3    0    0  0.65876844343E-02  0.12878404544E+00  0.42942074006E-01  0.89043402320E+00  0.88000000000E+00 0.  1.
        -11    1    4    4    0    0  0.11719030888E-01 -0.91330450029E-01 -0.99685157293E-02  0.92618676380E-01  0.51100000000E-03 0.  1.
         11    1    4    4    0    0 -0.13518658878E-02 -0.32353228695E-01 -0.15148292780E-01  0.35753193473E-01  0.51100000000E-03 0. -1.
</event>
<event>
 8    1  0.1101883E+005  0.1043930E+01  0.7957747E-01            NaN
         13   -1    0    0    0    0  0.00000000000E+00  0.00000000000E+00  0.74505805969E-08  0.10566000000E+00  0.10566000000E+00 0. -1.
     999900   -1    0    0    0    0 -0.00000000000E+00 -0.00000000000E+00 -0.74505805969E-08  0.93827000000E+00  0.93827000000E+00 0.  1.
     999902    2    1    2    0    0 -0.73545005377E-02 -0.18944199249E-01  0.10294190595E-01  0.10211497076E+01  0.10208955792E+01 0.  0.
     999903    2    3    3    0    0 -0.81844407804E-01 -0.52267353366E-01 -0.86583690787E-01  0.13208024865E+00  0.22761222621E-01 0.  0.
         14    1    1    2    0    0  0.73545005377E-02  0.18944199249E-01 -0.10294190595E-01  0.22780292434E-01  0.00000000000E+00 0.  1.
     999901    1    3    3    0    0  0.74489907267E-01  0.33323154117E-01  0.96877881382E-01  0.88906945892E+00  0.88000000000E+00 0.  1.
        -11    1    4    4    0    0 -0.11275633106E-01 -0.10304780871E-01 -0.43840216027E-02  0.15899974124E-01  0.51100000000E-03 0. -1.
         11    1    4    4    0    0 -0.70568774698E-01 -0.41962572496E-01 -0.82199669184E-01  0.11618027452E+00  0.51100000000E-03 0.  1.
</event>
<event>
 8    1  0.1101883E+005  0.1043930E+01  0.7957747E-01            NaN
         13   -1    0    0    0    0  0.00000000000E+00  0.00000000000E+00  0.74505805969E-08  0.10566000000E+00  0.10566000000E+00 0.  1.
     999900   -1    0    0    0    0 -0.00000000000E+00 -0.00000000000E+00 -0.74505805969E-08  0.93827000000E+00  0.93827000000E+00 0. -1.
     999902    2    1    2    0    0  0.12075865759E-01  0.96932932542E-02  0.27411033342E-01  0.10124474458E+01  0.10119578447E+01 0.  0.
     999903    2    3    3    0    0  0.22800981701E-01 -0.71311157903E-01  0.99042934592E-01  0.12576380524E+00  0.20046590931E-01 0.  0.
         14    1    1    2    0    0 -0.12075865759E-01 -0.96932932542E-02 -0.27411033342E-01  0.31482554166E-01  0.00000000000E+00 0. -1.
     999901    1    3    3    0    0 -0.10725115942E-01  0.81004451157E-01 -0.71631901251E-01  0.88668364059E+00  0.88000000000E+00 0.  1.
        -11    1    4    4    0    0  0.20359526117E-01 -0.33038992075E-01  0.55696463483E-01  0.67885509990E-01  0.51100000000E-03 0. -1.
         11    1    4    4    0    0  0.24414555839E-02 -0.38272165828E-01  0.43346471109E-01  0.57878295251E-01  0.51100000000E-03 0.  1.
</event>
<event>
 8    1  0.1101883E+005  0.1043930E+01  0.7957747E-01            NaN
         13   -1    0    0    0    0  0.00000000000E+00  0.00000000000E+00  0.74505805969E-08  0.10566000000E+00  0.10566000000E+00 0. -1.
     999900   -1    0    0    0    0 -0.00000000000E+00 -0.00000000000E+00 -0.74505805969E-08  0.93827000000E+00  0.93827000000E+00 0. -1.
     999902    2    1    2    0    0 -0.14072351559E-01 -0.19426387750E-01 -0.59399518481E-02  0.10192176823E+01  0.10189180464E+01 0.  0.
     999903    2    3    3    0    0 -0.18891865615E-01  0.87613498380E-01 -0.90116597885E-01  0.12873103292E+00  0.20436485458E-01 0.  0.
         14    1    1    2    0    0  0.14072351559E-01  0.19426387750E-01  0.59399518481E-02  0.24712317726E-01  0.00000000000E+00 0. -1.
     999901    1    3    3    0    0  0.48195140563E-02 -0.10703988613E+00  0.84176646037E-01  0.89048664935E+00  0.88000000000E+00 0.  1.
        -11    1    4    4    0    0 -0.27326280477E-02  0.28760668647E-01 -0.42158205839E-01  0.51109869474E-01  0.51100000000E-03 0. -1.
         11    1    4    4    0    0 -0.16159237568E-01  0.58852829732E-01 -0.47958392046E-01  0.77621163447E-01  0.51100000000E-03 0.  1.
</event>
<event>
 8    1  0.1101883E+005  0.1043930E+01  0.7957747E-01            NaN
         13   -1    0    0    0    0  0.00000000000E+00  0.00000000000E+00  0.74505805969E-08  0.10566000000E+00  0.10566000000E+00 0.  1.
     999900   -1    0    0    0    0 -0.00000000000E+00 -0.00000000000E+00 -0.74505805969E-08  0.93827000000E+00  0.93827000000E+00 0. -1.
     999902    2    1    2    0    0  0.19816910238E-02  0.20051757259E-01  0.96814917422E-02  0.10215753282E+01  0.10213307103E+01 0.  0.
     999903    2    3    3    0    0  0.45331195925E-01  0.46043209270E-01 -0.11296010869E+00  0.13163392716E+00  0.19814393211E-01 0.  0.
         14    1    1    2    0    0 -0.19816910238E-02 -0.20051757259E-01 -0.96814917422E-02  0.22354671790E-01  0.00000000000E+00 0. -1.
     999901    1    3    3    0    0 -0.43349504901E-01 -0.25991452011E-01  0.12264160044E+00  0.88994140105E+00  0.88000000000E+00 0.  1.
        -11    1    4    4    0    0  0.25711247365E-01  0.12818230083E-01 -0.53987748182E-01  0.61158101166E-01  0.51100000000E-03 0. -1.
         11    1    4    4    0    0  0.19619948560E-01  0.33224979187E-01 -0.58972360512E-01  0.70475825989E-01  0.51100000000E-03 0.  1.
</event>
<event>
 8    1  0.1101883E+005  0.1043930E+01  0.7957747E-01            NaN
         13   -1    0    0    0    0  0.00000000000E+00  0.00000000000E+00  0.74505805969E-08  0.10566000000E+00  0.10566000000E+00 0.  1.
     999900   -1    0    0    0    0 -0.00000000000E+00 -0.00000000000E+00 -0.74505805969E-08  0.93827000000E+00  0.93827000000E+00 0. -1.
     999902    2    1    2    0    0 -0.13528984922E-01  0.17778116113E-01  0.14567622079E-01  0.10172595958E+01  0.10169099148E+01 0.  0.
     999903    2    3    3    0    0 -0.74279899913E-01 -0.60323086363E-01  0.84189580124E-01  0.12898166154E+00  0.19799124563E-01 0.  0.
         14    1    1    2    0    0  0.13528984922E-01 -0.17778116113E-01 -0.14567622079E-01  0.26670404170E-01  0.00000000000E+00 0. -1.
     999901    1    3    3    0    0  0.60750914991E-01  0.78101202476E-01 -0.69621958045E-01  0.88827793429E+00  0.88000000000E+00 0.  1.
        -11    1    4    4    0    0 -0.19038267217E-01 -0.91396180152E-02  0.27719222064E-01  0.34851178300E-01  0.51100000000E-03 0. -1.
         11    1    4    4    0    0 -0.55241632696E-01 -0.51183468347E-01  0.56470358060E-01  0.94130483242E-01  0.51100000000E-03 0.  1.
</event>
<event>
 8    1  0.1101883E+005  0.1043930E+01  0.7957747E-01            NaN
         13   -1    0    0    0    0  0.00000000000E+00  0.00000000000E+00  0.74505805969E-08  0.10566000000E+00  0.10566000000E+00 0.  1.
     999900   -1    0    0    0    0 -0.00000000000E+00 -0.00000000000E+00 -0.74505805969E-08  0.93827000000E+00  0.93827000000E+00 0. -1.
     999902    2    1    2    0    0  0.17722501720E-01 -0.55425190787E-02  0.10900355366E-01  0.10223980625E+01  0.10221713036E+01 0.  0.
     999903    2    3    3    0    0  0.12103810799E+00  0.45487894954E-01 -0.29275200017E-01  0.13397682633E+00  0.19323055753E-01 0.  0.
         14    1    1    2    0    0 -0.17722501720E-01  0.55425190787E-02 -0.10900355366E-01  0.21531937490E-01  0.00000000000E+00 0. -1.
     999901    1    3    3    0    0 -0.10331560627E+00 -0.51030414033E-01  0.40175555383E-01  0.88842123619E+00  0.88000000000E+00 0.  1.
        -11    1    4    4    0    0  0.59720144267E-01  0.19090493318E-01 -0.23531326443E-01  0.66969597666E-01  0.51100000000E-03 0. -1.
         11    1    4    4    0    0  0.61317963720E-01  0.26397401636E-01 -0.57438735744E-02  0.67007228659E-01  0.51100000000E-03 0.  1.
</event>
<event>
 8    1  0.1101883E+005  0.1043930E+01  0.7957747E-01            NaN
         13   -1    0    0    0    0  0.00000000000E+00  0.00000000000E+00  0.74505805969E-08  0.10566000000E+00  0.10566000000E+00 0. -1.
     999900   -1    0    0    0    0 -0.00000000000E+00 -0.00000000000E+00 -0.74505805969E-08  0.93827000000E+00  0.93827000000E+00 0.  1.
     999902    2    1    2    0    0  0.18683283825E-01 -0.12956577269E-01 -0.50210433942E-03  0.10211881861E+01  0.10209349252E+01 0.  0.
     999903    2    3    3    0    0  0.31619038198E-02  0.31907753718E-01 -0.12542931379E+00  0.13109800582E+00  0.20641511323E-01 0.  0.
         14    1    1    2    0    0 -0.18683283825E-01  0.12956577269E-01  0.50210433942E-03  0.22741813863E-01  0.00000000000E+00 0.  1.
     999901    1    3    3    0    0  0.15521380005E-01 -0.44864330987E-01  0.12492720945E+00  0.89009018032E+00  0.88000000000E+00 0. -1.
        -11    1    4    4    0    0  0.31056703157E-02 -0.14535037698E-02 -0.25761327785E-01  0.25993556732E-01  0.51100000000E-03 0. -1.
         11    1    4    4    0    0  0.56233504167E-04  0.33361257487E-01 -0.99667986005E-01  0.10510444909E+00  0.51100000000E-03 0.  1.
</event>
<event>
 8    1  0.1101883E+005  0.1043930E+01  0.7957747E-01            NaN
         13   -1    0    0    0    0  0.00000000000E+00  0.00000000000E+00  0.74505805969E-08  0.10566000000E+00  0.10566000000E+00 0. -1.
     999900   -1    0    0    0    0 -0.00000000000E+00 -0.00000000000E+00 -0.74505805969E-08  0.93827000000E+00  0.93827000000E+00 0. -1.
     999902    2    1    2    0    0  0.19216696999E-01 -0.12632354779E-02  0.14015675755E-01  0.10201115959E+01  0.10198334921E+01 0.  0.
     999903    2    3    3    0    0 -0.49764606939E-01 -0.17364113382E-01  0.11889337475E+00  0.13105760973E+00  0.16199813897E-01 0.  0.
         14    1    1    2    0    0 -0.19216696999E-01  0.12632354779E-02 -0.14015675755E-01  0.23818404109E-01  0.00000000000E+00 0.  1.
     999901    1    3    3    0    0  0.68981303938E-01  0.16100877904E-01 -0.10487769900E+00  0.88905398616E+00  0.88000000000E+00 0. -1.
        -11    1    4    4    0    0 -0.29075937946E-01 -0.16469549070E-01  0.85018555724E-01  0.91351366450E-01  0.51100000000E-03 0. -1.
         11    1    4    4    0    0 -0.20688668993E-01 -0.89456431221E-03  0.33874819030E-01  0.39706243279E-01  0.51100000000E-03 0.  1.
</event>
<event>
 8    1  0.1101883E+005  0.1043930E+01  0.7957747E-01            NaN
         13   -1    0    0    0    0  0.00000000000E+00  0.00000000000E+00  0.74505805969E-08  0.10566000000E+00  0.10566000000E+00 0. -1.
     999900   -1    0    0    0    0 -0.00000000000E+00 -0.00000000000E+00 -0.74505805969E-08  0.93827000000E+00  0.93827000000E+00 0. -1.
     999902    2    1    2    0    0  0.27761408046E-02  0.88845249546E-02 -0.21513569172E-01  0.10204891084E+01  0.10202198513E+01 0.  0.
     999903    2    3    3    0    0 -0.32949285600E-01  0.23643299446E-01 -0.12576891784E+00  0.13349231851E+00  0.18913417862E-01 0.  0.
         14    1    1    2    0    0 -0.27761408046E-02 -0.88845249546E-02  0.21513569172E-01  0.23440891620E-01  0.00000000000E+00 0. -1.
     999901    1    3    3    0    0  0.35725426404E-01 -0.14758774492E-01  0.10425534867E+00  0.88699678987E+00  0.88000000000E+00 0.  1.
        -11    1    4    4    0    0 -0.25784486259E-01  0.22897166567E-01 -0.79428068457E-01  0.86592142532E-01  0.51100000000E-03 0. -1.
         11    1    4    4    0    0 -0.71647993406E-02  0.74613287930E-03 -0.46340849385E-01  0.46900175976E-01  0.51100000000E-03 0.  1.
</event>
<event>
 8    1  0.1101883E+005  0.1043930E+01  0.7957747E-01            NaN
         13   -1    0    0    0    0  0.00000000000E+00  0.00000000000E+00  0.74505805969E-08  0.10566000000E+00  0.10566000000E+00 0.  1.
     999900   -1    0    0    0    0 -0.00000000000E+00 -0.00000000000E+00 -0.74505805969E-08  0.93827000000E+00  0.93827000000E+00 0. -1.
     999902    2    1    2    0    0 -0.76684776340E-02  0.20891409329E-01  0.35108290614E-02  0.10214004094E+01  0.10211519054E+01 0.  0.
     999903    2    3    3    0    0  0.98377191697E-01  0.86511739397E-01 -0.27058352185E-02  0.13258639136E+00  0.20235531395E-01 0.  0.
         14    1    1    2    0    0  0.76684776340E-02 -0.20891409329E-01 -0.35108290614E-02  0.22529590623E-01  0.00000000000E+00 0. -1.
     999901    1    3    3    0    0 -0.10604566933E+00 -0.65620330068E-01  0.62166642798E-02  0.88881401801E+00  0.88000000000E+00 0. -1.
        -11    1    4    4    0    0  0.87165711620E-01  0.68388166776E-01 -0.62841687214E-02  0.11097096257E+00  0.51100000000E-03 0.  1.
         11    1    4    4    0    0  0.11211480077E-01  0.18123572621E-01  0.35783335030E-02  0.21615428789E-01  0.51100000000E-03 0. -1.
</event>
<event>
 8    1  0.1101883E+005  0.1043930E+01  0.7957747E-01            NaN
         13   -1    0    0    0    0  0.00000000000E+00  0.00000000000E+00  0.74505805969E-08  0.10566000000E+00  0.10566000000E+00 0.  1.
     999900   -1    0    0    0    0 -0.00000000000E+00 -0.00000000000E+00 -0.74505805969E-08  0.93827000000E+00  0.93827000000E+00 0. -1.
     999902    2    1    2    0    0 -0.12915311200E-01  0.19672094871E-01 -0.22407001184E-02  0.10202906828E+01  0.10200167940E+01 0.  0.
     999903    2    3    3    0    0  0.64991066077E-01 -0.10802876360E+00  0.82763073041E-03  0.12766179715E+00  0.20069804281E-01 0.  0.
         14    1    1    2    0    0  0.12915311200E-01 -0.19672094871E-01  0.22407001184E-02  0.23639317186E-01  0.00000000000E+00 0.  1.
     999901    1    3    3    0    0 -0.77906377277E-01  0.12770085847E+00 -0.30683308488E-02  0.89262888567E+00  0.88000000000E+00 0. -1.
        -11    1    4    4    0    0  0.32559134477E-01 -0.71209317627E-01 -0.36676866976E-02  0.78387353582E-01  0.51100000000E-03 0. -1.
         11    1    4    4    0    0  0.32431931600E-01 -0.36819445969E-01  0.44953174280E-02  0.49274443564E-01  0.51100000000E-03 0.  1.
</event>
<event>
 8    1  0.1101883E+005  0.1043930E+01  0.7957747E-01            NaN
         13   -1    0    0    0    0  0.00000000000E+00  0.00000000000E+00  0.74505805969E-08  0.10566000000E+00  0.10566000000E+00 0. -1.
     999900   -1    0    0    0    0 -0.00000000000E+00 -0.00000000000E+00 -0.74505805969E-08  0.93827000000E+00  0.93827000000E+00 0. -1.
     999902    2    1    2    0    0 -0.14016107907E-01 -0.16101554721E-01  0.10416645627E-01  0.10201767297E+01  0.10199001627E+01 0.  0.
     999903    2    3    3    0    0  0.10238409668E+00  0.31799207500E-01  0.70243994009E-01  0.12920938893E+00  0.16344865929E-01 0.  0.
         14    1    1    2    0    0  0.14016107907E-01  0.16101554721E-01 -0.10416645627E-01  0.23753270332E-01  0.00000000000E+00 0.  1.
     999901    1    3    3    0    0 -0.11640020459E+00 -0.47900762221E-01 -0.59827348382E-01  0.89096734074E+00  0.88000000000E+00 0. -1.
        -11    1    4    4    0    0  0.80827422337E-01  0.21015126992E-01  0.47573463725E-01  0.96115572806E-01  0.51100000000E-03 0. -1.
         11    1    4    4    0    0  0.21556674344E-01  0.10784080508E-01  0.22670530285E-01  0.33093816123E-01  0.51100000000E-03 0.  1.
</event>
<event>
 8    1  0.1101883E+005  0.1043930E+01  0.7957747E-01            NaN
         13   -1    0    0    0    0  0.00000000000E+00  0.00000000000E+00  0.74505805969E-08  0.10566000000E+00  0.10566000000E+00 0.  1.
     999900   -1    0    0    0    0 -0.00000000000E+00 -0.00000000000E+00 -0.74505805969E-08  0.93827000000E+00  0.93827000000E+00 0. -1.
     999902    2    1    2    0    0  0.52325733899E-02  0.11597705726E-01 -0.31891555650E-01  0.10095940433E+01  0.10090099971E+01 0.  0.
     999903    2    3    3    0    0 -0.73558741827E-01  0.93258214325E-01 -0.22416290863E-01  0.12225741569E+00  0.18341280105E-01 0.  0.
         14    1    1    2    0    0 -0.52325733899E-02 -0.11597705726E-01  0.31891555650E-01  0.34335956724E-01  0.00000000000E+00 0.  1.
     999901    1    3    3    0    0  0.78791315217E-01 -0.81660508599E-01 -0.94752647872E-02  0.88733662759E+00  0.88000000000E+00 0. -1.
        -11    1    4    4    0    0 -0.32381325054E-01  0.52865199374E-01 -0.60167264702E-02  0.62287572079E-01  0.51100000000E-03 0. -1.
         11    1    4    4    0    0 -0.41177416774E-01  0.40393014951E-01 -0.16399564393E-01  0.59969843607E-01  0.51100000000E-03 0.  1.
</event>
<event>
 8    1  0.1101883E+005  0.1043930E+01  0.7957747E-01            NaN
         13   -1    0    0    0    0  0.00000000000E+00  0.00000000000E+00  0.74505805969E-08  0.10566000000E+00  0.10566000000E+00 0. -1.
     999900   -1    0    0    0    0 -0.00000000000E+00 -0.00000000000E+00 -0.74505805969E-08  0.93827000000E+00  0.93827000000E+00 0. -1.
     999902    2    1    2    0    0  0.19275939936E-01 -0.37284489648E-02 -0.12051243816E-01  0.10208931671E+01  0.10206332167E+01 0.  0.
     999903    2    3    3    0    0 -0.67861907700E-01  0.18417366475E-01 -0.10876986414E+00  0.13104040786E+00  0.19906462304E-01 0.  0.
         14    1    1    2    0    0 -0.19275939936E-01  0.37284489648E-02  0.12051243816E-01  0.23036832890E-01  0.00000000000E+00 0. -1.
     999901    1    3    3    0    0  0.87137847636E-01 -0.22145815439E-01  0.96718620325E-01  0.88985275925E+00  0.88000000000E+00 0.  1.
        -11    1    4    4    0    0 -0.37652460121E-01  0.11292497595E-01 -0.77920972757E-01  0.87276384960E-01  0.51100000000E-03 0. -1.
         11    1    4    4    0    0 -0.30209447579E-01  0.71248688794E-02 -0.30848891384E-01  0.43764022898E-01  0.51100000000E-03 0.  1.
</event>
<event>
 8    1  0.1101883E+005  0.1043930E+01  0.7957747E-01            NaN
         13   -1    0    0    0    0  0.00000000000E+00  0.00000000000E+00  0.74505805969E-08  0.10566000000E+00  0.10566000000E+00 0.  1.
     999900   -1    0    0    0    0 -0.00000000000E+00 -0.00000000000E+00 -0.74505805969E-08  0.93827000000E+00  0.93827000000E+00 0.  1.
     999902    2    1    2    0    0  0.16656396473E-01  0.68457085300E-03  0.13628671529E-01  0.10223975856E+01  0.10221708166E+01 0.  0.
     999903    2    3    3    0    0  0.10537301695E+00 -0.28620980697E-02 -0.78832506422E-01  0.13311006912E+00  0.19800558709E-01 0.  0.
         14    1    1    2    0    0 -0.16656396473E-01 -0.68457085300E-03 -0.13628671529E-01  0.21532414365E-01  0.00000000000E+00 0. -1.
     999901    1    3    3    0    0 -0.88716620475E-01  0.35466689227E-02  0.92461177951E-01  0.88928751652E+00  0.88000000000E+00 0. -1.
        -11    1    4    4    0    0  0.13299183342E-01 -0.67751204682E-03 -0.19263555038E-01  0.23423769420E-01  0.51100000000E-03 0.  1.
         11    1    4    4    0    0  0.92073833606E-01 -0.21845860229E-02 -0.59568951384E-01  0.10968629970E+00  0.51100000000E-03 0. -1.
</event>
<event>
 8    1  0.1101883E+005  0.1043930E+01  0.7957747E-01            NaN
         13   -1    0    0    0    0  0.00000000000E+00  0.00000000000E+00  0.74505805969E-08  0.10566000000E+00  0.10566000000E+00 0. -1.
     999900   -1    0    0    0    0 -0.00000000000E+00 -0.00000000000E+00 -0.74505805969E-08  0.93827000000E+00  0.93827000000E+00 0. -1.
     999902    2    1    2    0    0  0.22360054974E-01 -0.11657729639E-01  0.98493235409E-02  0.10168581716E+01  0.10164977409E+01 0.  0.
     999903    2    3    3    0    0 -0.80317812110E-02  0.10783667484E+00 -0.62495036249E-01  0.12532225937E+00  0.10333498279E-01 0.  0.
         14    1    1    2    0    0 -0.22360054974E-01  0.11657729639E-01 -0.98493235409E-02  0.27071828401E-01  0.00000000000E+00 0.  1.
     999901    1    3    3    0    0  0.30391836185E-01 -0.11949440448E+00  0.72344359790E-01  0.89153591223E+00  0.88000000000E+00 0.  1.
        -11    1    4    4    0    0 -0.38153911982E-02  0.54211281489E-01 -0.37332266802E-01  0.65934660963E-01  0.51100000000E-03 0. -1.
         11    1    4    4    0    0 -0.42163900128E-02  0.53625393351E-01 -0.25162769447E-01  0.59387598403E-01  0.51100000000E-03 0.  1.
</event>
<event>
 8    1  0.1101883E+005  0.1043930E+01  0.7957747E-01            NaN
         13   -1    0    0    0    0  0.00000000000E+00  0.00000000000E+00  0.74505805969E-08  0.10566000000E+00  0.10566000000E+00 0. -1.
     999900   -1    0    0    0    0 -0.00000000000E+00 -0.00000000000E+00 -0.74505805969E-08  0.93827000000E+00  0.93827000000E+00 0.  1.
     999902    2    1    2    0    0 -0.17661212915E-02 -0.23919584788E-01  0.23592602996E-02  0.10198295471E+01  0.10195447383E+01 0.  0.
     999903    2    3    3    0    0  0.49842079296E-01  0.10538033285E+00 -0.47327077165E-01  0.12750079199E+00  0.20672501189E-01 0.  0.
         14    1    1    2    0    0  0.17661212915E-02  0.23919584788E-01 -0.23592602996E-02  0.24100452900E-01  0.00000000000E+00 0.  1.
     999901    1    3    3    0    0 -0.51608200588E-01 -0.12929991763E+00  0.49686337465E-01  0.89232875511E+00  0.88000000000E+00 0. -1.
        -11    1    4    4    0    0  0.43692337855E-02  0.18003491633E-01 -0.76819547030E-03  0.18549047418E-01  0.51100000000E-03 0. -1.
         11    1    4    4    0    0  0.45472845511E-01  0.87376841213E-01 -0.46558881695E-01  0.10895174457E+00  0.51100000000E-03 0.  1.
</event>
<event>
 8    1  0.1101883E+005  0.1043930E+01  0.7957747E-01            NaN
         13   -1    0    0    0    0  0.00000000000E+00  0.00000000000E+00  0.74505805969E-08  0.10566000000E+00  0.10566000000E+00 0. -1.
     999900   -1    0    0    0    0 -0.00000000000E+00 -0.00000000000E+00 -0.74505805969E-08  0.93827000000E+00  0.93827000000E+00 0.  1.
     999902    2    1    2    0    0 -0.16918221995E-01  0.15557363338E-01  0.62845349274E-02  0.10201024284E+01  0.10198241080E+01 0.  0.
     999903    2    3    3    0    0 -0.11447544588E+00  0.63061888610E-01 -0.15326928684E-01  0.13317450166E+00  0.20472021022E-01 0.  0.
         14    1    1    2    0    0  0.16918221995E-01 -0.15557363338E-01 -0.62845349274E-02  0.23827571608E-01  0.00000000000E+00 0.  1.
     999901    1    3    3    0    0  0.97557223888E-01 -0.47504525272E-01  0.21611463612E-01  0.88692792673E+00  0.88000000000E+00 0. -1.
        -11    1    4    4    0    0 -0.43248938954E-01  0.18516975332E-01  0.31570956642E-02  0.47154824463E-01  0.51100000000E-03 0.  1.
         11    1    4    4    0    0 -0.71226506929E-01  0.44544913278E-01 -0.18484024348E-01  0.86019677199E-01  0.51100000000E-03 0. -1.
</event>
<event>
 8    1  0.1101883E+005  0.1043930E+01  0.7957747E-01            NaN
         13   -1    0    0    0    0  0.00000000000E+00  0.00000000000E+00  0.74505805969E-08  0.10566000000E+00  0.10566000000E+00 0.  1.
     999900   -1    0    0    0    0 -0.00000000000E+00 -0.00000000000E+00 -0.74505805969E-08  0.93827000000E+00  0.93827000000E+00 0.  1.
     999902    2    1    2    0    0 -0.14560461884E-02  0.74200292329E-02 -0.22094029144E-01  0.10205778475E+01  0.10203106486E+01 0.  0.
     999903    2    3    3    0    0  0.14967274921E-01  0.83778467795E-01  0.95406237821E-01  0.12933901900E+00  0.19580108201E-01 0.  0.
         14    1    1    2    0    0  0.14560461884E-02 -0.74200292329E-02  0.22094029144E-01  0.23352152538E-01  0.00000000000E+00 0.  1.
     999901    1    3    3    0    0 -0.16423321110E-01 -0.76358438562E-01 -0.11750026696E+00  0.89123882846E+00  0.88000000000E+00 0.  1.
        -11    1    4    4    0    0  0.10702487468E-01  0.53437703228E-01  0.74234423485E-01  0.92093116548E-01  0.51100000000E-03 0. -1.
         11    1    4    4    0    0  0.42647874531E-02  0.30340764566E-01  0.21171814335E-01  0.37245902456E-01  0.51100000000E-03 0.  1.
</event>
<event>
 8    1  0.1101883E+005  0.1043930E+01  0.7957747E-01            NaN
         13   -1    0    0    0    0  0.00000000000E+00  0.00000000000E+00  0.74505805969E-08  0.10566000000E+00  0.10566000000E+00 0.  1.
     999900   -1    0    0    0    0 -0.00000000000E+00 -0.00000000000E+00 -0.74505805969E-08  0.93827000000E+00  0.93827000000E+00 0.  1.
     999902    2    1    2    0    0 -0.18285469459E-01 -0.12889540724E-01  0.56228523999E-02  0.10208623793E+01  0.10206017257E+01 0.  0.
     999903    2    3    3    0    0 -0.87282428313E-01  0.31592858209E-01  0.92825971481E-01  0.13274997198E+00  0.19737352836E-01 0.  0.
         14    1    1    2    0    0  0.18285469459E-01  0.12889540724E-01 -0.56228523999E-02  0.23067620651E-01  0.00000000000E+00 0. -1.
     999901    1    3    3    0    0  0.68996958855E-01 -0.44482398934E-01 -0.87203119081E-01  0.88811240737E+00  0.88000000000E+00 0.  1.
        -11    1    4    4    0    0 -0.61520723230E-01  0.17665703866E-01  0.74404835830E-01  0.98148954124E-01  0.51100000000E-03 0.  1.
         11    1    4    4    0    0 -0.25761705084E-01  0.13927154344E-01  0.18421135651E-01  0.34601017855E-01  0.51100000000E-03 0. -1.
</event>
<event>
 8    1  0.1101883E+005  0.1043930E+01  0.7957747E-01            NaN
         13   -1    0    0    0    0  0.00000000000E+00  0.00000000000E+00  0.74505805969E-08  0.10566000000E+00  0.10566000000E+00 0. -1.
     999900   -1    0    0    0    0 -0.00000000000E+00 -0.00000000000E+00 -0.74505805969E-08  0.93827000000E+00  0.93827000000E+00 0.  1.
     999902    2    1    2    0    0 -0.88513306512E-02 -0.21682989818E-01  0.34371908337E-02  0.10202590815E+01  0.10199844514E+01 0.  0.
     999903    2    3    3    0    0  0.19448125457E-01  0.76347212442E-01  0.98247248437E-01  0.12930469053E+00  0.29326689817E-01 0.  0.
         14    1    1    2    0    0  0.88513306512E-02  0.21682989818E-01 -0.34371908337E-02  0.23670918499E-01  0.00000000000E+00 0.  1.
     999901    1    3    3    0    0 -0.28299456108E-01 -0.98030202260E-01 -0.94810057604E-01  0.89095439097E+00  0.88000000000E+00 0.  1.
        -11    1    4    4    0    0  0.17095774483E-01  0.35405715836E-01  0.67229476608E-01  0.77883848551E-01  0.51100000000E-03 0. -1.
         11    1    4    4    0    0  0.23523509744E-02  0.40941496606E-01  0.31017771829E-01  0.51420841978E-01  0.51100000000E-03 0.  1.
</event>
<event>
 8    1  0.1101883E+005  0.1043930E+01  0.7957747E-01            NaN
         13   -1    0    0    0    0  0.00000000000E+00  0.00000000000E+00  0.74505805969E-08  0.10566000000E+00  0.10566000000E+00 0.  1.
     999900   -1    0    0    0    0 -0.00000000000E+00 -0.00000000000E+00 -0.74505805969E-08  0.93827000000E+00  0.93827000000E+00 0. -1.
     999902    2    1    2    0    0 -0.27562706531E-03 -0.16128352968E-01  0.19537804638E-01  0.10185937503E+01  0.10182785977E+01 0.  0.
     999903    2    3    3    0    0 -0.11887603559E+00  0.42778009446E-01  0.13110307040E-01  0.12866266915E+00  0.20511761304E-01 0.  0.
         14    1    1    2    0    0  0.27562706531E-03  0.16128352968E-01 -0.19537804638E-01  0.25336249719E-01  0.00000000000E+00 0. -1.
     999901    1    3    3    0    0  0.11860040853E+00 -0.58906362414E-01  0.64274975986E-02  0.88993108113E+00  0.88000000000E+00 0. -1.
        -11    1    4    4    0    0 -0.62516142203E-01  0.31728807050E-01  0.12559998089E-01  0.71224994951E-01  0.51100000000E-03 0. -1.
         11    1    4    4    0    0 -0.56359893390E-01  0.11049202396E-01  0.55030895046E-03  0.57437674200E-01  0.51100000000E-03 0.  1.
</event>
<event>
 8    1  0.1101883E+005  0.1043930E+01  0.7957747E-01            NaN
         13   -1    0    0    0    0  0.00000000000E+00  0.00000000000E+00  0.74505805969E-08  0.10566000000E+00  0.10566000000E+00 0.  1.
     999900   -1    0    0    0    0 -0.00000000000E+00 -0.00000000000E+00 -0.74505805969E-08  0.93827000000E+00  0.93827000000E+00 0.  1.
     999902    2    1    2    0    0 -0.21842854439E-01 -0.85532613037E-02 -0.23820666006E-02  0.10203515605E+01  0.10200790970E+01 0.  0.
     999903    2    3    3    0    0  0.11161571061E+00 -0.49242278265E-01  0.35254962225E-01  0.12856496570E+00  0.20079074163E-01 0.  0.
         14    1    1    2    0    0  0.21842854439E-01  0.85532613037E-02  0.23820666006E-02  0.23578439521E-01  0.00000000000E+00 0.  1.
     999901    1    3    3    0    0 -0.13345856505E+00  0.40689016962E-01 -0.37637028826E-01  0.89178659478E+00  0.88000000000E+00 0.  1.
        -11    1    4    4    0    0  0.65630797221E-01 -0.19210710258E-01  0.14910797034E-01  0.69993184823E-01  0.51100000000E-03 0. -1.
         11    1    4    4    0    0  0.45984913393E-01 -0.30031568008E-01  0.20344165191E-01  0.58571780877E-01  0.51100000000E-03 0.  1.
</event>
<event>
 8    1  0.1101883E+005  0.1043930E+01  0.7957747E-01            NaN
         13   -1    0    0    0    0  0.00000000000E+00  0.00000000000E+00  0.74505805969E-08  0.10566000000E+00  0.10566000000E+00 0. -1.
     999900   -1    0    0    0    0 -0.00000000000E+00 -0.00000000000E+00 -0.74505805969E-08  0.93827000000E+00  0.93827000000E+00 0. -1.
     999902    2    1    2    0    0  0.22092671715E-01 -0.12746074830E-01  0.27455932774E-02  0.10182767965E+01  0.10179536077E+01 0.  0.
     999903    2    3    3    0    0 -0.83210349504E-01  0.56569146019E-02 -0.93836241284E-01  0.12656190537E+00  0.16022258459E-01 0.  0.
         14    1    1    2    0    0 -0.22092671715E-01  0.12746074830E-01 -0.27455932774E-02  0.25653203495E-01  0.00000000000E+00 0.  1.
     999901    1    3    3    0    0  0.10530302122E+00 -0.18402989432E-01  0.96581834562E-01  0.89171489113E+00  0.88000000000E+00 0.  1.
        -11    1    4    4    0    0 -0.62381845906E-01  0.40771462889E-03 -0.60511930305E-01  0.86911539855E-01  0.51100000000E-03 0.  1.
         11    1    4    4    0    0 -0.20828503599E-01  0.52491999730E-02 -0.33324310980E-01  0.39650365519E-01  0.51100000000E-03 0. -1.
</event>
<event>
 8    1  0.1101883E+005  0.1043930E+01  0.7957747E-01            NaN
         13   -1    0    0    0    0  0.00000000000E+00  0.00000000000E+00  0.74505805969E-08  0.10566000000E+00  0.10566000000E+00 0.  1.
     999900   -1    0    0    0    0 -0.00000000000E+00 -0.00000000000E+00 -0.74505805969E-08  0.93827000000E+00  0.93827000000E+00 0. -1.
     999902    2    1    2    0    0  0.41359093521E-02  0.89991669118E-02 -0.99474668899E-02  0.10298928048E+01  0.10297971385E+01 0.  0.
     999903    2    3    3    0    0 -0.12809850998E+00 -0.36521611841E-01 -0.32617119552E-01  0.13856121886E+00  0.19806021685E-01 0.  0.
         14    1    1    2    0    0 -0.41359093521E-02 -0.89991669118E-02  0.99474668899E-02  0.14037195190E-01  0.00000000000E+00 0. -1.
     999901    1    3    3    0    0  0.13223441933E+00  0.45520778753E-01  0.22669652662E-01  0.89133158595E+00  0.88000000000E+00 0. -1.
        -11    1    4    4    0    0 -0.17589463938E-01 -0.10424913991E-02  0.12019617006E-02  0.17668668961E-01  0.51100000000E-03 0. -1.
         11    1    4    4    0    0 -0.11050904604E+00 -0.35479120442E-01 -0.33819081253E-01  0.12089254990E+00  0.51100000000E-03 0.  1.
</event>
<event>
 8    1  0.1101883E+005  0.1043930E+01  0.7957747E-01            NaN
         13   -1    0    0    0    0  0.00000000000E+00  0.00000000000E+00  0.74505805969E-08  0.10566000000E+00  0.10566000000E+00 0.  1.
     999900   -1    0    0    0    0 -0.00000000000E+00 -0.00000000000E+00 -0.74505805969E-08  0.93827000000E+00  0.93827000000E+00 0.  1.
     999902    2    1    2    0    0  0.88171495164E-02 -0.21711710354E-01  0.15688473831E-01  0.10157294911E+01  0.10153379390E+01 0.  0.
     999903    2    3    3    0    0  0.10968876432E+00  0.18176956043E-01 -0.56056024486E-01  0.12617147644E+00  0.20369998436E-01 0.  0.
         14    1    1    2    0    0 -0.88171495164E-02  0.21711710354E-01 -0.15688473831E-01  0.28200508918E-01  0.00000000000E+00 0. -1.
     999901    1    3    3    0    0 -0.10087161480E+00 -0.39888666397E-01  0.71744498316E-01  0.88955801464E+00  0.88000000000E+00 0. -1.
        -11    1    4    4    0    0  0.14208061233E-01  0.26851361064E-02 -0.19532119866E-03  0.14469907784E-01  0.51100000000E-03 0. -1.
         11    1    4    4    0    0  0.95480703087E-01  0.15491819937E-01 -0.55860703287E-01  0.11170156865E+00  0.51100000000E-03 0.  1.
</event>
<event>
 8    1  0.1101883E+005  0.1043930E+01  0.7957747E-01            NaN
         13   -1    0    0    0    0  0.00000000000E+00  0.00000000000E+00  0.74505805969E-08  0.10566000000E+00  0.10566000000E+00 0. -1.
     999900   -1    0    0    0    0 -0.00000000000E+00 -0.00000000000E+00 -0.74505805969E-08  0.93827000000E+00  0.93827000000E+00 0.  1.
     999902    2    1    2    0    0  0.36022741620E-02 -0.68510107649E-02  0.22343193720E-01  0.10202840483E+01  0.10200100039E+01 0.  0.
     999903    2    3    3    0    0 -0.11554889593E+00  0.42181635237E-01 -0.32431628449E-01  0.12921643981E+00  0.22676862469E-01 0.  0.
         14    1    1    2    0    0 -0.36022741620E-02  0.68510107649E-02 -0.22343193720E-01  0.23645951731E-01  0.00000000000E+00 0.  1.
     999901    1    3    3    0    0  0.11915117009E+00 -0.49032646002E-01  0.54774822169E-01  0.89106760846E+00  0.88000000000E+00 0.  1.
        -11    1    4    4    0    0 -0.10042968256E+00  0.43799766307E-01 -0.31353135087E-01  0.11396412097E+00  0.51100000000E-03 0. -1.
         11    1    4    4    0    0 -0.15119213366E-01 -0.16181310698E-02 -0.10784933622E-02  0.15252318837E-01  0.51100000000E-03 0.  1.
</event>
<event>
 7    1  0.1101883E+005  0.1043930E+01  0.7957747E-01            NaN
         13   -1    0    0    0    0  0.00000000000E+00  0.00000000000E+00  0.74505805969E-08  0.10566000000E+00  0.10566000000E+00 0.  1.
     999900   -1    0    0    0    0 -0.00000000000E+00 -0.00000000000E+00 -0.74505805969E-08  0.93827000000E+00  0.93827000000E+00 0.  1.
     999903    2    1    2    0    0  0.87096214141E-01 -0.36323790165E-02  0.74527241083E-01  0.11640873956E+00  0.19943427145E-01 0.  0.
         14    1    1    2    0    0  0.22228513285E-01 -0.26618439676E-01 -0.16336545968E-01  0.38334460579E-01  0.00000000000E+00 0. -1.
     999901    1    1    2    0    0 -0.10932472743E+00  0.30250818693E-01 -0.58190695114E-01  0.88918679987E+00  0.88000000000E+00 0.  1.
        -11    1    3    3    0    0  0.73159165508E-01 -0.14668052621E-02  0.70780214413E-01  0.10180626154E+00  0.51100000000E-03 0. -1.
         11    1    3    3    0    0  0.13937048634E-01 -0.21655737544E-02  0.37470266696E-02  0.14602478015E-01  0.51100000000E-03 0.  1.
</event>
<event>
 8    1  0.1101883E+005  0.1043930E+01  0.7957747E-01            NaN
         13   -1    0    0    0    0  0.00000000000E+00  0.00000000000E+00  0.74505805969E-08  0.10566000000E+00  0.10566000000E+00 0. -1.
     999900   -1    0    0    0    0 -0.00000000000E+00 -0.00000000000E+00 -0.74505805969E-08  0.93827000000E+00  0.93827000000E+00 0.  1.
     999902    2    1    2    0    0  0.51393369365E-02 -0.20113743335E-01  0.11604672139E-01  0.10201467313E+01  0.10198694571E+01 0.  0.
     999903    2    3    3    0    0  0.11254949064E+00 -0.61123232910E-01 -0.24859251377E-01  0.13191909320E+00  0.19525043548E-01 0.  0.
         14    1    1    2    0    0 -0.51393369365E-02  0.20113743335E-01 -0.11604672139E-01  0.23783268710E-01  0.00000000000E+00 0.  1.
     999901    1    3    3    0    0 -0.10741015371E+00  0.41009489575E-01  0.36463923516E-01  0.88822763809E+00  0.88000000000E+00 0. -1.
        -11    1    4    4    0    0  0.67726864541E-01 -0.36060838865E-01 -0.51236447070E-02  0.76901398793E-01  0.51100000000E-03 0. -1.
         11    1    4    4    0    0  0.44822626101E-01 -0.25062394045E-01 -0.19735606670E-01  0.55017694404E-01  0.51100000000E-03 0.  1.
</event>
<event>
 8    1  0.1101883E+005  0.1043930E+01  0.7957747E-01            NaN
         13   -1    0    0    0    0  0.00000000000E+00  0.00000000000E+00  0.74505805969E-08  0.10566000000E+00  0.10566000000E+00 0.  1.
     999900   -1    0    0    0    0 -0.00000000000E+00 -0.00000000000E+00 -0.74505805969E-08  0.93827000000E+00  0.93827000000E+00 0. -1.
     999902    2    1    2    0    0  0.32579521165E-02  0.26113610803E-01 -0.17557214919E-01  0.10122947235E+01  0.10118002849E+01 0.  0.
     999903    2    3    3    0    0 -0.92323965637E-01  0.58605370663E-02  0.76592125855E-01  0.12189583070E+00  0.20836968914E-01 0.  0.
         14    1    1    2    0    0 -0.32579521165E-02 -0.26113610803E-01  0.17557214919E-01  0.31635276462E-01  0.00000000000E+00 0.  1.
     999901    1    3    3    0    0  0.95581917753E-01  0.20253073736E-01 -0.94149340774E-01  0.89039889284E+00  0.88000000000E+00 0. -1.
        -11    1    4    4    0    0 -0.76917472829E-01 -0.32409952943E-03  0.70074850291E-01  0.10405358442E+00  0.51100000000E-03 0. -1.
         11    1    4    4    0    0 -0.15406492808E-01  0.61846365957E-02  0.65172755646E-02  0.17842246278E-01  0.51100000000E-03 0.  1.
</event>
<event>
 8    1  0.1101883E+005  0.1043930E+01  0.7957747E-01            NaN
         13   -1    0    0    0    0  0.00000000000E+00  0.00000000000E+00  0.74505805969E-08  0.10566000000E+00  0.10566000000E+00 0.  1.
     999900   -1    0    0    0    0 -0.00000000000E+00 -0.00000000000E+00 -0.74505805969E-08  0.93827000000E+00  0.93827000000E+00 0. -1.
     999902    2    1    2    0    0  0.83163288534E-02  0.64869778985E-02  0.20996604489E-01  0.10204332000E+01  0.10201626420E+01 0.  0.
     999903    2    3    3    0    0  0.90534175618E-01 -0.52735591572E-01 -0.73465890814E-01  0.12959637432E+00  0.20506183212E-01 0.  0.
         14    1    1    2    0    0 -0.83163288534E-02 -0.64869778985E-02 -0.20996604489E-01  0.23496799950E-01  0.00000000000E+00 0. -1.
     999901    1    3    3    0    0 -0.82217846764E-01  0.59222569470E-01  0.94462495303E-01  0.89083682573E+00  0.88000000000E+00 0.  1.
        -11    1    4    4    0    0  0.47157781017E-01 -0.16710396371E-01 -0.39711532113E-01  0.63877700030E-01  0.51100000000E-03 0. -1.
         11    1    4    4    0    0  0.43376394600E-01 -0.36025195201E-01 -0.33754358701E-01  0.65718674287E-01  0.51100000000E-03 0.  1.
</event>
<event>
 8    1  0.1101883E+005  0.1043930E+01  0.7957747E-01            NaN
         13   -1    0    0    0    0  0.00000000000E+00  0.00000000000E+00  0.74505805969E-08  0.10566000000E+00  0.10566000000E+00 0. -1.
     999900   -1    0    0    0    0 -0.00000000000E+00 -0.00000000000E+00 -0.74505805969E-08  0.93827000000E+00  0.93827000000E+00 0. -1.
     999902    2    1    2    0    0  0.20439771468E-01 -0.90390274216E-02  0.41375522817E-02  0.10212009962E+01  0.10209480237E+01 0.  0.
     999903    2    3    3    0    0  0.79484897047E-03 -0.13091388760E+00 -0.32179791231E-02  0.13255398622E+00  0.20521357700E-01 0.  0.
         14    1    1    2    0    0 -0.20439771468E-01  0.90390274216E-02 -0.41375522817E-02  0.22729003790E-01  0.00000000000E+00 0. -1.
     999901    1    3    3    0    0  0.19644922497E-01  0.12187486018E+00  0.73555314048E-02  0.88864700999E+00  0.88000000000E+00 0.  1.
        -11    1    4    4    0    0 -0.11574756531E-02 -0.45634534301E-01  0.85407695329E-02  0.46444120575E-01  0.51100000000E-03 0. -1.
         11    1    4    4    0    0  0.19523246236E-02 -0.85279353299E-01 -0.11758748656E-01  0.86109865645E-01  0.51100000000E-03 0.  1.
</event>
<event>
 8    1  0.1101883E+005  0.1043930E+01  0.7957747E-01            NaN
         13   -1    0    0    0    0  0.00000000000E+00  0.00000000000E+00  0.74505805969E-08  0.10566000000E+00  0.10566000000E+00 0.  1.
     999900   -1    0    0    0    0 -0.00000000000E+00 -0.00000000000E+00 -0.74505805969E-08  0.93827000000E+00  0.93827000000E+00 0.  1.
     999902    2    1    2    0    0  0.18206842484E-01 -0.22347021831E-02 -0.13951958552E-01  0.10208835219E+01  0.10206233512E+01 0.  0.
     999903    2    3    3    0    0 -0.57347218804E-01  0.11084314308E+00  0.27921665506E-01  0.12945297737E+00  0.20088505976E-01 0.  0.
         14    1    1    2    0    0 -0.18206842484E-01  0.22347021831E-02  0.13951958552E-01  0.23046478137E-01  0.00000000000E+00 0.  1.
     999901    1    3    3    0    0  0.75554061287E-01 -0.11307784526E+00 -0.41873624058E-01  0.89143054449E+00  0.88000000000E+00 0. -1.
        -11    1    4    4    0    0 -0.31042226675E-01  0.38861657300E-01  0.96978229147E-02  0.50676988223E-01  0.51100000000E-03 0. -1.
         11    1    4    4    0    0 -0.26304992129E-01  0.71981485780E-01  0.18223842591E-01  0.78775989145E-01  0.51100000000E-03 0.  1.
</event>
<event>
 8    1  0.1101883E+005  0.1043930E+01  0.7957747E-01            NaN
         13   -1    0    0    0    0  0.00000000000E+00  0.00000000000E+00  0.74505805969E-08  0.10566000000E+00  0.10566000000E+00 0. -1.
     999900   -1    0    0    0    0 -0.00000000000E+00 -0.00000000000E+00 -0.74505805969E-08  0.93827000000E+00  0.93827000000E+00 0.  1.
     999902    2    1    2    0    0 -0.84005954309E-02 -0.21097765362E-01 -0.69403848892E-02  0.10201843762E+01  0.10199079894E+01 0.  0.
     999903    2    3    3    0    0 -0.45880486482E-01 -0.54175984608E-01  0.10847159775E+00  0.13124183782E+00  0.20451800115E-01 0.  0.
         14    1    1    2    0    0  0.84005954309E-02  0.21097765362E-01  0.69403848892E-02  0.23745623792E-01  0.00000000000E+00 0.  1.
     999901    1    3    3    0    0  0.37479891051E-01  0.33078219246E-01 -0.11541198264E+00  0.88894253839E+00  0.88000000000E+00 0.  1.
        -11    1    4    4    0    0 -0.21690929914E-01 -0.12491496441E-01  0.45611846806E-01  0.52031102371E-01  0.51100000000E-03 0.  1.
         11    1    4    4    0    0 -0.24189556568E-01 -0.41684488167E-01  0.62859750941E-01  0.79210735447E-01  0.51100000000E-03 0. -1.
</event>
<event>
 8    1  0.1203727E+005  0.1043930E+01  0.7957747E-01            NaN
         13   -1    0    0    0    0  0.00000000000E+00  0.00000000000E+00  0.74505805969E-08  0.10566000000E+00  0.10566000000E+00 0.  1.
     999900   -1    0    0    0    0 -0.00000000000E+00 -0.00000000000E+00 -0.74505805969E-08  0.93827000000E+00  0.93827000000E+00 0.  1.
     999902    2    1    2    0    0  0.50043790067E-02 -0.19381088548E-01  0.18606690370E-01  0.10166009069E+01  0.10162334991E+01 0.  0.
     999903    2    3    3    0    0  0.21894559583E-01  0.56610746528E-01  0.11112868843E+00  0.12833272819E+00  0.20869963350E-01 0.  0.
         14    1    1    2    0    0 -0.50043790067E-02  0.19381088548E-01 -0.18606690370E-01  0.27329093089E-01  0.00000000000E+00 0. -1.
     999901    1    3    3    0    0 -0.16890180576E-01 -0.75991835076E-01 -0.92521998065E-01  0.88826817872E+00  0.88000000000E+00 0.  1.
        -11    1    4    4    0    0  0.21109023292E-01  0.26664841487E-01  0.53864771202E-01  0.63704625684E-01  0.51100000000E-03 0. -1.
         11    1    4    4    0    0  0.78553629108E-03  0.29945905041E-01  0.57263917233E-01  0.64628102509E-01  0.51100000000E-03 0.  1.
</event>
<event>
 8    1  0.1101883E+005  0.1043930E+01  0.7957747E-01            NaN
         13   -1    0    0    0    0  0.00000000000E+00  0.00000000000E+00  0.74505805969E-08  0.10566000000E+00  0.10566000000E+00 0. -1.
     999900   -1    0    0    0    0 -0.00000000000E+00 -0.00000000000E+00 -0.74505805969E-08  0.93827000000E+00  0.93827000000E+00 0. -1.
     999902    2    1    2    0    0 -0.73864939017E-02 -0.16700868516E-02 -0.23622488122E-01  0.10191233189E+01  0.10188213620E+01 0.  0.
     999903    2    3    3    0    0  0.11912285225E+00  0.33864115434E-01 -0.31537869731E-01  0.12933123787E+00  0.19872081389E-01 0.  0.
         14    1    1    2    0    0  0.73864939017E-02  0.16700868516E-02  0.23622488122E-01  0.24806681103E-01  0.00000000000E+00 0. -1.
     999901    1    3    3    0    0 -0.12650934615E+00 -0.35534202286E-01  0.79153816087E-02  0.88979208103E+00  0.88000000000E+00 0. -1.
        -11    1    4    4    0    0  0.41756864249E-01  0.19778303136E-01 -0.57067866288E-02  0.46557980212E-01  0.51100000000E-03 0.  1.
         11    1    4    4    0    0  0.77365988003E-01  0.14085812298E-01 -0.25831083102E-01  0.82773257656E-01  0.51100000000E-03 0. -1.
</event>
<event>
 8    1  0.1101883E+005  0.1043930E+01  0.7957747E-01            NaN
         13   -1    0    0    0    0  0.00000000000E+00  0.00000000000E+00  0.74505805969E-08  0.10566000000E+00  0.10566000000E+00 0. -1.
     999900   -1    0    0    0    0 -0.00000000000E+00 -0.00000000000E+00 -0.74505805969E-08  0.93827000000E+00  0.93827000000E+00 0. -1.
     999902    2    1    2    0    0  0.30151818238E-01 -0.10942375411E-01 -0.11052086708E-01  0.10100033682E+01  0.10094333992E+01 0.  0.
     999903    2    3    3    0    0 -0.12572215609E-01 -0.52154320126E-01  0.10577206356E+00  0.12030024384E+00  0.20156525644E-01 0.  0.
         14    1    1    2    0    0 -0.30151818238E-01  0.10942375411E-01  0.11052086708E-01  0.33926631770E-01  0.00000000000E+00 0.  1.
     999901    1    3    3    0    0  0.42724033847E-01  0.41211944715E-01 -0.11682415027E+00  0.88970312439E+00  0.88000000000E+00 0. -1.
        -11    1    4    4    0    0 -0.13916067796E-01 -0.47297254510E-01  0.79526661916E-01  0.93570499109E-01  0.51100000000E-03 0. -1.
         11    1    4    4    0    0  0.13438521876E-02 -0.48570656155E-02  0.26245401645E-01  0.26729744735E-01  0.51100000000E-03 0.  1.
</event>
<event>
 7    1  0.1101883E+005  0.1043930E+01  0.7957747E-01            NaN
         13   -1    0    0    0    0  0.00000000000E+00  0.00000000000E+00  0.74505805969E-08  0.10566000000E+00  0.10566000000E+00 0.  1.
     999900   -1    0    0    0    0 -0.00000000000E+00 -0.00000000000E+00 -0.74505805969E-08  0.93827000000E+00  0.93827000000E+00 0. -1.
     999902    2    1    2    0    0 -0.13708000143E-01 -0.10911826018E-01 -0.14270439257E-01  0.10213330389E+01  0.10210830298E+01 0.  0.
         14    1    1    2    0    0  0.13708000143E-01  0.10911826018E-01  0.14270439257E-01  0.22596961113E-01  0.00000000000E+00 0.  1.
     999901    1    3    3    0    0  0.75204189577E-01 -0.59816037732E-01  0.62373726436E-01  0.88742555195E+00  0.88000000000E+00 0.  1.
        -11    1    3    3    0    0 -0.77401053192E-01  0.50615532903E-01 -0.79451859043E-01  0.12192503530E+00  0.51100000000E-03 0. -1.
         11    1    3    3    0    0 -0.11511136528E-01 -0.17113211886E-02  0.28076933503E-02  0.11982451640E-01  0.51100000000E-03 0.  1.
</event>
<event>
 8    1  0.1101883E+005  0.1043930E+01  0.7957747E-01            NaN
         13   -1    0    0    0    0  0.00000000000E+00  0.00000000000E+00  0.74505805969E-08  0.10566000000E+00  0.10566000000E+00 0.  1.
     999900   -1    0    0    0    0 -0.00000000000E+00 -0.00000000000E+00 -0.74505805969E-08  0.93827000000E+00  0.93827000000E+00 0.  1.
     999902    2    1    2    0    0  0.14013485897E-01  0.18120793207E-01 -0.45894816974E-02  0.10205675456E+01  0.10203001082E+01 0.  0.
     999903    2    3    3    0    0  0.12962156013E-01  0.43868198147E-02  0.12819284298E+00  0.13049964197E+00  0.20235856448E-01 0.  0.
         14    1    1    2    0    0 -0.14013485897E-01 -0.18120793207E-01  0.45894816974E-02  0.23362454402E-01  0.00000000000E+00 0. -1.
     999901    1    3    3    0    0  0.10513298844E-02  0.13733973392E-01 -0.13278232468E+00  0.89006790363E+00  0.88000000000E+00 0.  1.
        -11    1    4    4    0    0  0.15080614978E-01  0.79271440429E-02  0.65912819198E-01  0.68081020971E-01  0.51100000000E-03 0.  1.
         11    1    4    4    0    0 -0.21184589657E-02 -0.35403242282E-02  0.62280023784E-01  0.62418621000E-01  0.51100000000E-03 0. -1.
</event>
<event>
 8    1  0.1101883E+005  0.1043930E+01  0.7957747E-01            NaN
         13   -1    0    0    0    0  0.00000000000E+00  0.00000000000E+00  0.74505805969E-08  0.10566000000E+00  0.10566000000E+00 0. -1.
     999900   -1    0    0    0    0 -0.00000000000E+00 -0.00000000000E+00 -0.74505805969E-08  0.93827000000E+00  0.93827000000E+00 0. -1.
     999902    2    1    2    0    0  0.54863289988E-02 -0.19604973978E-01  0.11910132341E-02  0.10235370276E+01  0.10233338524E+01 0.  0.
     999903    2    3    3    0    0 -0.85482198752E-01 -0.39475256090E-01  0.93031921189E-01  0.13387144238E+00  0.20028044820E-01 0.  0.
         14    1    1    2    0    0 -0.54863289988E-02  0.19604973978E-01 -0.11910132341E-02  0.20392972394E-01  0.00000000000E+00 0.  1.
     999901    1    3    3    0    0  0.90968527751E-01  0.19870282112E-01 -0.91840907955E-01  0.88966558522E+00  0.88000000000E+00 0. -1.
        -11    1    4    4    0    0 -0.12667831989E-01 -0.14525144377E-01  0.17819777428E-01  0.26253749733E-01  0.51100000000E-03 0.  1.
         11    1    4    4    0    0 -0.72814366763E-01 -0.24950111713E-01  0.75212143761E-01  0.10761769265E+00  0.51100000000E-03 0. -1.
</event>
<event>
 8    1  0.1101883E+005  0.1043930E+01  0.7957747E-01            NaN
         13   -1    0    0    0    0  0.00000000000E+00  0.00000000000E+00  0.74505805969E-08  0.10566000000E+00  0.10566000000E+00 0. -1.
     999900   -1    0    0    0    0 -0.00000000000E+00 -0.00000000000E+00 -0.74505805969E-08  0.93827000000E+00  0.93827000000E+00 0. -1.
     999902    2    1    2    0    0  0.13645684127E-01  0.15156444062E-01  0.11484767537E-01  0.10205243943E+01  0.10202559566E+01 0.  0.
     999903    2    3    3    0    0 -0.22772245160E-01 -0.25621005046E-01 -0.12251238952E+00  0.12870361410E+00  0.19501888314E-01 0.  0.
         14    1    1    2    0    0 -0.13645684127E-01 -0.15156444062E-01 -0.11484767537E-01  0.23405605681E-01  0.00000000000E+00 0.  1.
     999901    1    3    3    0    0  0.36417929288E-01  0.40777449108E-01  0.13399715706E+00  0.89182078022E+00  0.88000000000E+00 0.  1.
        -11    1    4    4    0    0 -0.21447681622E-01 -0.10038567368E-01 -0.78293934540E-01  0.81798393557E-01  0.51100000000E-03 0. -1.
         11    1    4    4    0    0 -0.13245635389E-02 -0.15582437678E-01 -0.44218454979E-01  0.46905220544E-01  0.51100000000E-03 0.  1.
</event>
<event>
 8    1  0.1101883E+005  0.1043930E+01  0.7957747E-01            NaN
         13   -1    0    0    0    0  0.00000000000E+00  0.00000000000E+00  0.74505805969E-08  0.10566000000E+00  0.10566000000E+00 0. -1.
     999900   -1    0    0    0    0 -0.00000000000E+00 -0.00000000000E+00 -0.74505805969E-08  0.93827000000E+00  0.93827000000E+00 0. -1.
     999902    2    1    2    0    0  0.84488734355E-02  0.19665167645E-01  0.13576079059E-01  0.10185841482E+01  0.10182687537E+01 0.  0.
     999903    2    3    3    0    0 -0.10035218617E+00 -0.37332137381E-01 -0.64869536809E-01  0.12659755749E+00  0.18831755274E-01 0.  0.
         14    1    1    2    0    0 -0.84488734355E-02 -0.19665167645E-01 -0.13576079059E-01  0.25345851800E-01  0.00000000000E+00 0.  1.
     999901    1    3    3    0    0  0.10880105961E+00  0.56997305026E-01  0.78445615869E-01  0.89198659071E+00  0.88000000000E+00 0.  1.
        -11    1    4    4    0    0 -0.24843448934E-01 -0.12538615955E-02 -0.17687341792E-01  0.30526583571E-01  0.51100000000E-03 0.  1.
         11    1    4    4    0    0 -0.75508737237E-01 -0.36078275785E-01 -0.47182195017E-01  0.96070973922E-01  0.51100000000E-03 0. -1.
</event>
<event>
 8    1  0.1101883E+005  0.1043930E+01  0.7957747E-01            NaN
         13   -1    0    0    0    0  0.00000000000E+00  0.00000000000E+00  0.74505805969E-08  0.10566000000E+00  0.10566000000E+00 0. -1.
     999900   -1    0    0    0    0 -0.00000000000E+00 -0.00000000000E+00 -0.74505805969E-08  0.93827000000E+00  0.93827000000E+00 0.  1.
     999902    2    1    2    0    0  0.65093433386E-02 -0.14286509528E-01 -0.16697752136E-01  0.10210107759E+01  0.10207535029E+01 0.  0.
     999903    2    3    3    0    0 -0.50653003460E-02  0.96247067395E-01 -0.86956264147E-01  0.13124232150E+00  0.19339075174E-01 0.  0.
         14    1    1    2    0    0 -0.65093433386E-02  0.14286509528E-01  0.16697752136E-01  0.22919224061E-01  0.00000000000E+00 0.  1.
     999901    1    3    3    0    0  0.11574643685E-01 -0.11053357692E+00  0.70258512011E-01  0.88976845444E+00  0.88000000000E+00 0.  1.
        -11    1    4    4    0    0  0.58568687345E-02  0.63613925765E-01 -0.56601589171E-01  0.85352419299E-01  0.51100000000E-03 0.  1.
         11    1    4    4    0    0 -0.10922169081E-01  0.32633141630E-01 -0.30354674977E-01  0.45889902201E-01  0.51100000000E-03 0. -1.
</event>
<event>
 8    1  0.1101883E+005  0.1043930E+01  0.7957747E-01            NaN
         13   -1    0    0    0    0  0.00000000000E+00  0.00000000000E+00  0.74505805969E-08  0.10566000000E+00  0.10566000000E+00 0. -1.
     999900   -1    0    0    0    0 -0.00000000000E+00 -0.00000000000E+00 -0.74505805969E-08  0.93827000000E+00  0.93827000000E+00 0. -1.
     999902    2    1    2    0    0  0.50367472972E-02 -0.59627058718E-02 -0.22890300112E-01  0.10197455314E+01  0.10194587094E+01 0.  0.
     999903    2    3    3    0    0  0.72869915062E-01  0.92906870981E-01  0.47314931551E-01  0.12884413028E+00  0.20503559774E-01 0.  0.
         14    1    1    2    0    0 -0.50367472972E-02  0.59627058718E-02  0.22890300112E-01  0.24184468650E-01  0.00000000000E+00 0. -1.
     999901    1    3    3    0    0 -0.67833167764E-01 -0.98869576852E-01 -0.70205231664E-01  0.89090140107E+00  0.88000000000E+00 0. -1.
        -11    1    4    4    0    0  0.51554348597E-01  0.50685754080E-01  0.32596687845E-01  0.79307639641E-01  0.51100000000E-03 0. -1.
         11    1    4    4    0    0  0.21315566464E-01  0.42221116901E-01  0.14718243707E-01  0.49536490639E-01  0.51100000000E-03 0.  1.
</event>
<event>
 8    1  0.1101883E+005  0.1043930E+01  0.7957747E-01            NaN
         13   -1    0    0    0    0  0.00000000000E+00  0.00000000000E+00  0.74505805969E-08  0.10566000000E+00  0.10566000000E+00 0. -1.
     999900   -1    0    0    0    0 -0.00000000000E+00 -0.00000000000E+00 -0.74505805969E-08  0.93827000000E+00  0.93827000000E+00 0.  1.
     999902    2    1    2    0    0 -0.24551751909E-01  0.70767548746E-02 -0.71798948133E-02  0.10173890906E+01  0.10170428417E+01 0.  0.
     999903    2    3    3    0    0  0.10840992889E+00 -0.75844134982E-02  0.58206007807E-01  0.12488190595E+00  0.19932763926E-01 0.  0.
         14    1    1    2    0    0  0.24551751909E-01 -0.70767548746E-02  0.71798948133E-02  0.26540909384E-01  0.00000000000E+00 0.  1.
     999901    1    3    3    0    0 -0.13296168080E+00  0.14661168373E-01 -0.65385902621E-01  0.89250718467E+00  0.88000000000E+00 0.  1.
        -11    1    4    4    0    0  0.35846230989E-01  0.65383830816E-02  0.16508352177E-01  0.40006118807E-01  0.51100000000E-03 0.  1.
         11    1    4    4    0    0  0.72563697906E-01 -0.14122796580E-01  0.41697655630E-01  0.84875787143E-01  0.51100000000E-03 0. -1.
</event>
<event>
 8    1  0.1101883E+005  0.1043930E+01  0.7957747E-01            NaN
         13   -1    0    0    0    0  0.00000000000E+00  0.00000000000E+00  0.74505805969E-08  0.10566000000E+00  0.10566000000E+00 0.  1.
     999900   -1    0    0    0    0 -0.00000000000E+00 -0.00000000000E+00 -0.74505805969E-08  0.93827000000E+00  0.93827000000E+00 0. -1.
     999902    2    1    2    0    0 -0.70419480370E-02 -0.22241160100E-01  0.13800176387E-02  0.10205598763E+01  0.10202922612E+01 0.  0.
     999903    2    3    3    0    0 -0.18134069037E-01  0.96791022304E-01 -0.80300446621E-01  0.12872839339E+00  0.20627435122E-01 0.  0.
         14    1    1    2    0    0  0.70419480370E-02  0.22241160100E-01 -0.13800176387E-02  0.23370123736E-01  0.00000000000E+00 0.  1.
     999901    1    3    3    0    0  0.11092121000E-01 -0.11903218240E+00  0.81680464260E-01  0.89183148287E+00  0.88000000000E+00 0. -1.
        -11    1    4    4    0    0 -0.18663138896E-01  0.55565509563E-01 -0.54823320237E-01  0.80260177979E-01  0.51100000000E-03 0.  1.
         11    1    4    4    0    0  0.52906985953E-03  0.41225512741E-01 -0.25477126384E-01  0.48468215415E-01  0.51100000000E-03 0. -1.
</event>
<event>
 8    1  0.1197596E+005  0.1043930E+01  0.7957747E-01            NaN
         13   -1    0    0    0    0  0.00000000000E+00  0.00000000000E+00  0.74505805969E-08  0.10566000000E+00  0.10566000000E+00 0.  1.
     999900   -1    0    0    0    0 -0.00000000000E+00 -0.00000000000E+00 -0.74505805969E-08  0.93827000000E+00  0.93827000000E+00 0.  1.
     999902    2    1    2    0    0  0.21149566228E-01  0.77236705356E-02  0.15274404755E-02  0.10213624943E+01  0.10211131438E+01 0.  0.
     999903    2    3    3    0    0  0.46390821114E-01 -0.10802282176E+00  0.56579861580E-01  0.13171922846E+00  0.18100721083E-01 0.  0.
         14    1    1    2    0    0 -0.21149566228E-01 -0.77236705356E-02 -0.15274404755E-02  0.22567505680E-01  0.00000000000E+00 0. -1.
     999901    1    3    3    0    0 -0.25241254886E-01  0.11574649230E+00 -0.55052421105E-01  0.88964326586E+00  0.88000000000E+00 0.  1.
        -11    1    4    4    0    0  0.22217343733E-01 -0.30877085320E-01  0.20053537235E-01  0.43004769934E-01  0.51100000000E-03 0.  1.
         11    1    4    4    0    0  0.24173477381E-01 -0.77145736442E-01  0.36526324346E-01  0.88714458523E-01  0.51100000000E-03 0. -1.
</event>
<event>
 8    1  0.1101883E+005  0.1043930E+01  0.7957747E-01            NaN
         13   -1    0    0    0    0  0.00000000000E+00  0.00000000000E+00  0.74505805969E-08  0.10566000000E+00  0.10566000000E+00 0. -1.
     999900   -1    0    0    0    0 -0.00000000000E+00 -0.00000000000E+00 -0.74505805969E-08  0.93827000000E+00  0.93827000000E+00 0.  1.
     999902    2    1    2    0    0 -0.14947712348E-01 -0.12092656472E-01 -0.17479870387E-01  0.10179451522E+01  0.10176134436E+01 0.  0.
     999903    2    3    3    0    0  0.90590596112E-01  0.75271209765E-01 -0.43394487498E-01  0.12696684326E+00  0.19107239941E-01 0.  0.
         14    1    1    2    0    0  0.14947712348E-01  0.12092656472E-01  0.17479870387E-01  0.25984847771E-01  0.00000000000E+00 0.  1.
     999901    1    3    3    0    0 -0.10553830846E+00 -0.87363866237E-01  0.25914617112E-01  0.89097830897E+00  0.88000000000E+00 0. -1.
        -11    1    4    4    0    0  0.20076176180E-02 -0.84941553602E-03 -0.21422167215E-02  0.30987495437E-02  0.51100000000E-03 0. -1.
         11    1    4    4    0    0  0.88582978494E-01  0.76120625301E-01 -0.41252270777E-01  0.12386809371E+00  0.51100000000E-03 0.  1.
</event>
<event>
 8    1  0.1101883E+005  0.1043930E+01  0.7957747E-01            NaN
         13   -1    0    0    0    0  0.00000000000E+00  0.00000000000E+00  0.74505805969E-08  0.10566000000E+00  0.10566000000E+00 0.  1.
     999900   -1    0    0    0    0 -0.00000000000E+00 -0.00000000000E+00 -0.74505805969E-08  0.93827000000E+00  0.93827000000E+00 0.  1.
     999902    2    1    2    0    0 -0.98754434293E-03  0.15640621397E-01 -0.18347030177E-01  0.10198008103E+01  0.10195153137E+01 0.  0.
     999903    2    3    3    0    0  0.91445582002E-01 -0.65678234884E-01 -0.62054344655E-01  0.13015651697E+00  0.20348272998E-01 0.  0.
         14    1    1    2    0    0  0.98754434293E-03 -0.15640621397E-01  0.18347030177E-01  0.24129189747E-01  0.00000000000E+00 0. -1.
     999901    1    3    3    0    0 -0.92433126345E-01  0.81318856280E-01  0.43707314478E-01  0.88964429328E+00  0.88000000000E+00 0. -1.
        -11    1    4    4    0    0  0.54356557629E-01 -0.31725170690E-01 -0.43712141779E-01  0.76629852359E-01  0.51100000000E-03 0.  1.
         11    1    4    4    0    0  0.37089024373E-01 -0.33953064193E-01 -0.18342202877E-01  0.53526664611E-01  0.51100000000E-03 0. -1.
</event>
<event>
 8    1  0.1101883E+005  0.1043930E+01  0.7957747E-01            NaN
         13   -1    0    0    0    0  0.00000000000E+00  0.00000000000E+00  0.74505805969E-08  0.10566000000E+00  0.10566000000E+00 0.  1.
     999900   -1    0    0    0    0 -0.00000000000E+00 -0.00000000000E+00 -0.74505805969E-08  0.93827000000E+00  0.93827000000E+00 0.  1.
     999902    2    1    2    0    0  0.10237421358E-02 -0.14947862641E-01  0.19775339352E-01  0.10191197059E+01  0.10188176600E+01 0.  0.
     999903    2    3    3    0    0 -0.50077559864E-01 -0.43174975368E-01 -0.10790898533E+00  0.12799042253E+00  0.19114357028E-01 0.  0.
         14    1    1    2    0    0 -0.10237421358E-02  0.14947862641E-01 -0.19775339352E-01  0.24810294073E-01  0.00000000000E+00 0. -1.
     999901    1    3    3    0    0  0.51101302000E-01  0.28227112727E-01  0.12768432468E+00  0.89112928340E+00  0.88000000000E+00 0. -1.
        -11    1    4    4    0    0 -0.32919239176E-01 -0.22435364362E-01 -0.79057554307E-01  0.88528977719E-01  0.51100000000E-03 0.  1.
         11    1    4    4    0    0 -0.17158320688E-01 -0.20739611006E-01 -0.28851431022E-01  0.39461444811E-01  0.51100000000E-03 0. -1.
</event>
<event>
 8    1  0.1101883E+005  0.1043930E+01  0.7957747E-01            NaN
         13   -1    0    0    0    0  0.00000000000E+00  0.00000000000E+00  0.74505805969E-08  0.10566000000E+00  0.10566000000E+00 0. -1.
     999900   -1    0    0    0    0 -0.00000000000E+00 -0.00000000000E+00 -0.74505805969E-08  0.93827000000E+00  0.93827000000E+00 0. -1.
     999902    2    1    2    0    0 -0.49654212305E-02 -0.13195642031E-01 -0.19320672498E-01  0.10200120410E+01  0.10197315799E+01 0.  0.
     999903    2    3    3    0    0 -0.75670025794E-01  0.10192390314E+00 -0.18307709762E-01  0.12970160252E+00  0.19310583246E-01 0.  0.
         14    1    1    2    0    0  0.49654212305E-02  0.13195642031E-01  0.19320672498E-01  0.23917958993E-01  0.00000000000E+00 0. -1.
     999901    1    3    3    0    0  0.70704604564E-01 -0.11511954517E+00 -0.10129627360E-02  0.89031043849E+00  0.88000000000E+00 0. -1.
        -11    1    4    4    0    0 -0.24034809300E-01  0.46824264908E-01 -0.35175198256E-02  0.52752420882E-01  0.51100000000E-03 0. -1.
         11    1    4    4    0    0 -0.51635216494E-01  0.55099638228E-01 -0.14790189937E-01  0.76949181637E-01  0.51100000000E-03 0.  1.
</event>
<event>
 8    1  0.1101883E+005  0.1043930E+01  0.7957747E-01            NaN
         13   -1    0    0    0    0  0.00000000000E+00  0.00000000000E+00  0.74505805969E-08  0.10566000000E+00  0.10566000000E+00 0. -1.
     999900   -1    0    0    0    0 -0.00000000000E+00 -0.00000000000E+00 -0.74505805969E-08  0.93827000000E+00  0.93827000000E+00 0.  1.
     999902    2    1    2    0    0  0.55382411301E-02 -0.99866071273E-02  0.20421346849E-01  0.10205326531E+01  0.10202644070E+01 0.  0.
     999903    2    3    3    0    0 -0.19089966111E-02  0.20810024730E-02 -0.12643058524E+00  0.12825098312E+00  0.21345888308E-01 0.  0.
         14    1    1    2    0    0 -0.55382411301E-02  0.99866071273E-02 -0.20421346849E-01  0.23397346941E-01  0.00000000000E+00 0.  1.
     999901    1    3    3    0    0  0.74472377412E-02 -0.12067609600E-01  0.14685193209E+00  0.89228166994E+00  0.88000000000E+00 0. -1.
        -11    1    4    4    0    0 -0.82373249171E-02  0.75985375533E-02 -0.96855024182E-01  0.97502554454E-01  0.51100000000E-03 0. -1.
         11    1    4    4    0    0  0.63283283060E-02 -0.55175350803E-02 -0.29575561058E-01  0.30748428666E-01  0.51100000000E-03 0.  1.
</event>
<event>
 8    1  0.1101883E+005  0.1043930E+01  0.7957747E-01            NaN
         13   -1    0    0    0    0  0.00000000000E+00  0.00000000000E+00  0.74505805969E-08  0.10566000000E+00  0.10566000000E+00 0. -1.
     999900   -1    0    0    0    0 -0.00000000000E+00 -0.00000000000E+00 -0.74505805969E-08  0.93827000000E+00  0.93827000000E+00 0.  1.
     999902    2    1    2    0    0  0.10187316043E-01  0.21166193561E-01  0.42045503002E-02  0.10200664839E+01  0.10197873132E+01 0.  0.
     999903    2    3    3    0    0  0.10902306135E-01 -0.12044302160E+00  0.37423852624E-01  0.12812634964E+00  0.19759428041E-01 0.  0.
         14    1    1    2    0    0 -0.10187316043E-01 -0.21166193561E-01 -0.42045503002E-02  0.23863516113E-01  0.00000000000E+00 0.  1.
     999901    1    3    3    0    0 -0.71499009282E-03  0.14160921516E+00 -0.33219302324E-01  0.89194013424E+00  0.88000000000E+00 0. -1.
        -11    1    4    4    0    0  0.13322577290E-01 -0.44082534264E-01  0.11784192220E-01  0.47538291934E-01  0.51100000000E-03 0. -1.
         11    1    4    4    0    0 -0.24202711543E-02 -0.76360487336E-01  0.25639660404E-01  0.80588057709E-01  0.51100000000E-03 0.  1.
</event>
<event>
 8    1  0.1101883E+005  0.1043930E+01  0.7957747E-01            NaN
         13   -1    0    0    0    0  0.00000000000E+00  0.00000000000E+00  0.74505805969E-08  0.10566000000E+00  0.10566000000E+00 0.  1.
     999900   -1    0    0    0    0 -0.00000000000E+00 -0.00000000000E+00 -0.74505805969E-08  0.93827000000E+00  0.93827000000E+00 0. -1.
     999902    2    1    2    0    0 -0.17318081282E-01  0.92595825638E-02  0.61598044506E-02  0.10233484792E+01  0.10231414911E+01 0.  0.
     999903    2    3    3    0    0 -0.87700333525E-01 -0.94534266514E-01  0.31001639082E-01  0.13411063625E+00  0.19911933228E-01 0.  0.
         14    1    1    2    0    0  0.17318081282E-01 -0.92595825638E-02 -0.61598044506E-02  0.20581520824E-01  0.00000000000E+00 0. -1.
     999901    1    3    3    0    0  0.70382252244E-01  0.10379384908E+00 -0.24841834631E-01  0.88923784292E+00  0.88000000000E+00 0.  1.
        -11    1    4    4    0    0 -0.59578910513E-01 -0.74792780645E-01  0.17615433664E-01  0.97232562646E-01  0.51100000000E-03 0.  1.
         11    1    4    4    0    0 -0.28121423012E-01 -0.19741485869E-01  0.13386205417E-01  0.36878073608E-01  0.51100000000E-03 0. -1.
</event>
<event>
 8    1  0.1101883E+005  0.1043930E+01  0.7957747E-01            NaN
         13   -1    0    0    0    0  0.00000000000E+00  0.00000000000E+00  0.74505805969E-08  0.10566000000E+00  0.10566000000E+00 0.  1.
     999900   -1    0    0    0    0 -0.00000000000E+00 -0.00000000000E+00 -0.74505805969E-08  0.93827000000E+00  0.93827000000E+00 0.  1.
     999902    2    1    2    0    0 -0.42351500988E-02  0.17283165778E-01  0.16023902285E-01  0.10199840241E+01  0.10197028978E+01 0.  0.
     999903    2    3    3    0    0 -0.11060250832E+00  0.54559192956E-02  0.68925362225E-01  0.13192295466E+00  0.19755467768E-01 0.  0.
         14    1    1    2    0    0  0.42351500988E-02 -0.17283165778E-01 -0.16023902285E-01  0.23945975865E-01  0.00000000000E+00 0. -1.
     999901    1    3    3    0    0  0.10636735822E+00  0.11827246483E-01 -0.52901459940E-01  0.88806106948E+00  0.88000000000E+00 0.  1.
        -11    1    4    4    0    0 -0.97642544942E-01  0.76887262828E-02  0.53355086640E-01  0.11153568705E+00  0.51100000000E-03 0. -1.
         11    1    4    4    0    0 -0.12959963376E-01 -0.22328069873E-02  0.15570275586E-01  0.20387267609E-01  0.51100000000E-03 0.  1.
</event>
<event>
 8    1  0.1101883E+005  0.1043930E+01  0.7957747E-01            NaN
         13   -1    0    0    0    0  0.00000000000E+00  0.00000000000E+00  0.74505805969E-08  0.10566000000E+00  0.10566000000E+00 0.  1.
     999900   -1    0    0    0    0 -0.00000000000E+00 -0.00000000000E+00 -0.74505805969E-08  0.93827000000E+00  0.93827000000E+00 0. -1.
     999902    2    1    2    0    0 -0.15088738427E-01  0.15950031763E-01 -0.91128975922E-02  0.10201577800E+01  0.10198807664E+01 0.  0.
     999903    2    3    3    0    0 -0.12740520670E+00 -0.13044994368E-01  0.23979673014E-01  0.13192874490E+00  0.20685996246E-01 0.  0.
         14    1    1    2    0    0  0.15088738427E-01 -0.15950031763E-01  0.91128975922E-02  0.23772219986E-01  0.00000000000E+00 0.  1.
     999901    1    3    3    0    0  0.11231646828E+00  0.28995026131E-01 -0.33092570606E-01  0.88822903511E+00  0.88000000000E+00 0.  1.
        -11    1    4    4    0    0 -0.79398533506E-01 -0.16014173501E-01  0.21301197151E-01  0.83753107386E-01  0.51100000000E-03 0. -1.
         11    1    4    4    0    0 -0.48006673196E-01  0.29691791333E-02  0.26784758630E-02  0.48175637516E-01  0.51100000000E-03 0.  1.
</event>
<event>
 8    1  0.1101883E+005  0.1043930E+01  0.7957747E-01            NaN
         13   -1    0    0    0    0  0.00000000000E+00  0.00000000000E+00  0.74505805969E-08  0.10566000000E+00  0.10566000000E+00 0.  1.
     999900   -1    0    0    0    0 -0.00000000000E+00 -0.00000000000E+00 -0.74505805969E-08  0.93827000000E+00  0.93827000000E+00 0.  1.
     999902    2    1    2    0    0  0.29681171669E-02  0.20901654146E-01 -0.10879207680E-01  0.10201803468E+01  0.10199038651E+01 0.  0.
     999903    2    3    3    0    0 -0.95433494424E-01  0.65721730803E-01  0.57800672330E-01  0.13090612459E+00  0.19198905592E-01 0.  0.
         14    1    1    2    0    0 -0.29681171669E-02 -0.20901654146E-01  0.10879207680E-01  0.23749653162E-01  0.00000000000E+00 0. -1.
     999901    1    3    3    0    0  0.98401611591E-01 -0.44820076657E-01 -0.68679880010E-01  0.88927422225E+00  0.88000000000E+00 0.  1.
        -11    1    4    4    0    0 -0.29610373066E-01  0.31385015580E-01  0.23274050093E-01  0.49027909652E-01  0.51100000000E-03 0.  1.
         11    1    4    4    0    0 -0.65823121358E-01  0.34336715223E-01  0.34526622236E-01  0.81878214939E-01  0.51100000000E-03 0. -1.
</event>
<event>
 8    1  0.1101883E+005  0.1043930E+01  0.7957747E-01            NaN
         13   -1    0    0    0    0  0.00000000000E+00  0.00000000000E+00  0.74505805969E-08  0.10566000000E+00  0.10566000000E+00 0. -1.
     999900   -1    0    0    0    0 -0.00000000000E+00 -0.00000000000E+00 -0.74505805969E-08  0.93827000000E+00  0.93827000000E+00 0.  1.
     999902    2    1    2    0    0 -0.32549146668E-02 -0.10153628831E-01 -0.20758775615E-01  0.10205929605E+01  0.10203261114E+01 0.  0.
     999903    2    3    3    0    0  0.94086352058E-01 -0.71627397877E-01  0.50689388742E-01  0.13022270791E+00  0.20144819556E-01 0.  0.
         14    1    1    2    0    0  0.32549146668E-02  0.10153628831E-01  0.20758775615E-01  0.23337039507E-01  0.00000000000E+00 0.  1.
     999901    1    3    3    0    0 -0.97341266725E-01  0.61473769046E-01 -0.71448164357E-01  0.89037025258E+00  0.88000000000E+00 0.  1.
        -11    1    4    4    0    0  0.51602274511E-01 -0.46913055688E-01  0.38158379429E-01  0.79498129351E-01  0.51100000000E-03 0. -1.
         11    1    4    4    0    0  0.42484077548E-01 -0.24714342189E-01  0.12531009313E-01  0.50724578562E-01  0.51100000000E-03 0.  1.
</event>
<event>
 8    1  0.1101883E+005  0.1043930E+01  0.7957747E-01            NaN
         13   -1    0    0    0    0  0.00000000000E+00  0.00000000000E+00  0.74505805969E-08  0.10566000000E+00  0.10566000000E+00 0.  1.
     999900   -1    0    0    0    0 -0.00000000000E+00 -0.00000000000E+00 -0.74505805969E-08  0.93827000000E+00  0.93827000000E+00 0. -1.
     999902    2    1    2    0    0  0.81851479306E-02 -0.12967989905E-01  0.17689027653E-01  0.10205191669E+01  0.10202506079E+01 0.  0.
     999903    2    3    3    0    0 -0.44636582672E-01 -0.95679208417E-01  0.79045816383E-01  0.13294047378E+00  0.16673123449E-01 0.  0.
         14    1    1    2    0    0 -0.81851479306E-02  0.12967989905E-01 -0.17689027653E-01  0.23410833136E-01  0.00000000000E+00 0.  1.
     999901    1    3    3    0    0  0.52821730602E-01  0.82711218511E-01 -0.61356788730E-01  0.88757869308E+00  0.88000000000E+00 0. -1.
        -11    1    4    4    0    0 -0.16671880472E-01 -0.21997022483E-01  0.26134656461E-01  0.38014497049E-01  0.51100000000E-03 0.  1.
         11    1    4    4    0    0 -0.27964702199E-01 -0.73682185934E-01  0.52911159922E-01  0.94925976731E-01  0.51100000000E-03 0. -1.
</event>
<event>
 8    1  0.1101883E+005  0.1043930E+01  0.7957747E-01            NaN
         13   -1    0    0    0    0  0.00000000000E+00  0.00000000000E+00  0.74505805969E-08  0.10566000000E+00  0.10566000000E+00 0. -1.
     999900   -1    0    0    0    0 -0.00000000000E+00 -0.00000000000E+00 -0.74505805969E-08  0.93827000000E+00  0.93827000000E+00 0.  1.
     999902    2    1    2    0    0 -0.12349599088E-01  0.12488583933E-02  0.24970449377E-01  0.10160445990E+01  0.10156618688E+01 0.  0.
     999903    2    3    3    0    0 -0.11479751965E+00  0.29850243472E-01 -0.41314701648E-01  0.12716477763E+00  0.19861232174E-01 0.  0.
         14    1    1    2    0    0  0.12349599088E-01 -0.12488583933E-02 -0.24970449377E-01  0.27885400966E-01  0.00000000000E+00 0.  1.
     999901    1    3    3    0    0  0.10244792056E+00 -0.28601385079E-01  0.66285151025E-01  0.88887982141E+00  0.88000000000E+00 0.  1.
        -11    1    4    4    0    0 -0.26891283514E-01  0.13731480842E-01 -0.16491658941E-01  0.34408293052E-01  0.51100000000E-03 0.  1.
         11    1    4    4    0    0 -0.87906236138E-01  0.16118762630E-01 -0.24823042706E-01  0.92756484576E-01  0.51100000000E-03 0. -1.
</event>
<event>
 8    1  0.1101883E+005  0.1043930E+01  0.7957747E-01            NaN
         13   -1    0    0    0    0  0.00000000000E+00  0.00000000000E+00  0.74505805969E-08  0.10566000000E+00  0.10566000000E+00 0. -1.
     999900   -1    0    0    0    0 -0.00000000000E+00 -0.00000000000E+00 -0.74505805969E-08  0.93827000000E+00  0.93827000000E+00 0. -1.
     999902    2    1    2    0    0  0.11957739775E-01  0.61120384610E-03 -0.19287711661E-01  0.10212280853E+01  0.10209757222E+01 0.  0.
     999903    2    3    3    0    0  0.10923894733E+00  0.18534848546E-01 -0.72776388800E-01  0.13407199475E+00  0.20055143613E-01 0.  0.
         14    1    1    2    0    0 -0.11957739775E-01 -0.61120384610E-03  0.19287711661E-01  0.22701914716E-01  0.00000000000E+00 0. -1.
     999901    1    3    3    0    0 -0.97281207558E-01 -0.17923644700E-01  0.53488677139E-01  0.88715609053E+00  0.88000000000E+00 0.  1.
        -11    1    4    4    0    0  0.18925379798E-01  0.73929617161E-02 -0.21642954617E-01  0.29690141276E-01  0.51100000000E-03 0.  1.
         11    1    4    4    0    0  0.90313567535E-01  0.11141886830E-01 -0.51133434183E-01  0.10438185348E+00  0.51100000000E-03 0. -1.
</event>
<event>
 8    1  0.1101883E+005  0.1043930E+01  0.7957747E-01            NaN
         13   -1    0    0    0    0  0.00000000000E+00  0.00000000000E+00  0.74505805969E-08  0.10566000000E+00  0.10566000000E+00 0.  1.
     999900   -1    0    0    0    0 -0.00000000000E+00 -0.00000000000E+00 -0.74505805969E-08  0.93827000000E+00  0.93827000000E+00 0.  1.
     999902    2    1    2    0    0  0.10398782498E-01  0.20460246772E-01 -0.36930155886E-03  0.10209758553E+01  0.10207177888E+01 0.  0.
     999903    2    3    3    0    0  0.86327415992E-01  0.10912888607E-01 -0.97601152862E-01  0.13231937367E+00  0.20271105507E-01 0.  0.
         14    1    1    2    0    0 -0.10398782498E-01 -0.20460246772E-01  0.36930155886E-03  0.22954144703E-01  0.00000000000E+00 0.  1.
     999901    1    3    3    0    0 -0.75928633494E-01  0.95473581655E-02  0.97231851303E-01  0.88865648163E+00  0.88000000000E+00 0. -1.
        -11    1    4    4    0    0  0.59386248721E-01  0.43999794186E-02 -0.52548860843E-01  0.79421220419E-01  0.51100000000E-03 0. -1.
         11    1    4    4    0    0  0.26941167271E-01  0.65129091883E-02 -0.45052292018E-01  0.52898153249E-01  0.51100000000E-03 0.  1.
</event>
<event>
 8    1  0.1101883E+005  0.1043930E+01  0.7957747E-01            NaN
         13   -1    0    0    0    0  0.00000000000E+00  0.00000000000E+00  0.74505805969E-08  0.10566000000E+00  0.10566000000E+00 0. -1.
     999900   -1    0    0    0    0 -0.00000000000E+00 -0.00000000000E+00 -0.74505805969E-08  0.93827000000E+00  0.93827000000E+00 0. -1.
     999902    2    1    2    0    0 -0.79760834409E-02  0.21841272275E-01 -0.55538924450E-02  0.10200238334E+01  0.10197436520E+01 0.  0.
     999903    2    3    3    0    0 -0.97463950943E-02 -0.49937515963E-01  0.11606350046E+00  0.12876286222E+00  0.22812076408E-01 0.  0.
         14    1    1    2    0    0  0.79760834409E-02 -0.21841272275E-01  0.55538924450E-02  0.23906166630E-01  0.00000000000E+00 0. -1.
     999901    1    3    3    0    0  0.17703116534E-02  0.71778788237E-01 -0.12161739290E+00  0.89126097115E+00  0.88000000000E+00 0. -1.
        -11    1    4    4    0    0 -0.91749421178E-02 -0.11410208930E-01  0.51794285384E-01  0.53826401980E-01  0.51100000000E-03 0.  1.
         11    1    4    4    0    0 -0.57145297656E-03 -0.38527307033E-01  0.64269215074E-01  0.74936460237E-01  0.51100000000E-03 0. -1.
</event>
<event>
 8    1  0.1101883E+005  0.1043930E+01  0.7957747E-01            NaN
         13   -1    0    0    0    0  0.00000000000E+00  0.00000000000E+00  0.74505805969E-08  0.10566000000E+00  0.10566000000E+00 0. -1.
     999900   -1    0    0    0    0 -0.00000000000E+00 -0.00000000000E+00 -0.74505805969E-08  0.93827000000E+00  0.93827000000E+00 0. -1.
     999902    2    1    2    0    0  0.40673435155E-02 -0.15903620000E-01  0.17633599377E-01  0.10198382537E+01  0.10195536531E+01 0.  0.
     999903    2    3    3    0    0  0.68293432059E-01  0.87431462221E-01 -0.60696915305E-01  0.12802055978E+00  0.19922217532E-01 0.  0.
         14    1    1    2    0    0 -0.40673435155E-02  0.15903620000E-01 -0.17633599377E-01  0.24091746291E-01  0.00000000000E+00 0.  1.
     999901    1    3    3    0    0 -0.64226088543E-01 -0.10333508222E+00  0.78330514682E-01  0.89181769392E+00  0.88000000000E+00 0.  1.
        -11    1    4    4    0    0  0.48946400258E-01  0.65302114216E-01 -0.54029930126E-01  0.97875485642E-01  0.51100000000E-03 0.  1.
         11    1    4    4    0    0  0.19347031801E-01  0.22129348005E-01 -0.66669851790E-02  0.30145074141E-01  0.51100000000E-03 0. -1.
</event>
<event>
 8    1  0.1101883E+005  0.1043930E+01  0.7957747E-01            NaN
         13   -1    0    0    0    0  0.00000000000E+00  0.00000000000E+00  0.74505805969E-08  0.10566000000E+00  0.10566000000E+00 0.  1.
     999900   -1    0    0    0    0 -0.00000000000E+00 -0.00000000000E+00 -0.74505805969E-08  0.93827000000E+00  0.93827000000E+00 0. -1.
     999902    2    1    2    0    0  0.24339839292E-01 -0.95165776429E-02  0.87880395698E-02  0.10163578643E+01  0.10159838019E+01 0.  0.
     999903    2    3    3    0    0  0.66617942140E-01  0.10786553063E+00  0.33509011719E-02  0.12754092040E+00  0.13510548574E-01 0.  0.
         14    1    1    2    0    0 -0.24339839292E-01  0.95165776429E-02 -0.87880395698E-02  0.27572135685E-01  0.00000000000E+00 0. -1.
     999901    1    3    3    0    0 -0.42278102849E-01 -0.11738210828E+00  0.54371383979E-02  0.88881694392E+00  0.88000000000E+00 0.  1.
        -11    1    4    4    0    0  0.25109836697E-01  0.29027338492E-01  0.15569437730E-03  0.38384575556E-01  0.51100000000E-03 0. -1.
         11    1    4    4    0    0  0.41508105443E-01  0.78838192142E-01  0.31952067946E-02  0.89156344839E-01  0.51100000000E-03 0.  1.
</event>
<event>
 8    1  0.1101883E+005  0.1043930E+01  0.7957747E-01            NaN
         13   -1    0    0    0    0  0.00000000000E+00  0.00000000000E+00  0.74505805969E-08  0.10566000000E+00  0.10566000000E+00 0.  1.
     999900   -1    0    0    0    0 -0.00000000000E+00 -0.00000000000E+00 -0.74505805969E-08  0.93827000000E+00  0.93827000000E+00 0.  1.
     999902    2    1    2    0    0  0.11769415747E-02 -0.21748492350E-01  0.90374270369E-02  0.10203491349E+01  0.10200766147E+01 0.  0.
     999903    2    3    3    0    0 -0.11106209622E+00  0.22098731725E-01  0.61763625073E-01  0.13057375167E+00  0.20288323752E-01 0.  0.
         14    1    1    2    0    0 -0.11769415747E-02  0.21748492350E-01 -0.90374270369E-02  0.23580865090E-01  0.00000000000E+00 0. -1.
     999901    1    3    3    0    0  0.11223903780E+00 -0.43847224075E-01 -0.52726198036E-01  0.88977538324E+00  0.88000000000E+00 0.  1.
        -11    1    4    4    0    0 -0.11973088668E-01 -0.35616807170E-02  0.45100943924E-02  0.13290692014E-01  0.51100000000E-03 0.  1.
         11    1    4    4    0    0 -0.99089007556E-01  0.25660412442E-01  0.57253530681E-01  0.11728305965E+00  0.51100000000E-03 0. -1.
</event>
<event>
 8    1  0.1101883E+005  0.1043930E+01  0.7957747E-01            NaN
         13   -1    0    0    0    0  0.00000000000E+00  0.00000000000E+00  0.74505805969E-08  0.10566000000E+00  0.10566000000E+00 0.  1.
     999900   -1    0    0    0    0 -0.00000000000E+00 -0.00000000000E+00 -0.74505805969E-08  0.93827000000E+00  0.93827000000E+00 0.  1.
     999902    2    1    2    0    0  0.75509949812E-02 -0.15231879456E-01 -0.16676625369E-01  0.10201153509E+01  0.10198373359E+01 0.  0.
     999903    2    3    3    0    0  0.65793707317E-02 -0.45692974049E-01 -0.12323829912E+00  0.13316314666E+00  0.20337385824E-01 0.  0.
         14    1    1    2    0    0 -0.75509949812E-02  0.15231879456E-01  0.16676625369E-01  0.23814649077E-01  0.00000000000E+00 0.  1.
     999901    1    3    3    0    0  0.97162424957E-03  0.30461094593E-01  0.10656167375E+00  0.88695220426E+00  0.88000000000E+00 0. -1.
        -11    1    4    4    0    0  0.55841779974E-02 -0.13382594673E-02 -0.19512792949E-01  0.20346601485E-01  0.51100000000E-03 0. -1.
         11    1    4    4    0    0  0.99519273431E-03 -0.44354714581E-01 -0.10372550617E+00  0.11281654517E+00  0.51100000000E-03 0.  1.
</event>
<event>
 8    1  0.1101883E+005  0.1043930E+01  0.7957747E-01            NaN
         13   -1    0    0    0    0  0.00000000000E+00  0.00000000000E+00  0.74505805969E-08  0.10566000000E+00  0.10566000000E+00 0.  1.
     999900   -1    0    0    0    0 -0.00000000000E+00 -0.00000000000E+00 -0.74505805969E-08  0.93827000000E+00  0.93827000000E+00 0.  1.
     999902    2    1    2    0    0  0.31727164925E-02  0.23014724710E-01 -0.37837621017E-02  0.10203915094E+01  0.10201199792E+01 0.  0.
     999903    2    3    3    0    0  0.70101389734E-02  0.11956029835E+00  0.54947505787E-01  0.13315696577E+00  0.19176604275E-01 0.  0.
         14    1    1    2    0    0 -0.31727164925E-02 -0.23014724710E-01  0.37837621017E-02  0.23538490586E-01  0.00000000000E+00 0. -1.
     999901    1    3    3    0    0 -0.38374224809E-02 -0.96545573642E-01 -0.58731267889E-01  0.88723454364E+00  0.88000000000E+00 0.  1.
        -11    1    4    4    0    0  0.92121551345E-02  0.44920393451E-01  0.13764093348E-01  0.47879191062E-01  0.51100000000E-03 0. -1.
         11    1    4    4    0    0 -0.22020161611E-02  0.74639904900E-01  0.41183412440E-01  0.85277774712E-01  0.51100000000E-03 0.  1.
</event>
<event>
 8    1  0.1101883E+005  0.1043930E+01  0.7957747E-01            NaN
         13   -1    0    0    0    0  0.00000000000E+00  0.00000000000E+00  0.74505805969E-08  0.10566000000E+00  0.10566000000E+00 0.  1.
     999900   -1    0    0    0    0 -0.00000000000E+00 -0.00000000000E+00 -0.74505805969E-08  0.93827000000E+00  0.93827000000E+00 0. -1.
     999902    2    1    2    0    0  0.11546187329E-02 -0.19837223681E-01  0.97203062644E-02  0.10218091288E+01  0.10215696564E+01 0.  0.
     999903    2    3    3    0    0 -0.31719925809E-01  0.56164338434E-01 -0.11180308529E+00  0.12960684917E+00  0.11722579320E-01 0.  0.
         14    1    1    2    0    0 -0.11546187329E-02  0.19837223681E-01 -0.97203062644E-02  0.22120871178E-01  0.00000000000E+00 0. -1.
     999901    1    3    3    0    0  0.32874544542E-01 -0.76001562115E-01  0.12152339156E+00  0.89220227965E+00  0.88000000000E+00 0.  1.
        -11    1    4    4    0    0 -0.17391396147E-01  0.41163469240E-01 -0.72645073718E-01  0.85290443288E-01  0.51100000000E-03 0. -1.
         11    1    4    4    0    0 -0.14328529662E-01  0.15000869194E-01 -0.39158011573E-01  0.44316405881E-01  0.51100000000E-03 0.  1.
</event>
<event>
 8    1  0.1101883E+005  0.1043930E+01  0.7957747E-01            NaN
         13   -1    0    0    0    0  0.00000000000E+00  0.00000000000E+00  0.74505805969E-08  0.10566000000E+00  0.10566000000E+00 0.  1.
     999900   -1    0    0    0    0 -0.00000000000E+00 -0.00000000000E+00 -0.74505805969E-08  0.93827000000E+00  0.93827000000E+00 0. -1.
     999902    2    1    2    0    0  0.51629155451E-03 -0.13563695923E-01  0.18616120984E-01  0.10208908949E+01  0.10206308926E+01 0.  0.
     999903    2    3    3    0    0  0.11426476248E+00  0.27139844078E-01 -0.51839558938E-01  0.12984684679E+00  0.19489911988E-01 0.  0.
         14    1    1    2    0    0 -0.51629155451E-03  0.13563695923E-01 -0.18616120984E-01  0.23039105115E-01  0.00000000000E+00 0. -1.
     999901    1    3    3    0    0 -0.11374847093E+00 -0.40703540001E-01  0.70455679921E-01  0.89104404809E+00  0.88000000000E+00 0. -1.
        -11    1    4    4    0    0  0.91828987093E-01  0.13578352752E-01 -0.40450890385E-01  0.10125942024E+00  0.51100000000E-03 0.  1.
         11    1    4    4    0    0  0.22435775390E-01  0.13561491326E-01 -0.11388668553E-01  0.28587426550E-01  0.51100000000E-03 0. -1.
</event>
<event>
 8    1  0.1101883E+005  0.1043930E+01  0.7957747E-01            NaN
         13   -1    0    0    0    0  0.00000000000E+00  0.00000000000E+00  0.74505805969E-08  0.10566000000E+00  0.10566000000E+00 0.  1.
     999900   -1    0    0    0    0 -0.00000000000E+00 -0.00000000000E+00 -0.74505805969E-08  0.93827000000E+00  0.93827000000E+00 0. -1.
     999902    2    1    2    0    0 -0.22313826238E-01 -0.44759035977E-02  0.59503884892E-02  0.10204066568E+01  0.10201354800E+01 0.  0.
     999903    2    3    3    0    0  0.11692087097E+00  0.29747541269E-02 -0.47567107257E-01  0.12782280324E+00  0.19917331742E-01 0.  0.
         14    1    1    2    0    0  0.22313826238E-01  0.44759035977E-02 -0.59503884892E-02  0.23523343248E-01  0.00000000000E+00 0.  1.
     999901    1    3    3    0    0 -0.13923469721E+00 -0.74506577246E-02  0.53517495747E-01  0.89258385352E+00  0.88000000000E+00 0. -1.
        -11    1    4    4    0    0  0.92548315793E-01  0.16705591917E-02 -0.45987321082E-01  0.10335896838E+00  0.51100000000E-03 0. -1.
         11    1    4    4    0    0  0.24372555176E-01  0.13041949352E-02 -0.15797861751E-02  0.24463834851E-01  0.51100000000E-03 0.  1.
</event>
<event>
 8    1  0.1101883E+005  0.1043930E+01  0.7957747E-01            NaN
         13   -1    0    0    0    0  0.00000000000E+00  0.00000000000E+00  0.74505805969E-08  0.10566000000E+00  0.10566000000E+00 0. -1.
     999900   -1    0    0    0    0 -0.00000000000E+00 -0.00000000000E+00 -0.74505805969E-08  0.93827000000E+00  0.93827000000E+00 0. -1.
     999902    2    1    2    0    0  0.18990417573E-01  0.13219891505E-01  0.35449660015E-02  0.10205212778E+01  0.10202527678E+01 0.  0.
     999903    2    3    3    0    0  0.54726958748E-01 -0.36790962127E-01  0.11193222163E+00  0.13174347484E+00  0.21883921414E-01 0.  0.
         14    1    1    2    0    0 -0.18990417573E-01 -0.13219891505E-01 -0.35449660015E-02  0.23408722198E-01  0.00000000000E+00 0.  1.
     999901    1    3    3    0    0 -0.35736541176E-01  0.50010853631E-01 -0.10838725563E+00  0.88877780296E+00  0.88000000000E+00 0. -1.
        -11    1    4    4    0    0  0.36451403961E-01 -0.16942436140E-01  0.82742728931E-01  0.91991147971E-01  0.51100000000E-03 0. -1.
         11    1    4    4    0    0  0.18275554788E-01 -0.19848525987E-01  0.29189492697E-01  0.39752326870E-01  0.51100000000E-03 0.  1.
</event>
<event>
 8    1  0.1101883E+005  0.1043930E+01  0.7957747E-01            NaN
         13   -1    0    0    0    0  0.00000000000E+00  0.00000000000E+00  0.74505805969E-08  0.10566000000E+00  0.10566000000E+00 0. -1.
     999900   -1    0    0    0    0 -0.00000000000E+00 -0.00000000000E+00 -0.74505805969E-08  0.93827000000E+00  0.93827000000E+00 0.  1.
     999902    2    1    2    0    0 -0.52345124418E-02  0.45154315081E-02 -0.23140818276E-01  0.10197786706E+01  0.10194926436E+01 0.  0.
     999903    2    3    3    0    0  0.98921670397E-01 -0.77885856772E-01  0.18656512980E-01  0.12883226387E+00  0.19949515723E-01 0.  0.
         14    1    1    2    0    0  0.52345124418E-02 -0.45154315081E-02  0.23140818276E-01  0.24151329419E-01  0.00000000000E+00 0. -1.
     999901    1    3    3    0    0 -0.10415618284E+00  0.82401288280E-01 -0.41797331256E-01  0.89094640671E+00  0.88000000000E+00 0.  1.
        -11    1    4    4    0    0  0.61647664819E-01 -0.59534766297E-01  0.89959826778E-02  0.86174310563E-01  0.51100000000E-03 0. -1.
         11    1    4    4    0    0  0.37274005579E-01 -0.18351090475E-01  0.96605303019E-02  0.42657953306E-01  0.51100000000E-03 0.  1.
</event>
<event>
 8    1  0.1101883E+005  0.1043930E+01  0.7957747E-01            NaN
         13   -1    0    0    0    0  0.00000000000E+00  0.00000000000E+00  0.74505805969E-08  0.10566000000E+00  0.10566000000E+00 0. -1.
     999900   -1    0    0    0    0 -0.00000000000E+00 -0.00000000000E+00 -0.74505805969E-08  0.93827000000E+00  0.93827000000E+00 0.  1.
     999902    2    1    2    0    0 -0.10528980908E-01  0.23792854771E-03  0.21920591054E-01  0.10196106998E+01  0.10193206320E+01 0.  0.
     999903    2    3    3    0    0  0.12486394077E+00 -0.20655064143E-01 -0.92755419246E-02  0.12846483124E+00  0.19988541890E-01 0.  0.
         14    1    1    2    0    0  0.10528980908E-01 -0.23792854771E-03 -0.21920591054E-01  0.24319300177E-01  0.00000000000E+00 0. -1.
     999901    1    3    3    0    0 -0.13539292168E+00  0.20892992690E-01  0.31196132978E-01  0.89114586859E+00  0.88000000000E+00 0.  1.
        -11    1    4    4    0    0  0.30974773698E-01 -0.31542779823E-02 -0.10759542701E-01  0.32945636363E-01  0.51100000000E-03 0. -1.
         11    1    4    4    0    0  0.93889167074E-01 -0.17500786160E-01  0.14840007760E-02  0.95519194874E-01  0.51100000000E-03 0.  1.
</event>
<event>
 8    1  0.1101883E+005  0.1043930E+01  0.7957747E-01            NaN
         13   -1    0    0    0    0  0.00000000000E+00  0.00000000000E+00  0.74505805969E-08  0.10566000000E+00  0.10566000000E+00 0. -1.
     999900   -1    0    0    0    0 -0.00000000000E+00 -0.00000000000E+00 -0.74505805969E-08  0.93827000000E+00  0.93827000000E+00 0. -1.
     999902    2    1    2    0    0  0.18772710443E-01 -0.53154579009E-02  0.19380912354E-01  0.10164292998E+01  0.10160571996E+01 0.  0.
     999903    2    3    3    0    0  0.11903448226E+00 -0.32110557701E-01  0.35842346500E-01  0.13017799281E+00  0.21478829675E-01 0.  0.
         14    1    1    2    0    0 -0.18772710443E-01  0.53154579009E-02 -0.19380912354E-01  0.27500700242E-01  0.00000000000E+00 0.  1.
     999901    1    3    3    0    0 -0.10026177182E+00  0.26795099800E-01 -0.16461434146E-01  0.88625130695E+00  0.88000000000E+00 0. -1.
        -11    1    4    4    0    0  0.35396480969E-01 -0.56374723987E-03  0.58191649438E-02  0.35879694502E-01  0.51100000000E-03 0. -1.
         11    1    4    4    0    0  0.83638001296E-01 -0.31546810461E-01  0.30023181556E-01  0.94298298303E-01  0.51100000000E-03 0.  1.
</event>
<event>
 8    1  0.1101883E+005  0.1043930E+01  0.7957747E-01            NaN
         13   -1    0    0    0    0  0.00000000000E+00  0.00000000000E+00  0.74505805969E-08  0.10566000000E+00  0.10566000000E+00 0.  1.
     999900   -1    0    0    0    0 -0.00000000000E+00 -0.00000000000E+00 -0.74505805969E-08  0.93827000000E+00  0.93827000000E+00 0. -1.
     999902    2    1    2    0    0 -0.18647196147E-01 -0.52695754252E-02  0.14965292834E-01  0.10194464067E+01  0.10191523585E+01 0.  0.
     999903    2    3    3    0    0 -0.12438129465E+00  0.29468045420E-01 -0.23391543830E-01  0.13160765516E+00  0.20840787261E-01 0.  0.
         14    1    1    2    0    0  0.18647196147E-01  0.52695754252E-02 -0.14965292834E-01  0.24483593260E-01  0.00000000000E+00 0. -1.
     999901    1    3    3    0    0  0.10573409851E+00 -0.34737620846E-01  0.38356836664E-01  0.88783875158E+00  0.88000000000E+00 0.  1.
        -11    1    4    4    0    0 -0.35958238525E-01  0.14041462492E-01 -0.15141985640E-01  0.41469246881E-01  0.51100000000E-03 0.  1.
         11    1    4    4    0    0 -0.88423056128E-01  0.15426582928E-01 -0.82495581896E-02  0.90138408279E-01  0.51100000000E-03 0. -1.
</event>
<event>
 8    1  0.1101883E+005  0.1043930E+01  0.7957747E-01            NaN
         13   -1    0    0    0    0  0.00000000000E+00  0.00000000000E+00  0.74505805969E-08  0.10566000000E+00  0.10566000000E+00 0.  1.
     999900   -1    0    0    0    0 -0.00000000000E+00 -0.00000000000E+00 -0.74505805969E-08  0.93827000000E+00  0.93827000000E+00 0.  1.
     999902    2    1    2    0    0 -0.19094918940E-01  0.10096896487E-01 -0.83998478724E-02  0.10207541356E+01  0.10204910017E+01 0.  0.
     999903    2    3    3    0    0  0.10693050785E+00  0.84082573345E-02 -0.69529383932E-01  0.12967496968E+00  0.21827281778E-01 0.  0.
         14    1    1    2    0    0  0.19094918940E-01 -0.10096896487E-01  0.83998478724E-02  0.23175864434E-01  0.00000000000E+00 0. -1.
     999901    1    3    3    0    0 -0.12602542679E+00  0.16886391526E-02  0.61129536060E-01  0.89107916589E+00  0.88000000000E+00 0. -1.
        -11    1    4    4    0    0  0.56128831071E-01 -0.20987013843E-02 -0.46472588071E-01  0.72902762554E-01  0.51100000000E-03 0. -1.
         11    1    4    4    0    0  0.50801676782E-01  0.10506958719E-01 -0.23056795861E-01  0.56772207124E-01  0.51100000000E-03 0.  1.
</event>
<event>
 8    1  0.1101883E+005  0.1043930E+01  0.7957747E-01            NaN
         13   -1    0    0    0    0  0.00000000000E+00  0.00000000000E+00  0.74505805969E-08  0.10566000000E+00  0.10566000000E+00 0. -1.
     999900   -1    0    0    0    0 -0.00000000000E+00 -0.00000000000E+00 -0.74505805969E-08  0.93827000000E+00  0.93827000000E+00 0.  1.
     999902    2    1    2    0    0  0.98978971836E-02 -0.84066375063E-02  0.19296336353E-01  0.10206708401E+01  0.10204057895E+01 0.  0.
     999903    2    3    3    0    0  0.78717606126E-01  0.10050098236E+00  0.22450052075E-01  0.13128511504E+00  0.20853479927E-01 0.  0.
         14    1    1    2    0    0 -0.98978971836E-02  0.84066375063E-02 -0.19296336353E-01  0.23259159904E-01  0.00000000000E+00 0.  1.
     999901    1    3    3    0    0 -0.68819708942E-01 -0.10890761986E+00 -0.31537157217E-02  0.88938572505E+00  0.88000000000E+00 0.  1.
        -11    1    4    4    0    0  0.26313749586E-01  0.47312389072E-01  0.35217718483E-02  0.54254396826E-01  0.51100000000E-03 0.  1.
         11    1    4    4    0    0  0.52403856540E-01  0.53188593285E-01  0.18928280226E-01  0.77030718218E-01  0.51100000000E-03 0. -1.
</event>
<event>
 8    1  0.1101883E+005  0.1043930E+01  0.7957747E-01            NaN
         13   -1    0    0    0    0  0.00000000000E+00  0.00000000000E+00  0.74505805969E-08  0.10566000000E+00  0.10566000000E+00 0.  1.
     999900   -1    0    0    0    0 -0.00000000000E+00 -0.00000000000E+00 -0.74505805969E-08  0.93827000000E+00  0.93827000000E+00 0. -1.
     999902    2    1    2    0    0  0.63587094964E-02  0.28524686631E-01  0.53314455632E-03  0.10147003032E+01  0.10142792170E+01 0.  0.
     999903    2    3    3    0    0  0.80253800939E-01  0.27955368303E-02  0.95177922023E-01  0.12617337190E+00  0.20307519396E-01 0.  0.
         14    1    1    2    0    0 -0.63587094964E-02 -0.28524686631E-01 -0.53314455632E-03  0.29229696833E-01  0.00000000000E+00 0. -1.
     999901    1    3    3    0    0 -0.73895091443E-01  0.25729149800E-01 -0.94644777467E-01  0.88852693127E+00  0.88000000000E+00 0. -1.
        -11    1    4    4    0    0  0.40506988485E-01 -0.84977810217E-02  0.50956119544E-01  0.65649186122E-01  0.51100000000E-03 0.  1.
         11    1    4    4    0    0  0.39746812454E-01  0.11293317852E-01  0.44221802479E-01  0.60524185776E-01  0.51100000000E-03 0. -1.
</event>
<event>
 8    1  0.1101883E+005  0.1043930E+01  0.7957747E-01            NaN
         13   -1    0    0    0    0  0.00000000000E+00  0.00000000000E+00  0.74505805969E-08  0.10566000000E+00  0.10566000000E+00 0.  1.
     999900   -1    0    0    0    0 -0.00000000000E+00 -0.00000000000E+00 -0.74505805969E-08  0.93827000000E+00  0.93827000000E+00 0.  1.
     999902    2    1    2    0    0 -0.61297999867E-02  0.69061672364E-03  0.23670508138E-01  0.10194689216E+01  0.10191754205E+01 0.  0.
     999903    2    3    3    0    0  0.25068804417E-01 -0.92578598836E-02  0.12871402670E+00  0.13261692389E+00  0.17486992534E-01 0.  0.
         14    1    1    2    0    0  0.61297999867E-02 -0.69061672364E-03 -0.23670508138E-01  0.24461078366E-01  0.00000000000E+00 0. -1.
     999901    1    3    3    0    0 -0.31198604403E-01  0.99484766072E-02 -0.10504351857E+00  0.88685199774E+00  0.88000000000E+00 0.  1.
        -11    1    4    4    0    0  0.18699938378E-01  0.25852429119E-04  0.10066581579E+00  0.10238923748E+00  0.51100000000E-03 0.  1.
         11    1    4    4    0    0  0.63688660386E-02 -0.92837123127E-02  0.28048210918E-01  0.30227686409E-01  0.51100000000E-03 0. -1.
</event>
<event>
 8    1  0.1101883E+005  0.1043930E+01  0.7957747E-01            NaN
         13   -1    0    0    0    0  0.00000000000E+00  0.00000000000E+00  0.74505805969E-08  0.10566000000E+00  0.10566000000E+00 0.  1.
     999900   -1    0    0    0    0 -0.00000000000E+00 -0.00000000000E+00 -0.74505805969E-08  0.93827000000E+00  0.93827000000E+00 0.  1.
     999902    2    1    2    0    0  0.12685273952E-01 -0.22482703385E-01 -0.49008628409E-02  0.10176544109E+01  0.10173151397E+01 0.  0.
     999903    2    3    3    0    0  0.89756803326E-01 -0.41422700763E-01  0.81828954139E-01  0.12983640854E+00  0.19733001908E-01 0.  0.
         14    1    1    2    0    0 -0.12685273952E-01  0.22482703385E-01  0.49008628409E-02  0.26275589115E-01  0.00000000000E+00 0.  1.
     999901    1    3    3    0    0 -0.77071529374E-01  0.18939997378E-01 -0.86729816980E-01  0.88781800235E+00  0.88000000000E+00 0.  1.
        -11    1    4    4    0    0  0.29548329910E-01 -0.23909084227E-01  0.33485091404E-01  0.50658272537E-01  0.51100000000E-03 0.  1.
         11    1    4    4    0    0  0.60208473416E-01 -0.17513616536E-01  0.48343862735E-01  0.79178136000E-01  0.51100000000E-03 0. -1.
</event>
<event>
 8    1  0.1101883E+005  0.1043930E+01  0.7957747E-01            NaN
         13   -1    0    0    0    0  0.00000000000E+00  0.00000000000E+00  0.74505805969E-08  0.10566000000E+00  0.10566000000E+00 0. -1.
     999900   -1    0    0    0    0 -0.00000000000E+00 -0.00000000000E+00 -0.74505805969E-08  0.93827000000E+00  0.93827000000E+00 0. -1.
     999902    2    1    2    0    0  0.13678925268E-01 -0.11852399674E-01  0.78520596945E-02  0.10242006509E+01  0.10240106084E+01 0.  0.
     999903    2    3    3    0    0  0.89977087707E-01 -0.61972368907E-01  0.79648354216E-01  0.13657002456E+00  0.19262929654E-01 0.  0.
         14    1    1    2    0    0 -0.13678925268E-01  0.11852399674E-01 -0.78520596945E-02  0.19729349101E-01  0.00000000000E+00 0.  1.
     999901    1    3    3    0    0 -0.76298162439E-01  0.50119969233E-01 -0.71796294521E-01  0.88763062634E+00  0.88000000000E+00 0. -1.
        -11    1    4    4    0    0  0.42517380686E-01 -0.39073588304E-01  0.35195602127E-01  0.67627394549E-01  0.51100000000E-03 0. -1.
         11    1    4    4    0    0  0.47459707021E-01 -0.22898780603E-01  0.44452752088E-01  0.68942630011E-01  0.51100000000E-03 0.  1.
</event>
<event>
 8    1  0.1101883E+005  0.1043930E+01  0.7957747E-01            NaN
         13   -1    0    0    0    0  0.00000000000E+00  0.00000000000E+00  0.74505805969E-08  0.10566000000E+00  0.10566000000E+00 0.  1.
     999900   -1    0    0    0    0 -0.00000000000E+00 -0.00000000000E+00 -0.74505805969E-08  0.93827000000E+00  0.93827000000E+00 0.  1.
     999902    2    1    2    0    0  0.38433447706E-02  0.17655920657E-01  0.16840417606E-01  0.10192297470E+01  0.10189304072E+01 0.  0.
     999903    2    3    3    0    0 -0.10462749926E+00 -0.64988535345E-01 -0.27321231739E-01  0.12763214640E+00  0.19315583444E-01 0.  0.
         14    1    1    2    0    0 -0.38433447706E-02 -0.17655920657E-01 -0.16840417606E-01  0.24700253003E-01  0.00000000000E+00 0. -1.
     999901    1    3    3    0    0  0.10847084403E+00  0.82644456002E-01  0.44161649345E-01  0.89159760059E+00  0.88000000000E+00 0.  1.
        -11    1    4    4    0    0 -0.34067499876E-01 -0.22772240805E-01 -0.18403634302E-01  0.44923539215E-01  0.51100000000E-03 0. -1.
         11    1    4    4    0    0 -0.70559999385E-01 -0.42216294540E-01 -0.89175974368E-02  0.82708607188E-01  0.51100000000E-03 0.  1.
</event>
<event>
 8    1  0.1101883E+005  0.1043930E+01  0.7957747E-01            NaN
         13   -1    0    0    0    0  0.00000000000E+00  0.00000000000E+00  0.74505805969E-08  0.10566000000E+00  0.10566000000E+00 0.  1.
     999900   -1    0    0    0    0 -0.00000000000E+00 -0.00000000000E+00 -0.74505805969E-08  0.93827000000E+00  0.93827000000E+00 0. -1.
     999902    2    1    2    0    0 -0.62225839181E-02  0.10954971164E-01 -0.20127882069E-01  0.10201841882E+01  0.10199077969E+01 0.  0.
     999903    2    3    3    0    0 -0.10888786167E+00  0.24914544751E-02 -0.72695995795E-01  0.13261717831E+00  0.20972229589E-01 0.  0.
         14    1    1    2    0    0  0.62225839181E-02 -0.10954971164E-01  0.20127882069E-01  0.23745811850E-01  0.00000000000E+00 0.  1.
     999901    1    3    3    0    0  0.10266527775E+00  0.84635166885E-02  0.52568113725E-01  0.88756700984E+00  0.88000000000E+00 0. -1.
        -11    1    4    4    0    0 -0.26782381341E-01 -0.84148376358E-02 -0.19220421455E-01  0.34026330461E-01  0.51100000000E-03 0. -1.
         11    1    4    4    0    0 -0.82105480332E-01  0.10906292111E-01 -0.53475574340E-01  0.98590847852E-01  0.51100000000E-03 0.  1.
</event>
<event>
 8    1  0.1101883E+005  0.1043930E+01  0.7957747E-01            NaN
         13   -1    0    0    0    0  0.00000000000E+00  0.00000000000E+00  0.74505805969E-08  0.10566000000E+00  0.10566000000E+00 0. -1.
     999900   -1    0    0    0    0 -0.00000000000E+00 -0.00000000000E+00 -0.74505805969E-08  0.93827000000E+00  0.93827000000E+00 0. -1.
     999902    2    1    2    0    0  0.49489980981E-02 -0.78195513681E-02  0.22841122450E-01  0.10192854298E+01  0.10189874546E+01 0.  0.
     999903    2    3    3    0    0 -0.59036755231E-01 -0.77973076589E-01  0.86021580846E-01  0.13192560196E+00  0.20964563933E-01 0.  0.
         14    1    1    2    0    0 -0.49489980981E-02  0.78195513681E-02 -0.22841122450E-01  0.24644570204E-01  0.00000000000E+00 0.  1.
     999901    1    3    3    0    0  0.63985753329E-01  0.70153525221E-01 -0.63180458395E-01  0.88735982783E+00  0.88000000000E+00 0.  1.
        -11    1    4    4    0    0 -0.33075277968E-01 -0.32665141157E-01  0.51212448573E-01  0.69166187327E-01  0.51100000000E-03 0. -1.
         11    1    4    4    0    0 -0.25961477263E-01 -0.45307935432E-01  0.34809132272E-01  0.62759414635E-01  0.51100000000E-03 0.  1.
</event>
<event>
 8    1  0.1101883E+005  0.1043930E+01  0.7957747E-01            NaN
         13   -1    0    0    0    0  0.00000000000E+00  0.00000000000E+00  0.74505805969E-08  0.10566000000E+00  0.10566000000E+00 0.  1.
     999900   -1    0    0    0    0 -0.00000000000E+00 -0.00000000000E+00 -0.74505805969E-08  0.93827000000E+00  0.93827000000E+00 0.  1.
     999902    2    1    2    0    0 -0.15147570037E-01  0.11978006596E-01  0.11024978792E-01  0.10216932809E+01  0.10214512659E+01 0.  0.
     999903    2    3    3    0    0 -0.12627287812E+00  0.36566942711E-01  0.18582566430E-01  0.13433170463E+00  0.20438053845E-01 0.  0.
         14    1    1    2    0    0  0.15147570037E-01 -0.11978006596E-01 -0.11024978792E-01  0.22236719124E-01  0.00000000000E+00 0. -1.
     999901    1    3    3    0    0  0.11112530808E+00 -0.24588936115E-01 -0.75575876380E-02  0.88736157625E+00  0.88000000000E+00 0. -1.
        -11    1    4    4    0    0 -0.93684368008E-01  0.18056526181E-01  0.10479702197E-01  0.95983770638E-01  0.51100000000E-03 0.  1.
         11    1    4    4    0    0 -0.32588510110E-01  0.18510416530E-01  0.81028642330E-02  0.38347933987E-01  0.51100000000E-03 0. -1.
</event>
<event>
 8    1  0.1101883E+005  0.1043930E+01  0.7957747E-01            NaN
         13   -1    0    0    0    0  0.00000000000E+00  0.00000000000E+00  0.74505805969E-08  0.10566000000E+00  0.10566000000E+00 0. -1.
     999900   -1    0    0    0    0 -0.00000000000E+00 -0.00000000000E+00 -0.74505805969E-08  0.93827000000E+00  0.93827000000E+00 0. -1.
     999902    2    1    2    0    0  0.14853037842E-01  0.18085959157E-01  0.32223936463E-02  0.10203058921E+01  0.10200323598E+01 0.  0.
     999903    2    3    3    0    0  0.31981885714E-04  0.88757344580E-01  0.95846075373E-01  0.13250340574E+00  0.22199439852E-01 0.  0.
         14    1    1    2    0    0 -0.14853037842E-01 -0.18085959157E-01 -0.32223936463E-02  0.23624107869E-01  0.00000000000E+00 0. -1.
     999901    1    3    3    0    0  0.14821055957E-01 -0.70671385423E-01 -0.92623681727E-01  0.88780248639E+00  0.88000000000E+00 0. -1.
        -11    1    4    4    0    0  0.16484056181E-02  0.16593759526E-01  0.71608446016E-02  0.18155134610E-01  0.51100000000E-03 0. -1.
         11    1    4    4    0    0 -0.16164237324E-02  0.72163585054E-01  0.88685230772E-01  0.11434827114E+00  0.51100000000E-03 0.  1.
</event>
<event>
 8    1  0.1101883E+005  0.1043930E+01  0.7957747E-01            NaN
         13   -1    0    0    0    0  0.00000000000E+00  0.00000000000E+00  0.74505805969E-08  0.10566000000E+00  0.10566000000E+00 0. -1.
     999900   -1    0    0    0    0 -0.00000000000E+00 -0.00000000000E+00 -0.74505805969E-08  0.93827000000E+00  0.93827000000E+00 0.  1.
     999902    2    1    2    0    0 -0.87471010996E-02 -0.22897618552E-01 -0.21423485450E-03  0.10194175825E+01  0.10191228331E+01 0.  0.
     999903    2    3    3    0    0  0.97334816790E-01  0.49625405875E-01  0.63324793338E-01  0.12781780098E+00  0.19763940116E-01 0.  0.
         14    1    1    2    0    0  0.87471010996E-02  0.22897618552E-01  0.21423485450E-03  0.24512417457E-01  0.00000000000E+00 0. -1.
     999901    1    3    3    0    0 -0.10608191789E+00 -0.72523024427E-01 -0.63539028193E-01  0.89159978156E+00  0.88000000000E+00 0. -1.
        -11    1    4    4    0    0  0.43975366925E-01  0.31503218824E-01  0.24522408876E-01  0.59396088680E-01  0.51100000000E-03 0.  1.
         11    1    4    4    0    0  0.53359449865E-01  0.18122187051E-01  0.38802384463E-01  0.68421712303E-01  0.51100000000E-03 0. -1.
</event>
<event>
 8    1  0.1101883E+005  0.1043930E+01  0.7957747E-01            NaN
         13   -1    0    0    0    0  0.00000000000E+00  0.00000000000E+00  0.74505805969E-08  0.10566000000E+00  0.10566000000E+00 0.  1.
     999900   -1    0    0    0    0 -0.00000000000E+00 -0.00000000000E+00 -0.74505805969E-08  0.93827000000E+00  0.93827000000E+00 0. -1.
     999902    2    1    2    0    0  0.26297721529E-02  0.22732113614E-01  0.51242017506E-02  0.10204795814E+01  0.10202101028E+01 0.  0.
     999903    2    3    3    0    0 -0.72073647030E-01  0.53544689027E-01 -0.93533580128E-01  0.13128704115E+00  0.20642486339E-01 0.  0.
         14    1    1    2    0    0 -0.26297721529E-02 -0.22732113614E-01 -0.51242017506E-02  0.23450418642E-01  0.00000000000E+00 0. -1.
     999901    1    3    3    0    0  0.74703419183E-01 -0.30812575413E-01  0.98657781879E-01  0.88919254021E+00  0.88000000000E+00 0.  1.
        -11    1    4    4    0    0 -0.18839175485E-01  0.11055930816E-01 -0.11598134380E-01  0.24737137693E-01  0.51100000000E-03 0.  1.
         11    1    4    4    0    0 -0.53234471545E-01  0.42488758211E-01 -0.81935445749E-01  0.10654990345E+00  0.51100000000E-03 0. -1.
</event>
<event>
 8    1  0.1101883E+005  0.1043930E+01  0.7957747E-01            NaN
         13   -1    0    0    0    0  0.00000000000E+00  0.00000000000E+00  0.74505805969E-08  0.10566000000E+00  0.10566000000E+00 0. -1.
     999900   -1    0    0    0    0 -0.00000000000E+00 -0.00000000000E+00 -0.74505805969E-08  0.93827000000E+00  0.93827000000E+00 0.  1.
     999902    2    1    2    0    0 -0.10318629383E-01  0.10295581233E-01 -0.18453663900E-01  0.10204138180E+01  0.10201428082E+01 0.  0.
     999903    2    3    3    0    0  0.84582602503E-01  0.74290050734E-01  0.60837168094E-01  0.12946568707E+00  0.19671675645E-01 0.  0.
         14    1    1    2    0    0  0.10318629383E-01 -0.10295581233E-01  0.18453663900E-01  0.23516182016E-01  0.00000000000E+00 0. -1.
     999901    1    3    3    0    0 -0.94901231886E-01 -0.63994469501E-01 -0.79290831995E-01  0.89094813091E+00  0.88000000000E+00 0.  1.
        -11    1    4    4    0    0  0.41609702009E-01  0.42218905466E-01  0.41916216408E-01  0.72601884267E-01  0.51100000000E-03 0.  1.
         11    1    4    4    0    0  0.42972900493E-01  0.32071145267E-01  0.18920951686E-01  0.56863802803E-01  0.51100000000E-03 0. -1.
</event>
<event>
 8    1  0.1101883E+005  0.1043930E+01  0.7957747E-01            NaN
         13   -1    0    0    0    0  0.00000000000E+00  0.00000000000E+00  0.74505805969E-08  0.10566000000E+00  0.10566000000E+00 0. -1.
     999900   -1    0    0    0    0 -0.00000000000E+00 -0.00000000000E+00 -0.74505805969E-08  0.93827000000E+00  0.93827000000E+00 0. -1.
     999902    2    1    2    0    0 -0.10927933369E-01  0.11619593509E-01 -0.17547480300E-01  0.10202161065E+01  0.10199404665E+01 0.  0.
     999903    2    3    3    0    0  0.38040803337E-01  0.10413809156E+00 -0.69344134815E-01  0.13249965227E+00  0.21347224296E-01 0.  0.
         14    1    1    2    0    0  0.10927933369E-01 -0.11619593509E-01  0.17547480300E-01  0.23713893521E-01  0.00000000000E+00 0. -1.
     999901    1    3    3    0    0 -0.48968736706E-01 -0.92518498054E-01  0.51796654515E-01  0.88771645421E+00  0.88000000000E+00 0. -1.
        -11    1    4    4    0    0  0.11328437100E-01  0.38818318248E-01 -0.37212509794E-01  0.54956594918E-01  0.51100000000E-03 0. -1.
         11    1    4    4    0    0  0.26712366237E-01  0.65319773315E-01 -0.32131625021E-01  0.77543057351E-01  0.51100000000E-03 0.  1.
</event>
<event>
 8    1  0.1101883E+005  0.1043930E+01  0.7957747E-01            NaN
         13   -1    0    0    0    0  0.00000000000E+00  0.00000000000E+00  0.74505805969E-08  0.10566000000E+00  0.10566000000E+00 0.  1.
     999900   -1    0    0    0    0 -0.00000000000E+00 -0.00000000000E+00 -0.74505805969E-08  0.93827000000E+00  0.93827000000E+00 0. -1.
     999902    2    1    2    0    0  0.20327255812E-01  0.77896164668E-02  0.93899004710E-02  0.10202224973E+01  0.10199470076E+01 0.  0.
     999903    2    3    3    0    0 -0.11453480647E-01 -0.12622807869E+00  0.17154537198E-01  0.12947503173E+00  0.20119533508E-01 0.  0.
         14    1    1    2    0    0 -0.20327255812E-01 -0.77896164668E-02 -0.93899004710E-02  0.23707502703E-01  0.00000000000E+00 0. -1.
     999901    1    3    3    0    0  0.31780736459E-01  0.13401769515E+00 -0.77646367269E-02  0.89074746556E+00  0.88000000000E+00 0. -1.
        -11    1    4    4    0    0 -0.58717260988E-02 -0.21953769152E-01  0.99152097034E-02  0.24799549427E-01  0.51100000000E-03 0.  1.
         11    1    4    4    0    0 -0.55817545481E-02 -0.10427430953E+00  0.72393274946E-02  0.10467548231E+00  0.51100000000E-03 0. -1.
</event>
<event>
 8    1  0.1101883E+005  0.1043930E+01  0.7957747E-01            NaN
         13   -1    0    0    0    0  0.00000000000E+00  0.00000000000E+00  0.74505805969E-08  0.10566000000E+00  0.10566000000E+00 0.  1.
     999900   -1    0    0    0    0 -0.00000000000E+00 -0.00000000000E+00 -0.74505805969E-08  0.93827000000E+00  0.93827000000E+00 0.  1.
     999902    2    1    2    0    0 -0.13340480050E-01 -0.52697337049E-02  0.19217640144E-01  0.10199496707E+01  0.10196677275E+01 0.  0.
     999903    2    3    3    0    0  0.10450725553E+00 -0.73368495345E-01  0.59702041480E-02  0.12938747484E+00  0.20019309185E-01 0.  0.
         14    1    1    2    0    0  0.13340480050E-01  0.52697337049E-02 -0.19217640144E-01  0.23980329314E-01  0.00000000000E+00 0. -1.
     999901    1    3    3    0    0 -0.11784773557E+00  0.68098761640E-01  0.13247435996E-01  0.89056219585E+00  0.88000000000E+00 0. -1.
        -11    1    4    4    0    0  0.24447750608E-01 -0.27041582230E-01  0.56167158833E-02  0.36888321968E-01  0.51100000000E-03 0.  1.
         11    1    4    4    0    0  0.80059504917E-01 -0.46326913115E-01  0.35348826476E-03  0.92499152868E-01  0.51100000000E-03 0. -1.
</event>
<event>
 8    1  0.1101883E+005  0.1043930E+01  0.7957747E-01            NaN
         13   -1    0    0    0    0  0.00000000000E+00  0.00000000000E+00  0.74505805969E-08  0.10566000000E+00  0.10566000000E+00 0. -1.
     999900   -1    0    0    0    0 -0.00000000000E+00 -0.00000000000E+00 -0.74505805969E-08  0.93827000000E+00  0.93827000000E+00 0. -1.
     999902    2    1    2    0    0 -0.15832075180E-01 -0.16842677012E-01 -0.49118070897E-02  0.10202983216E+01  0.10200246119E+01 0.  0.
     999903    2    3    3    0    0 -0.12241618362E+00 -0.42068126471E-01 -0.24204828243E-01  0.13329848165E+00  0.20667903228E-01 0.  0.
         14    1    1    2    0    0  0.15832075180E-01  0.16842677012E-01  0.49118070897E-02  0.23631678364E-01  0.00000000000E+00 0. -1.
     999901    1    3    3    0    0  0.10658410844E+00  0.25225449459E-01  0.19293021153E-01  0.88699983999E+00  0.88000000000E+00 0.  1.
        -11    1    4    4    0    0 -0.40668563404E-01 -0.24448471163E-01 -0.84482617204E-02  0.48200560564E-01  0.51100000000E-03 0. -1.
         11    1    4    4    0    0 -0.81747620212E-01 -0.17619655308E-01 -0.15756566522E-01  0.85097921085E-01  0.51100000000E-03 0.  1.
</event>
<event>
 8    1  0.1101883E+005  0.1043930E+01  0.7957747E-01            NaN
         13   -1    0    0    0    0  0.00000000000E+00  0.00000000000E+00  0.74505805969E-08  0.10566000000E+00  0.10566000000E+00 0. -1.
     999900   -1    0    0    0    0 -0.00000000000E+00 -0.00000000000E+00 -0.74505805969E-08  0.93827000000E+00  0.93827000000E+00 0.  1.
     999902    2    1    2    0    0  0.70443361921E-02 -0.12399993798E-01 -0.19530896128E-01  0.10197465672E+01  0.10194597701E+01 0.  0.
     999903    2    3    3    0    0 -0.71666924516E-01 -0.13038710948E-01  0.10336436684E+00  0.12772688346E+00  0.17994676194E-01 0.  0.
         14    1    1    2    0    0 -0.70443361921E-02  0.12399993798E-01  0.19530896128E-01  0.24183432803E-01  0.00000000000E+00 0. -1.
     999901    1    3    3    0    0  0.78711260708E-01  0.63871714971E-03 -0.12289526297E+00  0.89201968374E+00  0.88000000000E+00 0.  1.
        -11    1    4    4    0    0 -0.15634554981E-01  0.22756168541E-02  0.13854514166E-01  0.21019667583E-01  0.51100000000E-03 0. -1.
         11    1    4    4    0    0 -0.56032369535E-01 -0.15314327802E-01  0.89509852679E-01  0.10670721587E+00  0.51100000000E-03 0.  1.
</event>
<event>
 8    1  0.1101883E+005  0.1043930E+01  0.7957747E-01            NaN
         13   -1    0    0    0    0  0.00000000000E+00  0.00000000000E+00  0.74505805969E-08  0.10566000000E+00  0.10566000000E+00 0. -1.
     999900   -1    0    0    0    0 -0.00000000000E+00 -0.00000000000E+00 -0.74505805969E-08  0.93827000000E+00  0.93827000000E+00 0. -1.
     999902    2    1    2    0    0  0.22076882466E-01 -0.10689420029E-01  0.94301790663E-02  0.10176510975E+01  0.10173117396E+01 0.  0.
     999903    2    3    3    0    0  0.14590576195E-01  0.12421934392E+00 -0.88497461028E-02  0.12715091499E+00  0.21111770600E-01 0.  0.
         14    1    1    2    0    0 -0.22076882466E-01  0.10689420029E-01 -0.94301790663E-02  0.26278902511E-01  0.00000000000E+00 0. -1.
     999901    1    3    3    0    0  0.74863062707E-02 -0.13490876395E+00  0.18279925169E-01  0.89050018250E+00  0.88000000000E+00 0. -1.
        -11    1    4    4    0    0 -0.38648303299E-02  0.69434363381E-02 -0.21184471967E-02  0.82399733728E-02  0.51100000000E-03 0. -1.
         11    1    4    4    0    0  0.18455406525E-01  0.11727590758E+00 -0.67312989062E-02  0.11891094161E+00  0.51100000000E-03 0.  1.
</event>
<event>
 8    1  0.1101883E+005  0.1043930E+01  0.7957747E-01            NaN
         13   -1    0    0    0    0  0.00000000000E+00  0.00000000000E+00  0.74505805969E-08  0.10566000000E+00  0.10566000000E+00 0. -1.
     999900   -1    0    0    0    0 -0.00000000000E+00 -0.00000000000E+00 -0.74505805969E-08  0.93827000000E+00  0.93827000000E+00 0.  1.
     999902    2    1    2    0    0  0.10861299209E-01 -0.63164127243E-03  0.21217073657E-01  0.10200861118E+01  0.10198074056E+01 0.  0.
     999903    2    3    3    0    0  0.38240170632E-01 -0.70730460220E-01 -0.98562866355E-01  0.12878892169E+00  0.20170252197E-01 0.  0.
         14    1    1    2    0    0 -0.10861299209E-01  0.63164127243E-03 -0.21217073657E-01  0.23843888226E-01  0.00000000000E+00 0.  1.
     999901    1    3    3    0    0 -0.27378871423E-01  0.70098818948E-01  0.11977994001E+00  0.89129719008E+00  0.88000000000E+00 0. -1.
        -11    1    4    4    0    0  0.13168252756E-01 -0.28233930844E-01 -0.23788788335E-01  0.39201088034E-01  0.51100000000E-03 0.  1.
         11    1    4    4    0    0  0.25071917876E-01 -0.42496529376E-01 -0.74774078019E-01  0.89587833658E-01  0.51100000000E-03 0. -1.
</event>
<event>
 8    1  0.1101883E+005  0.1043930E+01  0.7957747E-01            NaN
         13   -1    0    0    0    0  0.00000000000E+00  0.00000000000E+00  0.74505805969E-08  0.10566000000E+00  0.10566000000E+00 0. -1.
     999900   -1    0    0    0    0 -0.00000000000E+00 -0.00000000000E+00 -0.74505805969E-08  0.93827000000E+00  0.93827000000E+00 0. -1.
     999902    2    1    2    0    0 -0.10053612722E-01  0.17936439944E-01  0.12659259947E-01  0.10197836158E+01  0.10194977073E+01 0.  0.
     999903    2    3    3    0    0  0.43627446589E-01  0.13133794450E-01  0.12163787371E+00  0.13142498340E+00  0.20022569497E-01 0.  0.
         14    1    1    2    0    0  0.10053612722E-01 -0.17936439944E-01 -0.12659259947E-01  0.24146384182E-01  0.00000000000E+00 0.  1.
     999901    1    3    3    0    0 -0.53681059311E-01  0.48026454939E-02 -0.10897861376E+00  0.88835863242E+00  0.88000000000E+00 0. -1.
        -11    1    4    4    0    0  0.28113596376E-01  0.11715623522E-01  0.53853180424E-01  0.61871288159E-01  0.51100000000E-03 0.  1.
         11    1    4    4    0    0  0.15513850213E-01  0.14181709284E-02  0.67784693284E-01  0.69553695242E-01  0.51100000000E-03 0. -1.
</event>
<event>
 8    1  0.1101883E+005  0.1043930E+01  0.7957747E-01            NaN
         13   -1    0    0    0    0  0.00000000000E+00  0.00000000000E+00  0.74505805969E-08  0.10566000000E+00  0.10566000000E+00 0. -1.
     999900   -1    0    0    0    0 -0.00000000000E+00 -0.00000000000E+00 -0.74505805969E-08  0.93827000000E+00  0.93827000000E+00 0. -1.
     999902    2    1    2    0    0  0.21716100086E-01 -0.30232997660E-02  0.10807629227E-01  0.10194854874E+01  0.10191923886E+01 0.  0.
     999903    2    3    3    0    0  0.12422421500E+00 -0.62790861870E-02  0.40220194651E-01  0.13304112215E+00  0.24722330164E-01 0.  0.
         14    1    1    2    0    0 -0.21716100086E-01  0.30232997660E-02 -0.10807629227E-01  0.24444512553E-01  0.00000000000E+00 0.  1.
     999901    1    3    3    0    0 -0.10250811491E+00  0.32557864210E-02 -0.29412565424E-01  0.88644436530E+00  0.88000000000E+00 0. -1.
        -11    1    4    4    0    0  0.62849849730E-01 -0.13024946536E-01  0.28327016366E-01  0.70160058584E-01  0.51100000000E-03 0. -1.
         11    1    4    4    0    0  0.61374365269E-01  0.67458603486E-02  0.11893178286E-01  0.62881063563E-01  0.51100000000E-03 0.  1.
</event>
<event>
 8    1  0.1101883E+005  0.1043930E+01  0.7957747E-01            NaN
         13   -1    0    0    0    0  0.00000000000E+00  0.00000000000E+00  0.74505805969E-08  0.10566000000E+00  0.10566000000E+00 0.  1.
     999900   -1    0    0    0    0 -0.00000000000E+00 -0.00000000000E+00 -0.74505805969E-08  0.93827000000E+00  0.93827000000E+00 0. -1.
     999902    2    1    2    0    0  0.33639379555E-02 -0.95920026498E-04  0.23890989210E-01  0.10198031551E+01  0.10195177147E+01 0.  0.
     999903    2    3    3    0    0  0.27192227198E-02 -0.36952423161E-01  0.12605478621E+00  0.13312606681E+00  0.21444458206E-01 0.  0.
         14    1    1    2    0    0 -0.33639379555E-02  0.95920026498E-04 -0.23890989210E-01  0.24126844897E-01  0.00000000000E+00 0. -1.
     999901    1    3    3    0    0  0.64471523571E-03  0.36856503134E-01 -0.10216379700E+00  0.88667708829E+00  0.88000000000E+00 0. -1.
        -11    1    4    4    0    0 -0.86435517075E-02 -0.14036451843E-01  0.61871959966E-01  0.64032284962E-01  0.51100000000E-03 0.  1.
         11    1    4    4    0    0  0.11362774427E-01 -0.22915971318E-01  0.64182826249E-01  0.69093781851E-01  0.51100000000E-03 0. -1.
</event>
<event>
 8    1  0.1101883E+005  0.1043930E+01  0.7957747E-01            NaN
         13   -1    0    0    0    0  0.00000000000E+00  0.00000000000E+00  0.74505805969E-08  0.10566000000E+00  0.10566000000E+00 0.  1.
     999900   -1    0    0    0    0 -0.00000000000E+00 -0.00000000000E+00 -0.74505805969E-08  0.93827000000E+00  0.93827000000E+00 0. -1.
     999902    2    1    2    0    0 -0.11575840915E-01  0.46366392324E-02 -0.21525986802E-01  0.10190529700E+01  0.10187492768E+01 0.  0.
     999903    2    3    3    0    0 -0.44223311663E-01  0.11917926979E+00 -0.24559829405E-01  0.13102421154E+00  0.20118626906E-01 0.  0.
         14    1    1    2    0    0  0.11575840915E-01 -0.46366392324E-02  0.21525986802E-01  0.24877030049E-01  0.00000000000E+00 0.  1.
     999901    1    3    3    0    0  0.32647470748E-01 -0.11454263055E+00  0.30338426033E-02  0.88802875841E+00  0.88000000000E+00 0. -1.
        -11    1    4    4    0    0 -0.20584476630E-01  0.79203170582E-01 -0.10556425204E-01  0.82514011795E-01  0.51100000000E-03 0.  1.
         11    1    4    4    0    0 -0.23638835033E-01  0.39976099204E-01 -0.14003404201E-01  0.48510199747E-01  0.51100000000E-03 0. -1.
</event>
<event>
 7    1  0.1101883E+005  0.1043930E+01  0.7957747E-01            NaN
         13   -1    0    0    0    0  0.00000000000E+00  0.00000000000E+00  0.74505805969E-08  0.10566000000E+00  0.10566000000E+00 0. -1.
     999900   -1    0    0    0    0 -0.00000000000E+00 -0.00000000000E+00 -0.74505805969E-08  0.93827000000E+00  0.93827000000E+00 0. -1.
     999903    2    1    2    0    0  0.32789947735E-01  0.10253490176E+00  0.36139829243E-01  0.11694043027E+00  0.27935465324E-01 0.  0.
         14    1    1    2    0    0  0.13477533835E-01 -0.26139432343E-01  0.27392186437E-01  0.40190119672E-01  0.00000000000E+00 0. -1.
     999901    1    1    2    0    0 -0.46267481570E-01 -0.76395469421E-01 -0.63532015680E-01  0.88679945005E+00  0.88000000000E+00 0. -1.
        -11    1    3    3    0    0  0.23696874772E-01  0.37783200426E-01  0.23229764491E-01  0.50289115997E-01  0.51100000000E-03 0.  1.
         11    1    3    3    0    0  0.90930729634E-02  0.64751701338E-01  0.12910064751E-01  0.66651314278E-01  0.51100000000E-03 0. -1.
</event>
<event>
 8    1  0.1101883E+005  0.1043930E+01  0.7957747E-01            NaN
         13   -1    0    0    0    0  0.00000000000E+00  0.00000000000E+00  0.74505805969E-08  0.10566000000E+00  0.10566000000E+00 0.  1.
     999900   -1    0    0    0    0 -0.00000000000E+00 -0.00000000000E+00 -0.74505805969E-08  0.93827000000E+00  0.93827000000E+00 0. -1.
     999902    2    1    2    0    0  0.11944971709E-01  0.81380821260E-02  0.23833841205E-01  0.10160559490E+01  0.10156735346E+01 0.  0.
     999903    2    3    3    0    0  0.12414192592E+00 -0.17821898089E-02  0.27456868779E-01  0.12886955676E+00  0.20954451711E-01 0.  0.
         14    1    1    2    0    0 -0.11944971709E-01 -0.81380821260E-02 -0.23833841205E-01  0.27874050950E-01  0.00000000000E+00 0. -1.
     999901    1    3    3    0    0 -0.11219695421E+00  0.99202719348E-02 -0.36230275743E-02  0.88718639229E+00  0.88000000000E+00 0.  1.
        -11    1    4    4    0    0  0.53557332294E-01  0.24713472941E-02  0.18081020911E-02  0.53647234356E-01  0.51100000000E-03 0.  1.
         11    1    4    4    0    0  0.70584593622E-01 -0.42535371030E-02  0.25648766688E-01  0.75222322407E-01  0.51100000000E-03 0. -1.
</event>
<event>
 7    1  0.1101883E+005  0.1043930E+01  0.7957747E-01            NaN
         13   -1    0    0    0    0  0.00000000000E+00  0.00000000000E+00  0.74505805969E-08  0.10566000000E+00  0.10566000000E+00 0. -1.
     999900   -1    0    0    0    0 -0.00000000000E+00 -0.00000000000E+00 -0.74505805969E-08  0.93827000000E+00  0.93827000000E+00 0.  1.
     999903    2    1    2    0    0  0.81250394706E-01 -0.52060909484E-01  0.38680223937E-01  0.10585319630E+00  0.19919199453E-01 0.  0.
         14    1    1    2    0    0 -0.10116700803E-02 -0.17071889483E-02 -0.52644440995E-01  0.52681829298E-01  0.00000000000E+00 0.  1.
     999901    1    1    2    0    0 -0.80238724626E-01  0.53768098432E-01  0.13964217059E-01  0.88539497440E+00  0.88000000000E+00 0.  1.
        -11    1    3    3    0    0  0.56714791685E-02 -0.70267649985E-02  0.96051888990E-02  0.13193251195E-01  0.51100000000E-03 0.  1.
         11    1    3    3    0    0  0.75578915538E-01 -0.45034144486E-01  0.29075035038E-01  0.92659945105E-01  0.51100000000E-03 0. -1.
</event>
<event>
 8    1  0.1101883E+005  0.1043930E+01  0.7957747E-01            NaN
         13   -1    0    0    0    0  0.00000000000E+00  0.00000000000E+00  0.74505805969E-08  0.10566000000E+00  0.10566000000E+00 0. -1.
     999900   -1    0    0    0    0 -0.00000000000E+00 -0.00000000000E+00 -0.74505805969E-08  0.93827000000E+00  0.93827000000E+00 0. -1.
     999902    2    1    2    0    0 -0.21308935389E-01 -0.21639412954E-03  0.10820558734E-01  0.10200301664E+01  0.10197501353E+01 0.  0.
     999903    2    3    3    0    0  0.83849648453E-01 -0.17736884996E-01  0.95118600713E-01  0.12959687008E+00  0.20060904688E-01 0.  0.
         14    1    1    2    0    0  0.21308935389E-01  0.21639412954E-03 -0.10820558734E-01  0.23899833580E-01  0.00000000000E+00 0.  1.
     999901    1    3    3    0    0 -0.10515858384E+00  0.17520490866E-01 -0.84298041979E-01  0.89043329634E+00  0.88000000000E+00 0. -1.
        -11    1    4    4    0    0  0.25493729061E-01  0.38693175636E-02  0.28204442186E-01  0.38218497090E-01  0.51100000000E-03 0.  1.
         11    1    4    4    0    0  0.58355919392E-01 -0.21606202559E-01  0.66914158527E-01  0.91378372986E-01  0.51100000000E-03 0. -1.
</event>
<event>
 8    1  0.1101883E+005  0.1043930E+01  0.7957747E-01            NaN
         13   -1    0    0    0    0  0.00000000000E+00  0.00000000000E+00  0.74505805969E-08  0.10566000000E+00  0.10566000000E+00 0. -1.
     999900   -1    0    0    0    0 -0.00000000000E+00 -0.00000000000E+00 -0.74505805969E-08  0.93827000000E+00  0.93827000000E+00 0. -1.
     999902    2    1    2    0    0  0.69204394336E-02 -0.86045019994E-02 -0.18349878420E-01  0.10225139319E+01  0.10222896326E+01 0.  0.
     999903    2    3    3    0    0 -0.12542369895E-01 -0.11967777731E+00  0.51943475554E-01  0.13253796081E+00  0.19700380153E-01 0.  0.
         14    1    1    2    0    0 -0.69204394336E-02  0.86045019994E-02  0.18349878420E-01  0.21416068141E-01  0.00000000000E+00 0. -1.
     999901    1    3    3    0    0  0.19462809329E-01  0.11107327531E+00 -0.70293353974E-01  0.88997597105E+00  0.88000000000E+00 0. -1.
        -11    1    4    4    0    0 -0.45872214869E-02 -0.31383202332E-01  0.46544652298E-02  0.32060460963E-01  0.51100000000E-03 0.  1.
         11    1    4    4    0    0 -0.79551484081E-02 -0.88294574978E-01  0.47289010324E-01  0.10047749985E+00  0.51100000000E-03 0. -1.
</event>
<event>
 8    1  0.1101883E+005  0.1043930E+01  0.7957747E-01            NaN
         13   -1    0    0    0    0  0.00000000000E+00  0.00000000000E+00  0.74505805969E-08  0.10566000000E+00  0.10566000000E+00 0. -1.
     999900   -1    0    0    0    0 -0.00000000000E+00 -0.00000000000E+00 -0.74505805969E-08  0.93827000000E+00  0.93827000000E+00 0. -1.
     999902    2    1    2    0    0  0.63939787397E-02 -0.14786495473E-01  0.16924912712E-01  0.10205638689E+01  0.10202963464E+01 0.  0.
     999903    2    3    3    0    0 -0.37083644449E-01 -0.98339799090E-01 -0.75112743319E-01  0.13076479697E+00  0.20287807868E-01 0.  0.
         14    1    1    2    0    0 -0.63939787397E-02  0.14786495473E-01 -0.16924912712E-01  0.23366131105E-01  0.00000000000E+00 0.  1.
     999901    1    3    3    0    0  0.43477623188E-01  0.83553303617E-01  0.92037656031E-01  0.88979907192E+00  0.88000000000E+00 0.  1.
        -11    1    4    4    0    0 -0.91664184499E-02 -0.52105501371E-01 -0.40266339724E-01  0.66487936771E-01  0.51100000000E-03 0.  1.
         11    1    4    4    0    0 -0.27917225999E-01 -0.46234297719E-01 -0.34846403596E-01  0.64276860203E-01  0.51100000000E-03 0. -1.
</event>
<event>
 8    1  0.1101883E+005  0.1043930E+01  0.7957747E-01            NaN
         13   -1    0    0    0    0  0.00000000000E+00  0.00000000000E+00  0.74505805969E-08  0.10566000000E+00  0.10566000000E+00 0.  1.
     999900   -1    0    0    0    0 -0.00000000000E+00 -0.00000000000E+00 -0.74505805969E-08  0.93827000000E+00  0.93827000000E+00 0.  1.
     999902    2    1    2    0    0  0.31294084425E-01 -0.23732841198E-02  0.28215127808E-02  0.10124194759E+01  0.10119289906E+01 0.  0.
     999903    2    3    3    0    0  0.17878260349E-01 -0.11980050291E+00 -0.18528122001E-01  0.12426130134E+00  0.20634607229E-01 0.  0.
         14    1    1    2    0    0 -0.31294084425E-01  0.23732841198E-02 -0.28215127808E-02  0.31510524145E-01  0.00000000000E+00 0.  1.
     999901    1    3    3    0    0  0.13415824076E-01  0.11742721879E+00  0.21349634782E-01  0.88815817451E+00  0.88000000000E+00 0. -1.
        -11    1    4    4    0    0  0.68594715225E-02 -0.51775164549E-01 -0.18311728661E-01  0.55347091533E-01  0.51100000000E-03 0. -1.
         11    1    4    4    0    0  0.11018788826E-01 -0.68025338363E-01 -0.21639333998E-03  0.68914209809E-01  0.51100000000E-03 0.  1.
</event>
<event>
 8    1  0.1101883E+005  0.1043930E+01  0.7957747E-01            NaN
         13   -1    0    0    0    0  0.00000000000E+00  0.00000000000E+00  0.74505805969E-08  0.10566000000E+00  0.10566000000E+00 0. -1.
     999900   -1    0    0    0    0 -0.00000000000E+00 -0.00000000000E+00 -0.74505805969E-08  0.93827000000E+00  0.93827000000E+00 0.  1.
     999902    2    1    2    0    0 -0.25424608862E-02 -0.14623752592E-01 -0.18432362917E-01  0.10202641966E+01  0.10199896865E+01 0.  0.
     999903    2    3    3    0    0 -0.43610404274E-01 -0.86219704836E-02 -0.12374687234E+00  0.13301353121E+00  0.20077483311E-01 0.  0.
         14    1    1    2    0    0  0.25424608862E-02  0.14623752592E-01  0.18432362917E-01  0.23665803387E-01  0.00000000000E+00 0. -1.
     999901    1    3    3    0    0  0.41067943388E-01 -0.60017821085E-02  0.10531450942E+00  0.88725066540E+00  0.88000000000E+00 0. -1.
        -11    1    4    4    0    0 -0.38478015282E-01 -0.35613078936E-03 -0.10597863565E+00  0.11274935399E+00  0.51100000000E-03 0. -1.
         11    1    4    4    0    0 -0.51323889919E-02 -0.82658396942E-02 -0.17768236686E-01  0.20264177223E-01  0.51100000000E-03 0.  1.
</event>
<event>
 8    1  0.1101883E+005  0.1043930E+01  0.7957747E-01            NaN
         13   -1    0    0    0    0  0.00000000000E+00  0.00000000000E+00  0.74505805969E-08  0.10566000000E+00  0.10566000000E+00 0.  1.
     999900   -1    0    0    0    0 -0.00000000000E+00 -0.00000000000E+00 -0.74505805969E-08  0.93827000000E+00  0.93827000000E+00 0.  1.
     999902    2    1    2    0    0 -0.22892608407E-01 -0.70359461312E-02  0.40374845717E-02  0.10196426095E+01  0.10193533115E+01 0.  0.
     999903    2    3    3    0    0 -0.52087220287E-01  0.89294972429E-01  0.77655180497E-01  0.13085043106E+00  0.20120577319E-01 0.  0.
         14    1    1    2    0    0  0.22892608407E-01  0.70359461312E-02 -0.40374845717E-02  0.24287390541E-01  0.00000000000E+00 0.  1.
     999901    1    3    3    0    0  0.29194611880E-01 -0.96330918560E-01 -0.73617695925E-01  0.88879217840E+00  0.88000000000E+00 0.  1.
        -11    1    4    4    0    0 -0.25513705441E-01  0.30512255279E-01  0.20937296159E-01  0.44950844029E-01  0.51100000000E-03 0. -1.
         11    1    4    4    0    0 -0.26573514846E-01  0.58782717151E-01  0.56717884338E-01  0.85899587029E-01  0.51100000000E-03 0.  1.
</event>
<event>
 8    1  0.1101883E+005  0.1043930E+01  0.7957747E-01            NaN
         13   -1    0    0    0    0  0.00000000000E+00  0.00000000000E+00  0.74505805969E-08  0.10566000000E+00  0.10566000000E+00 0.  1.
     999900   -1    0    0    0    0 -0.00000000000E+00 -0.00000000000E+00 -0.74505805969E-08  0.93827000000E+00  0.93827000000E+00 0. -1.
     999902    2    1    2    0    0  0.11309834738E-01 -0.72782491367E-02 -0.19780848204E-01  0.10200099827E+01  0.10197294727E+01 0.  0.
     999903    2    3    3    0    0 -0.20504554791E-01  0.10039308659E+00  0.73936661931E-01  0.12794034212E+00  0.20072183817E-01 0.  0.
         14    1    1    2    0    0 -0.11309834738E-01  0.72782491367E-02  0.19780848204E-01  0.23920017307E-01  0.00000000000E+00 0.  1.
     999901    1    3    3    0    0  0.31814389529E-01 -0.10767133573E+00 -0.93717510136E-01  0.89206964057E+00  0.88000000000E+00 0. -1.
        -11    1    4    4    0    0 -0.21471020450E-01  0.67432869531E-01  0.43547629868E-01  0.83095449938E-01  0.51100000000E-03 0. -1.
         11    1    4    4    0    0  0.96646565902E-03  0.32960217059E-01  0.30389032063E-01  0.44844892186E-01  0.51100000000E-03 0.  1.
</event>
<event>
 8    1  0.1101883E+005  0.1043930E+01  0.7957747E-01            NaN
         13   -1    0    0    0    0  0.00000000000E+00  0.00000000000E+00  0.74505805969E-08  0.10566000000E+00  0.10566000000E+00 0. -1.
     999900   -1    0    0    0    0 -0.00000000000E+00 -0.00000000000E+00 -0.74505805969E-08  0.93827000000E+00  0.93827000000E+00 0. -1.
     999902    2    1    2    0    0  0.90786869370E-02  0.18664464705E-01  0.17737140314E-01  0.10166281512E+01  0.10162614855E+01 0.  0.
     999903    2    3    3    0    0  0.45595513180E-01  0.48437134369E-01 -0.10592656175E+00  0.12673343743E+00  0.20391686323E-01 0.  0.
         14    1    1    2    0    0 -0.90786869370E-02 -0.18664464705E-01 -0.17737140314E-01  0.27301848761E-01  0.00000000000E+00 0.  1.
     999901    1    3    3    0    0 -0.36516826242E-01 -0.29772669663E-01  0.12366370206E+00  0.88989471381E+00  0.88000000000E+00 0.  1.
        -11    1    4    4    0    0  0.34415115422E-02  0.15987925795E-01 -0.26055313550E-01  0.30766836986E-01  0.51100000000E-03 0.  1.
         11    1    4    4    0    0  0.42154001637E-01  0.32449208574E-01 -0.79871248198E-01  0.95966600444E-01  0.51100000000E-03 0. -1.
</event>
<event>
 8    1  0.1101883E+005  0.1043930E+01  0.7957747E-01            NaN
         13   -1    0    0    0    0  0.00000000000E+00  0.00000000000E+00  0.74505805969E-08  0.10566000000E+00  0.10566000000E+00 0.  1.
     999900   -1    0    0    0    0 -0.00000000000E+00 -0.00000000000E+00 -0.74505805969E-08  0.93827000000E+00  0.93827000000E+00 0.  1.
     999902    2    1    2    0    0 -0.23514172242E-01 -0.79368580196E-02  0.92901055930E-03  0.10190950836E+01  0.10187924305E+01 0.  0.
     999903    2    3    3    0    0  0.31818169510E-01 -0.57443486316E-02 -0.12328580292E+00  0.12864811999E+00  0.17480163711E-01 0.  0.
         14    1    1    2    0    0  0.23514172242E-01  0.79368580196E-02 -0.92901055930E-03  0.24834916389E-01  0.00000000000E+00 0. -1.
     999901    1    3    3    0    0 -0.55332341752E-01 -0.21925093880E-02  0.12421481347E+00  0.89044696362E+00  0.88000000000E+00 0. -1.
        -11    1    4    4    0    0  0.30367191527E-01 -0.91156685683E-02 -0.11804263159E+00  0.12222759806E+00  0.51100000000E-03 0. -1.
         11    1    4    4    0    0  0.14509779839E-02  0.33713199366E-02 -0.52431713292E-02  0.64205219268E-02  0.51100000000E-03 0.  1.
</event>
<event>
 8    1  0.1101883E+005  0.1043930E+01  0.7957747E-01            NaN
         13   -1    0    0    0    0  0.00000000000E+00  0.00000000000E+00  0.74505805969E-08  0.10566000000E+00  0.10566000000E+00 0. -1.
     999900   -1    0    0    0    0 -0.00000000000E+00 -0.00000000000E+00 -0.74505805969E-08  0.93827000000E+00  0.93827000000E+00 0.  1.
     999902    2    1    2    0    0 -0.17178522709E-04 -0.20183950630E-03  0.22658028138E-01  0.10212710664E+01  0.10210196686E+01 0.  0.
     999903    2    3    3    0    0 -0.62873161130E-01  0.18629465973E-01  0.11513263456E+00  0.13399599884E+00  0.19982811938E-01 0.  0.
         14    1    1    2    0    0  0.17178522709E-04  0.20183950630E-03 -0.22658028138E-01  0.22658933633E-01  0.00000000000E+00 0.  1.
     999901    1    3    3    0    0  0.62855982608E-01 -0.18831305479E-01 -0.92474606420E-01  0.88727506752E+00  0.88000000000E+00 0.  1.
        -11    1    4    4    0    0 -0.45060341518E-01  0.11229274278E-01  0.61975845658E-01  0.77445448830E-01  0.51100000000E-03 0.  1.
         11    1    4    4    0    0 -0.17812819613E-01  0.74001916955E-02  0.53156788900E-01  0.56550550014E-01  0.51100000000E-03 0. -1.
</event>
<event>
 8    1  0.1101883E+005  0.1043930E+01  0.7957747E-01            NaN
         13   -1    0    0    0    0  0.00000000000E+00  0.00000000000E+00  0.74505805969E-08  0.10566000000E+00  0.10566000000E+00 0.  1.
     999900   -1    0    0    0    0 -0.00000000000E+00 -0.00000000000E+00 -0.74505805969E-08  0.93827000000E+00  0.93827000000E+00 0. -1.
     999902    2    1    2    0    0  0.10463948389E-01 -0.12040341893E-01 -0.18112543716E-01  0.10197943772E+01  0.10195087265E+01 0.  0.
     999903    2    3    3    0    0 -0.44070284040E-01  0.76450627528E-01 -0.93870035196E-01  0.13044414713E+00  0.20425563129E-01 0.  0.
         14    1    1    2    0    0 -0.10463948389E-01  0.12040341893E-01  0.18112543716E-01  0.24135622815E-01  0.00000000000E+00 0.  1.
     999901    1    3    3    0    0  0.54534232430E-01 -0.88490969421E-01  0.75757491479E-01  0.88935023005E+00  0.88000000000E+00 0.  1.
        -11    1    4    4    0    0 -0.21565905389E-01  0.38966027803E-01 -0.32699988023E-01  0.55253868061E-01  0.51100000000E-03 0.  1.
         11    1    4    4    0    0 -0.22504378652E-01  0.37484599725E-01 -0.61170047173E-01  0.75190279074E-01  0.51100000000E-03 0. -1.
</event>
<event>
 8    1  0.1101883E+005  0.1043930E+01  0.7957747E-01            NaN
         13   -1    0    0    0    0  0.00000000000E+00  0.00000000000E+00  0.74505805969E-08  0.10566000000E+00  0.10566000000E+00 0. -1.
     999900   -1    0    0    0    0 -0.00000000000E+00 -0.00000000000E+00 -0.74505805969E-08  0.93827000000E+00  0.93827000000E+00 0.  1.
     999902    2    1    2    0    0 -0.15161951581E-01 -0.12381331811E-01  0.78224248860E-02  0.10228498557E+01  0.10226326099E+01 0.  0.
     999903    2    3    3    0    0  0.60886586544E-01 -0.32184765065E-01 -0.11019245920E+00  0.13150083932E+00  0.20175657409E-01 0.  0.
         14    1    1    2    0    0  0.15161951581E-01  0.12381331811E-01 -0.78224248860E-02  0.21080144313E-01  0.00000000000E+00 0.  1.
     999901    1    3    3    0    0 -0.76048538125E-01  0.19803433254E-01  0.11801488409E+00  0.89134901637E+00  0.88000000000E+00 0. -1.
        -11    1    4    4    0    0  0.33258019740E-01 -0.26121999692E-01 -0.77317690123E-01  0.88129115915E-01  0.51100000000E-03 0. -1.
         11    1    4    4    0    0  0.27628566804E-01 -0.60627653733E-02 -0.32874769081E-01  0.43371723401E-01  0.51100000000E-03 0.  1.
</event>
<event>
 8    1  0.1101883E+005  0.1043930E+01  0.7957747E-01            NaN
         13   -1    0    0    0    0  0.00000000000E+00  0.00000000000E+00  0.74505805969E-08  0.10566000000E+00  0.10566000000E+00 0. -1.
     999900   -1    0    0    0    0 -0.00000000000E+00 -0.00000000000E+00 -0.74505805969E-08  0.93827000000E+00  0.93827000000E+00 0.  1.
     999902    2    1    2    0    0  0.20480816466E-01  0.98279638286E-02  0.94687235988E-02  0.10193188350E+01  0.10190216769E+01 0.  0.
     999903    2    3    3    0    0 -0.17661636235E-01 -0.33899888072E-01  0.12275406435E+00  0.13016162721E+00  0.20306478757E-01 0.  0.
         14    1    1    2    0    0 -0.20480816466E-01 -0.98279638286E-02 -0.94687235988E-02  0.24611165001E-01  0.00000000000E+00 0.  1.
     999901    1    3    3    0    0  0.38142452701E-01  0.43727851901E-01 -0.11328534075E+00  0.88915720779E+00  0.88000000000E+00 0.  1.
        -11    1    4    4    0    0 -0.36524601775E-02 -0.24557427543E-01  0.55027292033E-01  0.60371116457E-01  0.51100000000E-03 0.  1.
         11    1    4    4    0    0 -0.14009176058E-01 -0.93424605294E-02  0.67726772313E-01  0.69790510755E-01  0.51100000000E-03 0. -1.
</event>
<event>
 8    1  0.1101883E+005  0.1043930E+01  0.7957747E-01            NaN
         13   -1    0    0    0    0  0.00000000000E+00  0.00000000000E+00  0.74505805969E-08  0.10566000000E+00  0.10566000000E+00 0. -1.
     999900   -1    0    0    0    0 -0.00000000000E+00 -0.00000000000E+00 -0.74505805969E-08  0.93827000000E+00  0.93827000000E+00 0. -1.
     999902    2    1    2    0    0  0.90964243875E-02  0.20115691357E-01 -0.90197438599E-02  0.10200816928E+01  0.10198028821E+01 0.  0.
     999903    2    3    3    0    0 -0.85169146219E-02  0.13097438137E+00  0.41996703698E-02  0.13285306853E+00  0.20136389379E-01 0.  0.
         14    1    1    2    0    0 -0.90964243875E-02 -0.20115691357E-01  0.90197438599E-02  0.23848307167E-01  0.00000000000E+00 0.  1.
     999901    1    3    3    0    0  0.17613339009E-01 -0.11085869002E+00 -0.13219414230E-01  0.88722862430E+00  0.88000000000E+00 0.  1.
        -11    1    4    4    0    0  0.22548481450E-02  0.99288295695E-01  0.29706985914E-02  0.99359630501E-01  0.51100000000E-03 0. -1.
         11    1    4    4    0    0 -0.10771762767E-01  0.31686085678E-01  0.12289717784E-02  0.33493438034E-01  0.51100000000E-03 0.  1.
</event>
<event>
 8    1  0.1101883E+005  0.1043930E+01  0.7957747E-01            NaN
         13   -1    0    0    0    0  0.00000000000E+00  0.00000000000E+00  0.74505805969E-08  0.10566000000E+00  0.10566000000E+00 0.  1.
     999900   -1    0    0    0    0 -0.00000000000E+00 -0.00000000000E+00 -0.74505805969E-08  0.93827000000E+00  0.93827000000E+00 0. -1.
     999902    2    1    2    0    0  0.20422105042E-02 -0.13568743148E-01  0.19508868254E-01  0.10200788500E+01  0.10197999720E+01 0.  0.
     999903    2    3    3    0    0  0.29259001798E-01 -0.11522651965E-01  0.12773230439E+00  0.13302910377E+00  0.19807578609E-01 0.  0.
         14    1    1    2    0    0 -0.20422105042E-02  0.13568743148E-01 -0.19508868254E-01  0.23851149970E-01  0.00000000000E+00 0.  1.
     999901    1    3    3    0    0 -0.27216791294E-01 -0.20460911826E-02 -0.10822343613E+00  0.88704974626E+00  0.88000000000E+00 0. -1.
        -11    1    4    4    0    0  0.10487056990E-02  0.27100157698E-02  0.33695156163E-01  0.33824083712E-01  0.51100000000E-03 0. -1.
         11    1    4    4    0    0  0.28210296099E-01 -0.14232667735E-01  0.94037148224E-01  0.99205020054E-01  0.51100000000E-03 0.  1.
</event>
<event>
 8    1  0.1101883E+005  0.1043930E+01  0.7957747E-01            NaN
         13   -1    0    0    0    0  0.00000000000E+00  0.00000000000E+00  0.74505805969E-08  0.10566000000E+00  0.10566000000E+00 0.  1.
     999900   -1    0    0    0    0 -0.00000000000E+00 -0.00000000000E+00 -0.74505805969E-08  0.93827000000E+00  0.93827000000E+00 0.  1.
     999902    2    1    2    0    0 -0.14482711204E-01  0.10818011268E-01 -0.15251560866E-01  0.10202786068E+01  0.10200044348E+01 0.  0.
     999903    2    3    3    0    0  0.57791137113E-02  0.11604376408E+00 -0.59095631143E-01  0.13269463719E+00  0.24819745797E-01 0.  0.
         14    1    1    2    0    0  0.14482711204E-01 -0.10818011268E-01  0.15251560866E-01  0.23651393203E-01  0.00000000000E+00 0.  1.
     999901    1    3    3    0    0 -0.20261824915E-01 -0.10522575281E+00  0.43844070277E-01  0.88758396961E+00  0.88000000000E+00 0. -1.
        -11    1    4    4    0    0  0.10884441957E-01  0.78944636992E-01 -0.29564759191E-01  0.85000369961E-01  0.51100000000E-03 0. -1.
         11    1    4    4    0    0 -0.51053282458E-02  0.37099127090E-01 -0.29530871952E-01  0.47694267229E-01  0.51100000000E-03 0.  1.
</event>
<event>
 8    1  0.1101883E+005  0.1043930E+01  0.7957747E-01            NaN
         13   -1    0    0    0    0  0.00000000000E+00  0.00000000000E+00  0.74505805969E-08  0.10566000000E+00  0.10566000000E+00 0.  1.
     999900   -1    0    0    0    0 -0.00000000000E+00 -0.00000000000E+00 -0.74505805969E-08  0.93827000000E+00  0.93827000000E+00 0. -1.
     999902    2    1    2    0    0  0.17224245242E-01 -0.13522207912E-01 -0.62242341596E-02  0.10211645476E+01  0.10209107539E+01 0.  0.
     999903    2    3    3    0    0  0.54534350217E-01  0.11691231567E+00 -0.73760554540E-02  0.13076770601E+00  0.20082376157E-01 0.  0.
         14    1    1    2    0    0 -0.17224245242E-01  0.13522207912E-01  0.62242341596E-02  0.22765452375E-01  0.00000000000E+00 0. -1.
     999901    1    3    3    0    0 -0.37310104975E-01 -0.13043452358E+00  0.11518212944E-02  0.89039684162E+00  0.88000000000E+00 0. -1.
        -11    1    4    4    0    0  0.14689911059E-01  0.39724650982E-01  0.63280486853E-02  0.42826938996E-01  0.51100000000E-03 0.  1.
         11    1    4    4    0    0  0.39844439158E-01  0.77187664683E-01 -0.13704104139E-01  0.87940767010E-01  0.51100000000E-03 0. -1.
</event>
<event>
 8    1  0.1101883E+005  0.1043930E+01  0.7957747E-01            NaN
         13   -1    0    0    0    0  0.00000000000E+00  0.00000000000E+00  0.74505805969E-08  0.10566000000E+00  0.10566000000E+00 0.  1.
     999900   -1    0    0    0    0 -0.00000000000E+00 -0.00000000000E+00 -0.74505805969E-08  0.93827000000E+00  0.93827000000E+00 0. -1.
     999902    2    1    2    0    0 -0.34577640479E-02 -0.25919173057E-01  0.78440868247E-03  0.10177694388E+01  0.10174331701E+01 0.  0.
     999903    2    3    3    0    0  0.42809930508E-01 -0.54496646333E-01  0.10801435179E+00  0.12959398755E+00  0.18025726213E-01 0.  0.
         14    1    1    2    0    0  0.34577640479E-02  0.25919173057E-01 -0.78440868247E-03  0.26160561178E-01  0.00000000000E+00 0. -1.
     999901    1    3    3    0    0 -0.46267694556E-01  0.28577473276E-01 -0.10722994311E+00  0.88817545127E+00  0.88000000000E+00 0. -1.
        -11    1    4    4    0    0  0.57542859079E-02 -0.11081267790E-01  0.33316574613E-01  0.35583164096E-01  0.51100000000E-03 0.  1.
         11    1    4    4    0    0  0.37055644600E-01 -0.43415378543E-01  0.74697777177E-01  0.94010823457E-01  0.51100000000E-03 0. -1.
</event>
<event>
 8    1  0.1101883E+005  0.1043930E+01  0.7957747E-01            NaN
         13   -1    0    0    0    0  0.00000000000E+00  0.00000000000E+00  0.74505805969E-08  0.10566000000E+00  0.10566000000E+00 0.  1.
     999900   -1    0    0    0    0 -0.00000000000E+00 -0.00000000000E+00 -0.74505805969E-08  0.93827000000E+00  0.93827000000E+00 0.  1.
     999902    2    1    2    0    0  0.60533835849E-02  0.65388243477E-02  0.22210954477E-01  0.10199983019E+01  0.10197175146E+01 0.  0.
     999903    2    3    3    0    0 -0.12379405386E+00 -0.16200505473E-01 -0.25525903371E-01  0.12889996738E+00  0.19396022768E-01 0.  0.
         14    1    1    2    0    0 -0.60533835849E-02 -0.65388243477E-02 -0.22210954477E-01  0.23931698131E-01  0.00000000000E+00 0. -1.
     999901    1    3    3    0    0  0.12984743744E+00  0.22739329820E-01  0.47736857848E-01  0.89109833449E+00  0.88000000000E+00 0. -1.
        -11    1    4    4    0    0 -0.10824408557E+00 -0.20525423944E-01 -0.23112759034E-01  0.11257235825E+00  0.51100000000E-03 0.  1.
         11    1    4    4    0    0 -0.15549968285E-01  0.43249184713E-02 -0.24131443373E-02  0.16327609134E-01  0.51100000000E-03 0. -1.
</event>
<event>
 8    1  0.1101883E+005  0.1043930E+01  0.7957747E-01            NaN
         13   -1    0    0    0    0  0.00000000000E+00  0.00000000000E+00  0.74505805969E-08  0.10566000000E+00  0.10566000000E+00 0. -1.
     999900   -1    0    0    0    0 -0.00000000000E+00 -0.00000000000E+00 -0.74505805969E-08  0.93827000000E+00  0.93827000000E+00 0.  1.
     999902    2    1    2    0    0 -0.20607347147E-01  0.15796686861E-01 -0.13981081714E-01  0.10144398539E+01  0.10140111185E+01 0.  0.
     999903    2    3    3    0    0 -0.78393916688E-01  0.40366586302E-01 -0.91489904324E-01  0.12880415837E+00  0.21095998605E-01 0.  0.
         14    1    1    2    0    0  0.20607347147E-01 -0.15796686861E-01  0.13981081714E-01  0.29490146119E-01  0.00000000000E+00 0. -1.
     999901    1    3    3    0    0  0.57786569541E-01 -0.24569899440E-01  0.77508822610E-01  0.88563569551E+00  0.88000000000E+00 0. -1.
        -11    1    4    4    0    0 -0.15110068719E-01  0.13712363210E-01 -0.11674327328E-01  0.23513700710E-01  0.51100000000E-03 0. -1.
         11    1    4    4    0    0 -0.63283847969E-01  0.26654223092E-01 -0.79815576996E-01  0.10529045766E+00  0.51100000000E-03 0.  1.
</event>
<event>
 8    1  0.1101883E+005  0.1043930E+01  0.7957747E-01            NaN
         13   -1    0    0    0    0  0.00000000000E+00  0.00000000000E+00  0.74505805969E-08  0.10566000000E+00  0.10566000000E+00 0.  1.
     999900   -1    0    0    0    0 -0.00000000000E+00 -0.00000000000E+00 -0.74505805969E-08  0.93827000000E+00  0.93827000000E+00 0.  1.
     999902    2    1    2    0    0  0.12850239788E-03 -0.21726302315E-01  0.11796255357E-01  0.10192075332E+01  0.10189076481E+01 0.  0.
     999903    2    3    3    0    0  0.44805570590E-02 -0.65560218018E-02 -0.12639933523E+00  0.12828267718E+00  0.20410695802E-01 0.  0.
         14    1    1    2    0    0 -0.12850239788E-03  0.21726302315E-01 -0.11796255357E-01  0.24722466819E-01  0.00000000000E+00 0. -1.
     999901    1    3    3    0    0 -0.43520546611E-02 -0.15170280513E-01  0.13819559059E+00  0.89092485601E+00  0.88000000000E+00 0. -1.
        -11    1    4    4    0    0 -0.12329685212E-02 -0.75775940905E-02 -0.16252032892E-01  0.17981374744E-01  0.51100000000E-03 0.  1.
         11    1    4    4    0    0  0.57135255801E-02  0.10215722887E-02 -0.11014730234E+00  0.11030130243E+00  0.51100000000E-03 0. -1.
</event>
<event>
 8    1  0.1101883E+005  0.1043930E+01  0.7957747E-01            NaN
         13   -1    0    0    0    0  0.00000000000E+00  0.00000000000E+00  0.74505805969E-08  0.10566000000E+00  0.10566000000E+00 0.  1.
     999900   -1    0    0    0    0 -0.00000000000E+00 -0.00000000000E+00 -0.74505805969E-08  0.93827000000E+00  0.93827000000E+00 0.  1.
     999902    2    1    2    0    0 -0.41385051469E-02 -0.77399779986E-02  0.22290841262E-01  0.10199734542E+01  0.10196920766E+01 0.  0.
     999903    2    3    3    0    0  0.40407136097E-01 -0.94750533737E-01  0.81247686842E-01  0.13260033050E+00  0.19268127562E-01 0.  0.
         14    1    1    2    0    0  0.41385051469E-02  0.77399779986E-02 -0.22290841262E-01  0.23956545837E-01  0.00000000000E+00 0. -1.
     999901    1    3    3    0    0 -0.44545641244E-01  0.87010555739E-01 -0.58956845579E-01  0.88737312367E+00  0.88000000000E+00 0.  1.
        -11    1    4    4    0    0  0.34566572298E-01 -0.63913662265E-01  0.49281359087E-01  0.87799303066E-01  0.51100000000E-03 0.  1.
         11    1    4    4    0    0  0.58405637994E-02 -0.30836871472E-01  0.31966327755E-01  0.44801027431E-01  0.51100000000E-03 0. -1.
</event>
<event>
 8    1  0.1101883E+005  0.1043930E+01  0.7957747E-01            NaN
         13   -1    0    0    0    0  0.00000000000E+00  0.00000000000E+00  0.74505805969E-08  0.10566000000E+00  0.10566000000E+00 0.  1.
     999900   -1    0    0    0    0 -0.00000000000E+00 -0.00000000000E+00 -0.74505805969E-08  0.93827000000E+00  0.93827000000E+00 0.  1.
     999902    2    1    2    0    0  0.87374394109E-02  0.31008097180E-02 -0.22353010475E-01  0.10197305177E+01  0.10194433352E+01 0.  0.
     999903    2    3    3    0    0 -0.86518414141E-01  0.91510521458E-01  0.20097300303E-01  0.12917339784E+00  0.20548812811E-01 0.  0.
         14    1    1    2    0    0 -0.87374394109E-02 -0.31008097180E-02  0.22353010475E-01  0.24199482342E-01  0.00000000000E+00 0.  1.
     999901    1    3    3    0    0  0.95255853552E-01 -0.88409711740E-01 -0.42450310778E-01  0.89055711981E+00  0.88000000000E+00 0.  1.
        -11    1    4    4    0    0 -0.66734561544E-01  0.69276524001E-01  0.63944826784E-02  0.96404818405E-01  0.51100000000E-03 0. -1.
         11    1    4    4    0    0 -0.19783852597E-01  0.22233997458E-01  0.13702817625E-01  0.32768579438E-01  0.51100000000E-03 0.  1.
</event>
<event>
 8    1  0.1101883E+005  0.1043930E+01  0.7957747E-01            NaN
         13   -1    0    0    0    0  0.00000000000E+00  0.00000000000E+00  0.74505805969E-08  0.10566000000E+00  0.10566000000E+00 0. -1.
     999900   -1    0    0    0    0 -0.00000000000E+00 -0.00000000000E+00 -0.74505805969E-08  0.93827000000E+00  0.93827000000E+00 0. -1.
     999902    2    1    2    0    0 -0.14784948146E-01 -0.18152917032E-01 -0.18183990655E-02  0.10204474605E+01  0.10201772345E+01 0.  0.
     999903    2    3    3    0    0 -0.21711504037E-01 -0.41209129333E-01  0.12144730765E+00  0.13153014115E+00  0.19523005608E-01 0.  0.
         14    1    1    2    0    0  0.14784948146E-01  0.18152917032E-01  0.18183990655E-02  0.23482539548E-01  0.00000000000E+00 0. -1.
     999901    1    3    3    0    0  0.69265558912E-02  0.23056212301E-01 -0.12326570671E+00  0.88891731930E+00  0.88000000000E+00 0. -1.
        -11    1    4    4    0    0 -0.18929892588E-01 -0.40588690115E-01  0.96177881495E-01  0.10609537506E+00  0.51100000000E-03 0.  1.
         11    1    4    4    0    0 -0.27816114489E-02 -0.62043921806E-03  0.25269426154E-01  0.25434766094E-01  0.51100000000E-03 0. -1.
</event>
<event>
 8    1  0.1101883E+005  0.1043930E+01  0.7957747E-01            NaN
         13   -1    0    0    0    0  0.00000000000E+00  0.00000000000E+00  0.74505805969E-08  0.10566000000E+00  0.10566000000E+00 0. -1.
     999900   -1    0    0    0    0 -0.00000000000E+00 -0.00000000000E+00 -0.74505805969E-08  0.93827000000E+00  0.93827000000E+00 0. -1.
     999902    2    1    2    0    0 -0.20377000634E-01  0.75535419620E-02 -0.10115419105E-01  0.10199591874E+01  0.10196774707E+01 0.  0.
     999903    2    3    3    0    0 -0.96294589907E-01  0.87430578150E-01 -0.18679234108E-01  0.13304478334E+00  0.20862563290E-01 0.  0.
         14    1    1    2    0    0  0.20377000634E-01 -0.75535419620E-02  0.10115419105E-01  0.23970812558E-01  0.00000000000E+00 0. -1.
     999901    1    3    3    0    0  0.75917589272E-01 -0.79877036188E-01  0.85638150038E-02  0.88691440410E+00  0.88000000000E+00 0.  1.
        -11    1    4    4    0    0 -0.55952991295E-01  0.55930085748E-01 -0.17577572528E-02  0.79134458728E-01  0.51100000000E-03 0.  1.
         11    1    4    4    0    0 -0.40341598612E-01  0.31500492401E-01 -0.16921476856E-01  0.53910324615E-01  0.51100000000E-03 0. -1.
</event>
<event>
 8    1  0.1101883E+005  0.1043930E+01  0.7957747E-01            NaN
         13   -1    0    0    0    0  0.00000000000E+00  0.00000000000E+00  0.74505805969E-08  0.10566000000E+00  0.10566000000E+00 0. -1.
     999900   -1    0    0    0    0 -0.00000000000E+00 -0.00000000000E+00 -0.74505805969E-08  0.93827000000E+00  0.93827000000E+00 0.  1.
     999902    2    1    2    0    0 -0.13026999776E-01  0.90661930462E-02 -0.17465783826E-01  0.10203301656E+01  0.10200572016E+01 0.  0.
     999903    2    3    3    0    0  0.68305707809E-01  0.84369177265E-01 -0.71899120805E-01  0.13170845928E+00  0.19844568051E-01 0.  0.
         14    1    1    2    0    0  0.13026999776E-01 -0.90661930462E-02  0.17465783826E-01  0.23599834410E-01  0.00000000000E+00 0. -1.
     999901    1    3    3    0    0 -0.81332707585E-01 -0.75302984218E-01  0.54433336979E-01  0.88862170631E+00  0.88000000000E+00 0. -1.
        -11    1    4    4    0    0  0.38499915443E-01  0.44882892320E-01 -0.27437606840E-01  0.65190497024E-01  0.51100000000E-03 0. -1.
         11    1    4    4    0    0  0.29805792366E-01  0.39486284944E-01 -0.44461513965E-01  0.66517962253E-01  0.51100000000E-03 0.  1.
</event>
<event>
 8    1  0.1101883E+005  0.1043930E+01  0.7957747E-01            NaN
         13   -1    0    0    0    0  0.00000000000E+00  0.00000000000E+00  0.74505805969E-08  0.10566000000E+00  0.10566000000E+00 0.  1.
     999900   -1    0    0    0    0 -0.00000000000E+00 -0.00000000000E+00 -0.74505805969E-08  0.93827000000E+00  0.93827000000E+00 0. -1.
     999902    2    1    2    0    0  0.96925252205E-02 -0.26790890226E-01  0.12645450000E-01  0.10127594330E+01  0.10122796376E+01 0.  0.
     999903    2    3    3    0    0  0.34943427039E-02 -0.85365801380E-01  0.92180758447E-01  0.12721140886E+00  0.19644842601E-01 0.  0.
         14    1    1    2    0    0 -0.96925252205E-02  0.26790890226E-01 -0.12645450000E-01  0.31170567046E-01  0.00000000000E+00 0. -1.
     999901    1    3    3    0    0  0.61981825166E-02  0.58574911154E-01 -0.79535308447E-01  0.88554802409E+00  0.88000000000E+00 0. -1.
        -11    1    4    4    0    0  0.69175292809E-02 -0.45351930469E-01  0.36879265579E-01  0.58864175516E-01  0.51100000000E-03 0.  1.
         11    1    4    4    0    0 -0.34231865770E-02 -0.40013870911E-01  0.55301492868E-01  0.68347233346E-01  0.51100000000E-03 0. -1.
</event>
<event>
 8    1  0.1101883E+005  0.1043930E+01  0.7957747E-01            NaN
         13   -1    0    0    0    0  0.00000000000E+00  0.00000000000E+00  0.74505805969E-08  0.10566000000E+00  0.10566000000E+00 0. -1.
     999900   -1    0    0    0    0 -0.00000000000E+00 -0.00000000000E+00 -0.74505805969E-08  0.93827000000E+00  0.93827000000E+00 0. -1.
     999902    2    1    2    0    0  0.27213899829E-02  0.27004691269E-01 -0.60705872428E-02  0.10161179281E+01  0.10157372359E+01 0.  0.
     999903    2    3    3    0    0 -0.55689903921E-01  0.11197056976E+00 -0.28222754022E-01  0.12982125189E+00  0.20451398629E-01 0.  0.
         14    1    1    2    0    0 -0.27213899829E-02 -0.27004691269E-01  0.60705872428E-02  0.27812071901E-01  0.00000000000E+00 0.  1.
     999901    1    3    3    0    0  0.58411293904E-01 -0.84965878496E-01  0.22152166779E-01  0.88629667621E+00  0.88000000000E+00 0. -1.
        -11    1    4    4    0    0 -0.40633474504E-01  0.85181438877E-01 -0.12207398967E-01  0.95164271078E-01  0.51100000000E-03 0. -1.
         11    1    4    4    0    0 -0.15056429417E-01  0.26789130888E-01 -0.16015355055E-01  0.34656980813E-01  0.51100000000E-03 0.  1.
</event>
<event>
 8    1  0.1101883E+005  0.1043930E+01  0.7957747E-01            NaN
         13   -1    0    0    0    0  0.00000000000E+00  0.00000000000E+00  0.74505805969E-08  0.10566000000E+00  0.10566000000E+00 0.  1.
     999900   -1    0    0    0    0 -0.00000000000E+00 -0.00000000000E+00 -0.74505805969E-08  0.93827000000E+00  0.93827000000E+00 0. -1.
     999902    2    1    2    0    0  0.18498457461E-01  0.71387583188E-02 -0.12124182572E-01  0.10206888597E+01  0.10204242244E+01 0.  0.
     999903    2    3    3    0    0 -0.11609879957E+00 -0.43090919851E-01 -0.30202295016E-01  0.12885576977E+00  0.18864573787E-01 0.  0.
         14    1    1    2    0    0 -0.18498457461E-01 -0.71387583188E-02  0.12124182572E-01  0.23241140286E-01  0.00000000000E+00 0.  1.
     999901    1    3    3    0    0  0.13459725703E+00  0.50229678170E-01  0.18078112444E-01  0.89183308994E+00  0.88000000000E+00 0. -1.
        -11    1    4    4    0    0 -0.65855076006E-01 -0.28917190193E-01 -0.25994891036E-01  0.76479346267E-01  0.51100000000E-03 0. -1.
         11    1    4    4    0    0 -0.50243723562E-01 -0.14173729658E-01 -0.42074039800E-02  0.52376423504E-01  0.51100000000E-03 0.  1.
</event>
<event>
 8    1  0.1101883E+005  0.1043930E+01  0.7957747E-01            NaN
         13   -1    0    0    0    0  0.00000000000E+00  0.00000000000E+00  0.74505805969E-08  0.10566000000E+00  0.10566000000E+00 0.  1.
     999900   -1    0    0    0    0 -0.00000000000E+00 -0.00000000000E+00 -0.74505805969E-08  0.93827000000E+00  0.93827000000E+00 0. -1.
     999902    2    1    2    0    0 -0.56847239832E-02 -0.18320367459E-01  0.13454362970E-01  0.10204998520E+01  0.10202308446E+01 0.  0.
     999903    2    3    3    0    0  0.12643650425E+00 -0.19039770730E-01 -0.13057572761E-01  0.13024178876E+00  0.21064682703E-01 0.  0.
         14    1    1    2    0    0  0.56847239832E-02  0.18320367459E-01 -0.13454362970E-01  0.23430147962E-01  0.00000000000E+00 0. -1.
     999901    1    3    3    0    0 -0.13212122823E+00  0.71940327049E-03  0.26511935731E-01  0.89025806328E+00  0.88000000000E+00 0. -1.
        -11    1    4    4    0    0  0.77072540204E-01 -0.14612451347E-01 -0.17829639724E-01  0.80447854922E-01  0.51100000000E-03 0.  1.
         11    1    4    4    0    0  0.49363964045E-01 -0.44273193827E-02  0.47720669634E-02  0.49793933840E-01  0.51100000000E-03 0. -1.
</event>
<event>
 8    1  0.1101883E+005  0.1043930E+01  0.7957747E-01            NaN
         13   -1    0    0    0    0  0.00000000000E+00  0.00000000000E+00  0.74505805969E-08  0.10566000000E+00  0.10566000000E+00 0.  1.
     999900   -1    0    0    0    0 -0.00000000000E+00 -0.00000000000E+00 -0.74505805969E-08  0.93827000000E+00  0.93827000000E+00 0. -1.
     999902    2    1    2    0    0  0.13084527578E-01 -0.10734758099E-01  0.15446193696E-01  0.10210165805E+01  0.10207594393E+01 0.  0.
     999903    2    3    3    0    0 -0.77606587725E-01 -0.29585222802E-01  0.10067870523E+00  0.13205943899E+00  0.20135189936E-01 0.  0.
         14    1    1    2    0    0 -0.13084527578E-01  0.10734758099E-01 -0.15446193696E-01  0.22913419498E-01  0.00000000000E+00 0.  1.
     999901    1    3    3    0    0  0.90691115303E-01  0.18850464703E-01 -0.85232511536E-01  0.88895714151E+00  0.88000000000E+00 0. -1.
        -11    1    4    4    0    0 -0.18954414670E-01 -0.86997941098E-03  0.14265004228E-01  0.23744013272E-01  0.51100000000E-03 0. -1.
         11    1    4    4    0    0 -0.58652173054E-01 -0.28715243391E-01  0.86413701004E-01  0.10831542572E+00  0.51100000000E-03 0.  1.
</event>
<event>
 8    1  0.1101883E+005  0.1043930E+01  0.7957747E-01            NaN
         13   -1    0    0    0    0  0.00000000000E+00  0.00000000000E+00  0.74505805969E-08  0.10566000000E+00  0.10566000000E+00 0. -1.
     999900   -1    0    0    0    0 -0.00000000000E+00 -0.00000000000E+00 -0.74505805969E-08  0.93827000000E+00  0.93827000000E+00 0. -1.
     999902    2    1    2    0    0  0.95057816317E-02 -0.75932683539E-02  0.20806217963E-01  0.10198277944E+01  0.10195429436E+01 0.  0.
     999903    2    3    3    0    0  0.95489177522E-01  0.83011721252E-01  0.28146607464E-01  0.13097668773E+00  0.18802455394E-01 0.  0.
         14    1    1    2    0    0 -0.95057816317E-02  0.75932683539E-02 -0.20806217963E-01  0.24102205597E-01  0.00000000000E+00 0.  1.
     999901    1    3    3    0    0 -0.85983395890E-01 -0.90604989606E-01 -0.73403895010E-02  0.88885110667E+00  0.88000000000E+00 0.  1.
        -11    1    4    4    0    0  0.17473754480E-01  0.90651506761E-02  0.95552193544E-02  0.21887722365E-01  0.51100000000E-03 0. -1.
         11    1    4    4    0    0  0.78015423042E-01  0.73946570576E-01  0.18591388109E-01  0.10908896537E+00  0.51100000000E-03 0.  1.
</event>
<event>
 8    1  0.1101883E+005  0.1043930E+01  0.7957747E-01            NaN
         13   -1    0    0    0    0  0.00000000000E+00  0.00000000000E+00  0.74505805969E-08  0.10566000000E+00  0.10566000000E+00 0.  1.
     999900   -1    0    0    0    0 -0.00000000000E+00 -0.00000000000E+00 -0.74505805969E-08  0.93827000000E+00  0.93827000000E+00 0.  1.
     999902    2    1    2    0    0  0.11644715116E-01  0.16912409066E-01 -0.11085162867E-01  0.10205952661E+01  0.10203284703E+01 0.  0.
     999903    2    3    3    0    0 -0.12403431083E+00  0.29483338050E-01  0.13315866324E-01  0.12977416365E+00  0.20254475294E-01 0.  0.
         14    1    1    2    0    0 -0.11644715116E-01 -0.16912409066E-01  0.11085162867E-01  0.23334733903E-01  0.00000000000E+00 0.  1.
     999901    1    3    3    0    0  0.13567902595E+00 -0.12570928984E-01 -0.24401029190E-01  0.89082110245E+00  0.88000000000E+00 0. -1.
        -11    1    4    4    0    0 -0.63639215881E-01  0.79036289830E-02 -0.65491984416E-03  0.64133510663E-01  0.51100000000E-03 0.  1.
         11    1    4    4    0    0 -0.60395094951E-01  0.21579709067E-01  0.13970786168E-01  0.65640652988E-01  0.51100000000E-03 0. -1.
</event>
<event>
 8    1  0.1101883E+005  0.1043930E+01  0.7957747E-01            NaN
         13   -1    0    0    0    0  0.00000000000E+00  0.00000000000E+00  0.74505805969E-08  0.10566000000E+00  0.10566000000E+00 0. -1.
     999900   -1    0    0    0    0 -0.00000000000E+00 -0.00000000000E+00 -0.74505805969E-08  0.93827000000E+00  0.93827000000E+00 0. -1.
     999902    2    1    2    0    0 -0.20322850444E-02  0.19830751475E-01  0.13956739354E-01  0.10195952623E+01  0.10193048216E+01 0.  0.
     999903    2    3    3    0    0  0.21873599362E-02 -0.12515618961E+00  0.15969719492E-01  0.12771911024E+00  0.19704893749E-01 0.  0.
         14    1    1    2    0    0  0.20322850444E-02 -0.19830751475E-01 -0.13956739354E-01  0.24334737721E-01  0.00000000000E+00 0.  1.
     999901    1    3    3    0    0 -0.42196449806E-02  0.14498694109E+00 -0.20129801379E-02  0.89187615204E+00  0.88000000000E+00 0. -1.
        -11    1    4    4    0    0 -0.87077373423E-02 -0.59958338409E-01  0.64121031869E-02  0.60927852602E-01  0.51100000000E-03 0. -1.
         11    1    4    4    0    0  0.10895097278E-01 -0.65197851203E-01  0.95576163054E-02  0.66791257636E-01  0.51100000000E-03 0.  1.
</event>
<event>
 7    1  0.1101883E+005  0.1043930E+01  0.7957747E-01            NaN
         13   -1    0    0    0    0  0.00000000000E+00  0.00000000000E+00  0.74505805969E-08  0.10566000000E+00  0.10566000000E+00 0. -1.
     999900   -1    0    0    0    0 -0.00000000000E+00 -0.00000000000E+00 -0.74505805969E-08  0.93827000000E+00  0.93827000000E+00 0.  1.
     999902    2    1    2    0    0  0.21895464076E-01  0.71737677192E-02 -0.44360014670E-02  0.10204661470E+01  0.10201963560E+01 0.  0.
         14    1    1    2    0    0 -0.21895464076E-01 -0.71737677192E-02  0.44360014670E-02  0.23463853039E-01  0.00000000000E+00 0. -1.
     999901    1    3    3    0    0 -0.26160266735E-01 -0.11078127936E+00 -0.17538424289E-02  0.88733304197E+00  0.88000000000E+00 0.  1.
        -11    1    3    3    0    0 -0.25829767058E-03  0.10787318727E-01  0.10220341675E-01  0.14871095049E-01  0.51100000000E-03 0.  1.
         11    1    3    3    0    0  0.48314028482E-01  0.10716772836E+00 -0.12902500713E-01  0.11826200994E+00  0.51100000000E-03 0. -1.
</event>
<event>
 8    1  0.1101883E+005  0.1043930E+01  0.7957747E-01            NaN
         13   -1    0    0    0    0  0.00000000000E+00  0.00000000000E+00  0.74505805969E-08  0.10566000000E+00  0.10566000000E+00 0. -1.
     999900   -1    0    0    0    0 -0.00000000000E+00 -0.00000000000E+00 -0.74505805969E-08  0.93827000000E+00  0.93827000000E+00 0.  1.
     999902    2    1    2    0    0  0.26553506556E-02  0.15814593840E-01 -0.17373813967E-01  0.10202867837E+01  0.10200128035E+01 0.  0.
     999903    2    3    3    0    0 -0.10826186997E+00 -0.61732489019E-01  0.26186663933E-01  0.12887571403E+00  0.19790796060E-01 0.  0.
         14    1    1    2    0    0 -0.26553506556E-02 -0.15814593840E-01  0.17373813967E-01  0.23643216304E-01  0.00000000000E+00 0. -1.
     999901    1    3    3    0    0  0.11091722062E+00  0.77547082859E-01 -0.43560477901E-01  0.89141106967E+00  0.88000000000E+00 0.  1.
        -11    1    4    4    0    0 -0.69735035694E-01 -0.31661319671E-01  0.92295972950E-02  0.77141823635E-01  0.51100000000E-03 0. -1.
         11    1    4    4    0    0 -0.38526834275E-01 -0.30071169348E-01  0.16957066638E-01  0.51733890393E-01  0.51100000000E-03 0.  1.
</event>
<event>
 8    1  0.1101883E+005  0.1043930E+01  0.7957747E-01            NaN
         13   -1    0    0    0    0  0.00000000000E+00  0.00000000000E+00  0.74505805969E-08  0.10566000000E+00  0.10566000000E+00 0. -1.
     999900   -1    0    0    0    0 -0.00000000000E+00 -0.00000000000E+00 -0.74505805969E-08  0.93827000000E+00  0.93827000000E+00 0.  1.
     999902    2    1    2    0    0  0.77318375806E-02  0.13147115484E-01 -0.17204055819E-01  0.10209385343E+01  0.10206796184E+01 0.  0.
     999903    2    3    3    0    0 -0.38562381381E-01  0.82539377796E-01 -0.96976361894E-01  0.13340145813E+00  0.95774798528E-02 0.  0.
         14    1    1    2    0    0 -0.77318375806E-02 -0.13147115484E-01  0.17204055819E-01  0.22991465690E-01  0.00000000000E+00 0. -1.
     999901    1    3    3    0    0  0.46294218961E-01 -0.69392262312E-01  0.79772306075E-01  0.88753707618E+00  0.88000000000E+00 0. -1.
        -11    1    4    4    0    0 -0.13244784731E-01  0.37415728095E-01 -0.38122224951E-01  0.55035681041E-01  0.51100000000E-03 0.  1.
         11    1    4    4    0    0 -0.25317596649E-01  0.45123649701E-01 -0.58854136943E-01  0.78365777089E-01  0.51100000000E-03 0. -1.
</event>
<event>
 8    1  0.1101883E+005  0.1043930E+01  0.7957747E-01            NaN
         13   -1    0    0    0    0  0.00000000000E+00  0.00000000000E+00  0.74505805969E-08  0.10566000000E+00  0.10566000000E+00 0.  1.
     999900   -1    0    0    0    0 -0.00000000000E+00 -0.00000000000E+00 -0.74505805969E-08  0.93827000000E+00  0.93827000000E+00 0. -1.
     999902    2    1    2    0    0 -0.10160914325E-01  0.19567854732E-01  0.33630231659E-02  0.10216262998E+01  0.10213828084E+01 0.  0.
     999903    2    3    3    0    0 -0.11904046180E+00  0.31979596509E-01  0.47739116956E-01  0.13371974789E+00  0.20214389657E-01 0.  0.
         14    1    1    2    0    0  0.10160914325E-01 -0.19567854732E-01 -0.33630231659E-02  0.22303700221E-01  0.00000000000E+00 0. -1.
     999901    1    3    3    0    0  0.10887954747E+00 -0.12411741777E-01 -0.44376093790E-01  0.88790655189E+00  0.88000000000E+00 0.  1.
        -11    1    4    4    0    0 -0.63423847887E-01  0.71813829596E-02  0.20844476900E-01  0.67148418301E-01  0.51100000000E-03 0.  1.
         11    1    4    4    0    0 -0.55616613911E-01  0.24798213549E-01  0.26894640056E-01  0.66571329587E-01  0.51100000000E-03 0. -1.
</event>
<event>
 8    1  0.1101883E+005  0.1043930E+01  0.7957747E-01            NaN
         13   -1    0    0    0    0  0.00000000000E+00  0.00000000000E+00  0.74505805969E-08  0.10566000000E+00  0.10566000000E+00 0. -1.
     999900   -1    0    0    0    0 -0.00000000000E+00 -0.00000000000E+00 -0.74505805969E-08  0.93827000000E+00  0.93827000000E+00 0. -1.
     999902    2    1    2    0    0  0.11365127872E-01 -0.72796862616E-02  0.19541689111E-01  0.10201805247E+01  0.10199040472E+01 0.  0.
     999903    2    3    3    0    0 -0.32486103279E-01 -0.11762391030E+00  0.46047282835E-01  0.13181048651E+00  0.19050483435E-01 0.  0.
         14    1    1    2    0    0 -0.11365127872E-01  0.72796862616E-02 -0.19541689111E-01  0.23749475298E-01  0.00000000000E+00 0.  1.
     999901    1    3    3    0    0  0.43851231151E-01  0.11034422403E+00 -0.26505593724E-01  0.88837003819E+00  0.88000000000E+00 0.  1.
        -11    1    4    4    0    0 -0.56121786607E-02 -0.52865022181E-01  0.15925116835E-01  0.55498446706E-01  0.51100000000E-03 0.  1.
         11    1    4    4    0    0 -0.26873924618E-01 -0.64758888115E-01  0.30122166000E-01  0.76312039809E-01  0.51100000000E-03 0. -1.
</event>
<event>
 8    1  0.1101883E+005  0.1043930E+01  0.7957747E-01            NaN
         13   -1    0    0    0    0  0.00000000000E+00  0.00000000000E+00  0.74505805969E-08  0.10566000000E+00  0.10566000000E+00 0.  1.
     999900   -1    0    0    0    0 -0.00000000000E+00 -0.00000000000E+00 -0.74505805969E-08  0.93827000000E+00  0.93827000000E+00 0. -1.
     999902    2    1    2    0    0  0.10147196694E-01  0.36799719551E-02  0.19607339793E-01  0.10215479633E+01  0.10213027395E+01 0.  0.
     999903    2    3    3    0    0  0.14911814042E-01 -0.42913605876E-01  0.12352185916E+00  0.13419691075E+00  0.26214907907E-01 0.  0.
         14    1    1    2    0    0 -0.10147196694E-01 -0.36799719551E-02 -0.19607339793E-01  0.22382036728E-01  0.00000000000E+00 0. -1.
     999901    1    3    3    0    0 -0.47646173482E-02  0.46593577831E-01 -0.10391451937E+00  0.88735105252E+00  0.88000000000E+00 0. -1.
        -11    1    4    4    0    0 -0.58639790583E-02 -0.10829447304E-01  0.47924628056E-01  0.49484283107E-01  0.51100000000E-03 0. -1.
         11    1    4    4    0    0  0.20775793100E-01 -0.32084158572E-01  0.75597231107E-01  0.84712627644E-01  0.51100000000E-03 0.  1.
</event>
<event>
 8    1  0.1101883E+005  0.1043930E+01  0.7957747E-01            NaN
         13   -1    0    0    0    0  0.00000000000E+00  0.00000000000E+00  0.74505805969E-08  0.10566000000E+00  0.10566000000E+00 0. -1.
     999900   -1    0    0    0    0 -0.00000000000E+00 -0.00000000000E+00 -0.74505805969E-08  0.93827000000E+00  0.93827000000E+00 0. -1.
     999902    2    1    2    0    0 -0.72693363622E-02  0.71757020689E-02  0.18405819528E-01  0.10228798659E+01  0.10226632447E+01 0.  0.
     999903    2    3    3    0    0  0.80567667927E-01 -0.28099115017E-01 -0.96437570594E-01  0.13038412013E+00  0.20472038972E-01 0.  0.
         14    1    1    2    0    0  0.72693363622E-02 -0.71757020689E-02 -0.18405819528E-01  0.21050134057E-01  0.00000000000E+00 0.  1.
     999901    1    3    3    0    0 -0.87837004289E-01  0.35274817085E-01  0.11484339012E+00  0.89249574581E+00  0.88000000000E+00 0.  1.
        -11    1    4    4    0    0  0.58484730336E-01 -0.12013568846E-01 -0.73589792606E-01  0.94765543399E-01  0.51100000000E-03 0. -1.
         11    1    4    4    0    0  0.22082937591E-01 -0.16085546170E-01 -0.22847777988E-01  0.35618576729E-01  0.51100000000E-03 0.  1.
</event>
<event>
 8    1  0.1101883E+005  0.1043930E+01  0.7957747E-01            NaN
         13   -1    0    0    0    0  0.00000000000E+00  0.00000000000E+00  0.74505805969E-08  0.10566000000E+00  0.10566000000E+00 0.  1.
     999900   -1    0    0    0    0 -0.00000000000E+00 -0.00000000000E+00 -0.74505805969E-08  0.93827000000E+00  0.93827000000E+00 0. -1.
     999902    2    1    2    0    0  0.11182809304E-01 -0.18671882506E-01  0.90780262814E-02  0.10203481218E+01  0.10200755779E+01 0.  0.
     999903    2    3    3    0    0  0.99864616864E-01  0.73596757967E-01  0.36070988468E-01  0.13068156343E+00  0.19675627710E-01 0.  0.
         14    1    1    2    0    0 -0.11182809304E-01  0.18671882506E-01 -0.90780262814E-02  0.23581878242E-01  0.00000000000E+00 0. -1.
     999901    1    3    3    0    0 -0.88681807561E-01 -0.92268640473E-01 -0.26992962187E-01  0.88966655833E+00  0.88000000000E+00 0. -1.
        -11    1    4    4    0    0  0.81571826013E-01  0.66435582407E-01  0.35464845257E-01  0.11102101503E+00  0.51100000000E-03 0.  1.
         11    1    4    4    0    0  0.18292790852E-01  0.71611755594E-02  0.60614321133E-03  0.19660548393E-01  0.51100000000E-03 0. -1.
</event>
<event>
 8    1  0.1101883E+005  0.1043930E+01  0.7957747E-01            NaN
         13   -1    0    0    0    0  0.00000000000E+00  0.00000000000E+00  0.74505805969E-08  0.10566000000E+00  0.10566000000E+00 0.  1.
     999900   -1    0    0    0    0 -0.00000000000E+00 -0.00000000000E+00 -0.74505805969E-08  0.93827000000E+00  0.93827000000E+00 0.  1.
     999902    2    1    2    0    0 -0.83090508159E-02 -0.14340112225E-01 -0.17154310351E-01  0.10200773375E+01  0.10197984237E+01 0.  0.
     999903    2    3    3    0    0 -0.24928123107E-01  0.12454096991E+00 -0.54385426070E-04  0.12886661273E+00  0.21788446706E-01 0.  0.
         14    1    1    2    0    0  0.83090508159E-02  0.14340112225E-01  0.17154310351E-01  0.23852662487E-01  0.00000000000E+00 0.  1.
     999901    1    3    3    0    0  0.16619072291E-01 -0.13888108214E+00 -0.17099924925E-01  0.89121072479E+00  0.88000000000E+00 0. -1.
        -11    1    4    4    0    0  0.35342578382E-02  0.91833726748E-02  0.18886362343E-02  0.10032615809E-01  0.51100000000E-03 0.  1.
         11    1    4    4    0    0 -0.28462380945E-01  0.11535759724E+00 -0.19430216604E-02  0.11883399692E+00  0.51100000000E-03 0. -1.
</event>
<event>
 8    1  0.1101883E+005  0.1043930E+01  0.7957747E-01            NaN
         13   -1    0    0    0    0  0.00000000000E+00  0.00000000000E+00  0.74505805969E-08  0.10566000000E+00  0.10566000000E+00 0.  1.
     999900   -1    0    0    0    0 -0.00000000000E+00 -0.00000000000E+00 -0.74505805969E-08  0.93827000000E+00  0.93827000000E+00 0. -1.
     999902    2    1    2    0    0  0.19144334317E-01 -0.95030987869E-02  0.99263021959E-02  0.10203642219E+01  0.10200920544E+01 0.  0.
     999903    2    3    3    0    0 -0.59302209974E-01 -0.55685673309E-01 -0.97944333785E-01  0.12911635254E+00  0.21454455321E-01 0.  0.
         14    1    1    2    0    0 -0.19144334317E-01  0.95030987869E-02 -0.99263021959E-02  0.23565778117E-01  0.00000000000E+00 0. -1.
     999901    1    3    3    0    0  0.78446544291E-01  0.46182574522E-01  0.10787063598E+00  0.89124786934E+00  0.88000000000E+00 0.  1.
        -11    1    4    4    0    0 -0.38679976864E-01 -0.24196287959E-01 -0.44414238546E-01  0.63674851140E-01  0.51100000000E-03 0.  1.
         11    1    4    4    0    0 -0.20622233110E-01 -0.31489385350E-01 -0.53530095239E-01  0.65441501400E-01  0.51100000000E-03 0. -1.
</event>
<event>
 8    1  0.1101883E+005  0.1043930E+01  0.7957747E-01            NaN
         13   -1    0    0    0    0  0.00000000000E+00  0.00000000000E+00  0.74505805969E-08  0.10566000000E+00  0.10566000000E+00 0.  1.
     999900   -1    0    0    0    0 -0.00000000000E+00 -0.00000000000E+00 -0.74505805969E-08  0.93827000000E+00  0.93827000000E+00 0. -1.
     999902    2    1    2    0    0  0.26368801435E-01  0.92426943242E-02  0.11969148312E-01  0.10135326054E+01  0.10130766706E+01 0.  0.
     999903    2    3    3    0    0 -0.26197659771E-01 -0.86637451670E-01 -0.79494531741E-01  0.12206087841E+00  0.19675163348E-01 0.  0.
         14    1    1    2    0    0 -0.26368801435E-01 -0.92426943242E-02 -0.11969148312E-01  0.30397394606E-01  0.00000000000E+00 0. -1.
     999901    1    3    3    0    0  0.52566461206E-01  0.95880145994E-01  0.91463680052E-01  0.89147172698E+00  0.88000000000E+00 0.  1.
        -11    1    4    4    0    0 -0.17412649938E-01 -0.68844940163E-01 -0.71158921535E-01  0.10053198197E+00  0.51100000000E-03 0. -1.
         11    1    4    4    0    0 -0.87850098329E-02 -0.17792511507E-01 -0.83356102054E-02  0.21528896442E-01  0.51100000000E-03 0.  1.
</event>
<event>
 8    1  0.1101883E+005  0.1043930E+01  0.7957747E-01            NaN
         13   -1    0    0    0    0  0.00000000000E+00  0.00000000000E+00  0.74505805969E-08  0.10566000000E+00  0.10566000000E+00 0.  1.
     999900   -1    0    0    0    0 -0.00000000000E+00 -0.00000000000E+00 -0.74505805969E-08  0.93827000000E+00  0.93827000000E+00 0. -1.
     999902    2    1    2    0    0 -0.17271639254E-01  0.92992750113E-02 -0.13530052115E-01  0.10201004312E+01  0.10198220636E+01 0.  0.
     999903    2    3    3    0    0  0.12101582886E+00  0.16299004171E-01 -0.36178078173E-01  0.12898576231E+00  0.20444685532E-01 0.  0.
         14    1    1    2    0    0  0.17271639254E-01 -0.92992750113E-02  0.13530052115E-01  0.23829568785E-01  0.00000000000E+00 0.  1.
     999901    1    3    3    0    0 -0.13828746812E+00 -0.69997291592E-02  0.22648026058E-01  0.89111466890E+00  0.88000000000E+00 0.  1.
        -11    1    4    4    0    0  0.74357369766E-01  0.49607799178E-02 -0.12940418026E-01  0.75639561841E-01  0.51100000000E-03 0.  1.
         11    1    4    4    0    0  0.46658459099E-01  0.11338224253E-01 -0.23237660147E-01  0.53346200472E-01  0.51100000000E-03 0. -1.
</event>
<event>
 8    1  0.1101883E+005  0.1043930E+01  0.7957747E-01            NaN
         13   -1    0    0    0    0  0.00000000000E+00  0.00000000000E+00  0.74505805969E-08  0.10566000000E+00  0.10566000000E+00 0. -1.
     999900   -1    0    0    0    0 -0.00000000000E+00 -0.00000000000E+00 -0.74505805969E-08  0.93827000000E+00  0.93827000000E+00 0.  1.
     999902    2    1    2    0    0  0.22333166763E-01  0.17813765982E-02 -0.90163946156E-02  0.10197796581E+01  0.10194936548E+01 0.  0.
     999903    2    3    3    0    0 -0.60570634858E-01  0.10337450006E+00  0.42241711599E-01  0.12858854703E+00  0.19888769664E-01 0.  0.
         14    1    1    2    0    0 -0.22333166763E-01 -0.17813765982E-02  0.90163946156E-02  0.24150341863E-01  0.00000000000E+00 0. -1.
     999901    1    3    3    0    0  0.82903801622E-01 -0.10159312346E+00 -0.51258106215E-01  0.89119111110E+00  0.88000000000E+00 0.  1.
        -11    1    4    4    0    0 -0.12221207857E-01  0.83245756720E-02  0.58088238323E-02  0.15895283480E-01  0.51100000000E-03 0.  1.
         11    1    4    4    0    0 -0.48349427002E-01  0.95049924390E-01  0.36432887767E-01  0.11269326355E+00  0.51100000000E-03 0. -1.
</event>
<event>
 8    1  0.1101883E+005  0.1043930E+01  0.7957747E-01            NaN
         13   -1    0    0    0    0  0.00000000000E+00  0.00000000000E+00  0.74505805969E-08  0.10566000000E+00  0.10566000000E+00 0. -1.
     999900   -1    0    0    0    0 -0.00000000000E+00 -0.00000000000E+00 -0.74505805969E-08  0.93827000000E+00  0.93827000000E+00 0.  1.
     999902    2    1    2    0    0  0.63145362429E-02 -0.13166449306E-01  0.20458849945E-01  0.10187945013E+01  0.10184843850E+01 0.  0.
     999903    2    3    3    0    0  0.11025730103E+00 -0.66629998420E-01 -0.77907604646E-02  0.13061631536E+00  0.20092206721E-01 0.  0.
         14    1    1    2    0    0 -0.63145362429E-02  0.13166449306E-01 -0.20458849945E-01  0.25135498729E-01  0.00000000000E+00 0.  1.
     999901    1    3    3    0    0 -0.10394276478E+00  0.53463549114E-01  0.28249610410E-01  0.88817818591E+00  0.88000000000E+00 0. -1.
        -11    1    4    4    0    0  0.92484138247E-01 -0.47265965299E-01 -0.93331225453E-02  0.10428209626E+00  0.51100000000E-03 0. -1.
         11    1    4    4    0    0  0.17773162780E-01 -0.19364033121E-01  0.15423620807E-02  0.26334219102E-01  0.51100000000E-03 0.  1.
</event>
<event>
 8    1  0.1101883E+005  0.1043930E+01  0.7957747E-01            NaN
         13   -1    0    0    0    0  0.00000000000E+00  0.00000000000E+00  0.74505805969E-08  0.10566000000E+00  0.10566000000E+00 0. -1.
     999900   -1    0    0    0    0 -0.00000000000E+00 -0.00000000000E+00 -0.74505805969E-08  0.93827000000E+00  0.93827000000E+00 0. -1.
     999902    2    1    2    0    0  0.67265503798E-02  0.19736937768E-01 -0.92826110789E-02  0.10211054505E+01  0.10208503225E+01 0.  0.
     999903    2    3    3    0    0  0.27699982882E-01 -0.28055656702E-01  0.12209173461E+00  0.12982365684E+00  0.19833842056E-01 0.  0.
         14    1    1    2    0    0 -0.67265503798E-02 -0.19736937768E-01  0.92826110789E-02  0.22824549523E-01  0.00000000000E+00 0. -1.
     999901    1    3    3    0    0 -0.20973432502E-01  0.47792594470E-01 -0.13137434569E+00  0.89128179363E+00  0.88000000000E+00 0. -1.
        -11    1    4    4    0    0  0.13267508682E-01 -0.19844506903E-01  0.44786372656E-01  0.50753438677E-01  0.51100000000E-03 0.  1.
         11    1    4    4    0    0  0.14432474199E-01 -0.82111497989E-02  0.77305361957E-01  0.79070218166E-01  0.51100000000E-03 0. -1.
</event>
<event>
 8    1  0.1101883E+005  0.1043930E+01  0.7957747E-01            NaN
         13   -1    0    0    0    0  0.00000000000E+00  0.00000000000E+00  0.74505805969E-08  0.10566000000E+00  0.10566000000E+00 0.  1.
     999900   -1    0    0    0    0 -0.00000000000E+00 -0.00000000000E+00 -0.74505805969E-08  0.93827000000E+00  0.93827000000E+00 0. -1.
     999902    2    1    2    0    0  0.22975732006E-01  0.46219713029E-02  0.14647276403E-02  0.10204482559E+01  0.10201780485E+01 0.  0.
     999903    2    3    3    0    0 -0.55439750143E-01  0.52011785500E-01  0.10355208771E+00  0.12982116702E+00  0.18753901163E-01 0.  0.
         14    1    1    2    0    0 -0.22975732006E-01 -0.46219713029E-02 -0.14647276403E-02  0.23481744121E-01  0.00000000000E+00 0. -1.
     999901    1    3    3    0    0  0.78415482149E-01 -0.47389814197E-01 -0.10208736007E+00  0.89062708886E+00  0.88000000000E+00 0. -1.
        -11    1    4    4    0    0 -0.38658782925E-01  0.37764993059E-01  0.86394801144E-01  0.10190691333E+00  0.51100000000E-03 0. -1.
         11    1    4    4    0    0 -0.16780967218E-01  0.14246792442E-01  0.17157286569E-01  0.27914253689E-01  0.51100000000E-03 0.  1.
</event>
<event>
 8    1  0.1117976E+005  0.1043930E+01  0.7957747E-01            NaN
         13   -1    0    0    0    0  0.00000000000E+00  0.00000000000E+00  0.74505805969E-08  0.10566000000E+00  0.10566000000E+00 0. -1.
     999900   -1    0    0    0    0 -0.00000000000E+00 -0.00000000000E+00 -0.74505805969E-08  0.93827000000E+00  0.93827000000E+00 0. -1.
     999902    2    1    2    0    0 -0.49222852331E-02  0.17642300239E-01  0.15101411900E-01  0.10201911649E+01  0.10199149380E+01 0.  0.
     999903    2    3    3    0    0 -0.10098147742E+00 -0.40314137736E-02 -0.78869651702E-01  0.12972629808E+00  0.19874087995E-01 0.  0.
         14    1    1    2    0    0  0.49222852331E-02 -0.17642300239E-01 -0.15101411900E-01  0.23738835082E-01  0.00000000000E+00 0.  1.
     999901    1    3    3    0    0  0.96059192190E-01  0.21673714013E-01  0.93971063603E-01  0.89046486684E+00  0.88000000000E+00 0.  1.
        -11    1    4    4    0    0 -0.44594764847E-01 -0.17453066877E-02 -0.22583710185E-01  0.50020238243E-01  0.51100000000E-03 0.  1.
         11    1    4    4    0    0 -0.56386712576E-01 -0.22861070858E-02 -0.56285941518E-01  0.79706059834E-01  0.51100000000E-03 0. -1.
</event>
<event>
 8    1  0.1101883E+005  0.1043930E+01  0.7957747E-01            NaN
         13   -1    0    0    0    0  0.00000000000E+00  0.00000000000E+00  0.74505805969E-08  0.10566000000E+00  0.10566000000E+00 0.  1.
     999900   -1    0    0    0    0 -0.00000000000E+00 -0.00000000000E+00 -0.74505805969E-08  0.93827000000E+00  0.93827000000E+00 0. -1.
     999902    2    1    2    0    0 -0.60592353208E-03  0.15461086202E-01  0.17950666775E-01  0.10202310809E+01  0.10199557930E+01 0.  0.
     999903    2    3    3    0    0 -0.11981320719E-01  0.14357883489E-01  0.13002267152E+00  0.13304972909E+00  0.21133727476E-01 0.  0.
         14    1    1    2    0    0  0.60592353208E-03 -0.15461086202E-01 -0.17950666775E-01  0.23698919121E-01  0.00000000000E+00 0. -1.
     999901    1    3    3    0    0  0.11375397187E-01  0.11032027126E-02 -0.11207200474E+00  0.88718135179E+00  0.88000000000E+00 0. -1.
        -11    1    4    4    0    0 -0.10406416862E-01  0.18808582452E-01  0.81266261570E-01  0.84062611643E-01  0.51100000000E-03 0. -1.
         11    1    4    4    0    0 -0.15749038569E-02 -0.44506989629E-02  0.48756409949E-01  0.48987117445E-01  0.51100000000E-03 0.  1.
</event>
<event>
 8    1  0.1101883E+005  0.1043930E+01  0.7957747E-01            NaN
         13   -1    0    0    0    0  0.00000000000E+00  0.00000000000E+00  0.74505805969E-08  0.10566000000E+00  0.10566000000E+00 0.  1.
     999900   -1    0    0    0    0 -0.00000000000E+00 -0.00000000000E+00 -0.74505805969E-08  0.93827000000E+00  0.93827000000E+00 0.  1.
     999902    2    1    2    0    0 -0.16966486008E-02  0.13818719353E-01  0.18964568117E-01  0.10204036219E+01  0.10201323743E+01 0.  0.
     999903    2    3    3    0    0  0.95070734299E-01 -0.67504608754E-01 -0.51985681870E-01  0.12854525422E+00  0.15035110239E-01 0.  0.
         14    1    1    2    0    0  0.16966486008E-02 -0.13818719353E-01 -0.18964568117E-01  0.23526378066E-01  0.00000000000E+00 0.  1.
     999901    1    3    3    0    0 -0.96767382900E-01  0.81323328107E-01  0.70950249987E-01  0.89185836771E+00  0.88000000000E+00 0. -1.
        -11    1    4    4    0    0  0.37837891728E-01 -0.35914790824E-01 -0.24221023818E-01  0.57519538994E-01  0.51100000000E-03 0.  1.
         11    1    4    4    0    0  0.57232842571E-01 -0.31589817930E-01 -0.27764658053E-01  0.71025715226E-01  0.51100000000E-03 0. -1.
</event>
<event>
 8    1  0.1101883E+005  0.1043930E+01  0.7957747E-01            NaN
         13   -1    0    0    0    0  0.00000000000E+00  0.00000000000E+00  0.74505805969E-08  0.10566000000E+00  0.10566000000E+00 0.  1.
     999900   -1    0    0    0    0 -0.00000000000E+00 -0.00000000000E+00 -0.74505805969E-08  0.93827000000E+00  0.93827000000E+00 0. -1.
     999902    2    1    2    0    0 -0.16043222350E-01 -0.24421403575E-01  0.60910161419E-02  0.10140822126E+01  0.10136428579E+01 0.  0.
     999903    2    3    3    0    0 -0.10146848231E+00  0.64255814682E-01  0.29141517118E-01  0.12521076537E+00  0.20095898139E-01 0.  0.
         14    1    1    2    0    0  0.16043222350E-01  0.24421403575E-01 -0.60910161419E-02  0.29847787415E-01  0.00000000000E+00 0. -1.
     999901    1    3    3    0    0  0.85425259960E-01 -0.88677218257E-01 -0.23050500976E-01  0.88887144721E+00  0.88000000000E+00 0. -1.
        -11    1    4    4    0    0 -0.26929878263E-01  0.16000410496E-01  0.16834367681E-01  0.35565271481E-01  0.51100000000E-03 0. -1.
         11    1    4    4    0    0 -0.74538604048E-01  0.48255404185E-01  0.12307149436E-01  0.89645493890E-01  0.51100000000E-03 0.  1.
</event>
<event>
 8    1  0.1101883E+005  0.1043930E+01  0.7957747E-01            NaN
         13   -1    0    0    0    0  0.00000000000E+00  0.00000000000E+00  0.74505805969E-08  0.10566000000E+00  0.10566000000E+00 0.  1.
     999900   -1    0    0    0    0 -0.00000000000E+00 -0.00000000000E+00 -0.74505805969E-08  0.93827000000E+00  0.93827000000E+00 0. -1.
     999902    2    1    2    0    0  0.63273085492E-02  0.18177820141E-01 -0.72157224761E-02  0.10233743529E+01  0.10231678902E+01 0.  0.
     999903    2    3    3    0    0 -0.79967860347E-01  0.84431626054E-01 -0.64612563958E-01  0.13481888448E+00  0.21858408558E-01 0.  0.
         14    1    1    2    0    0 -0.63273085492E-02 -0.18177820141E-01  0.72157224761E-02  0.20555647142E-01  0.00000000000E+00 0. -1.
     999901    1    3    3    0    0  0.86295168896E-01 -0.66253805913E-01  0.57396841482E-01  0.88855546838E+00  0.88000000000E+00 0.  1.
        -11    1    4    4    0    0 -0.17286700371E-01  0.93560166415E-02 -0.17222307096E-01  0.26138745950E-01  0.51100000000E-03 0.  1.
         11    1    4    4    0    0 -0.62681159976E-01  0.75075609412E-01 -0.47390256863E-01  0.10868013853E+00  0.51100000000E-03 0. -1.
</event>
<event>
 8    1  0.1101883E+005  0.1043930E+01  0.7957747E-01            NaN
         13   -1    0    0    0    0  0.00000000000E+00  0.00000000000E+00  0.74505805969E-08  0.10566000000E+00  0.10566000000E+00 0. -1.
     999900   -1    0    0    0    0 -0.00000000000E+00 -0.00000000000E+00 -0.74505805969E-08  0.93827000000E+00  0.93827000000E+00 0.  1.
     999902    2    1    2    0    0  0.18419371573E-01  0.39412212184E-02  0.14673303381E-01  0.10200529754E+01  0.10197734848E+01 0.  0.
     999903    2    3    3    0    0  0.23699748328E-01  0.11286463620E+00  0.60947065119E-01  0.13211522205E+00  0.20971003247E-01 0.  0.
         14    1    1    2    0    0 -0.18419371573E-01 -0.39412212184E-02 -0.14673303381E-01  0.23877024646E-01  0.00000000000E+00 0.  1.
     999901    1    3    3    0    0 -0.52803767548E-02 -0.10892341498E+00 -0.46273761738E-01  0.88793775330E+00  0.88000000000E+00 0.  1.
        -11    1    4    4    0    0  0.27075698687E-01  0.86707144252E-01  0.47330927668E-01  0.10242900057E+00  0.51100000000E-03 0.  1.
         11    1    4    4    0    0 -0.33759503594E-02  0.26157491944E-01  0.13616137451E-01  0.29686221480E-01  0.51100000000E-03 0. -1.
</event>
<event>
 8    1  0.1101883E+005  0.1043930E+01  0.7957747E-01            NaN
         13   -1    0    0    0    0  0.00000000000E+00  0.00000000000E+00  0.74505805969E-08  0.10566000000E+00  0.10566000000E+00 0.  1.
     999900   -1    0    0    0    0 -0.00000000000E+00 -0.00000000000E+00 -0.74505805969E-08  0.93827000000E+00  0.93827000000E+00 0. -1.
     999902    2    1    2    0    0  0.47781542376E-02  0.90446932921E-02  0.19451933696E-01  0.10219523987E+01  0.10217160517E+01 0.  0.
     999903    2    3    3    0    0 -0.12197736929E+00 -0.40494949952E-01  0.17996045998E-01  0.13149001397E+00  0.21152931547E-01 0.  0.
         14    1    1    2    0    0 -0.47781542376E-02 -0.90446932921E-02 -0.19451933696E-01  0.21977601307E-01  0.00000000000E+00 0. -1.
     999901    1    3    3    0    0  0.12675552352E+00  0.49539643244E-01  0.14558876984E-02  0.89046238472E+00  0.88000000000E+00 0. -1.
        -11    1    4    4    0    0 -0.60621763025E-01 -0.26165510711E-01  0.25022739121E-03  0.66029961667E-01  0.51100000000E-03 0.  1.
         11    1    4    4    0    0 -0.61355606261E-01 -0.14329439241E-01  0.17745818607E-01  0.65460052304E-01  0.51100000000E-03 0. -1.
</event>
<event>
 8    1  0.1101883E+005  0.1043930E+01  0.7957747E-01            NaN
         13   -1    0    0    0    0  0.00000000000E+00  0.00000000000E+00  0.74505805969E-08  0.10566000000E+00  0.10566000000E+00 0.  1.
     999900   -1    0    0    0    0 -0.00000000000E+00 -0.00000000000E+00 -0.74505805969E-08  0.93827000000E+00  0.93827000000E+00 0. -1.
     999902    2    1    2    0    0  0.13511226934E-01  0.38343194845E-02 -0.19042606063E-01  0.10202682988E+01  0.10199938850E+01 0.  0.
     999903    2    3    3    0    0  0.12198574850E+00 -0.92821555186E-02 -0.48429731950E-01  0.13302404440E+00  0.19577441192E-01 0.  0.
         14    1    1    2    0    0 -0.13511226934E-01 -0.38343194845E-02  0.19042606063E-01  0.23661701224E-01  0.00000000000E+00 0.  1.
     999901    1    3    3    0    0 -0.10847452157E+00  0.13116475003E-01  0.29387125887E-01  0.88724425437E+00  0.88000000000E+00 0.  1.
        -11    1    4    4    0    0  0.10829018677E+00 -0.14397896721E-01 -0.43510476622E-01  0.11759033412E+00  0.51100000000E-03 0.  1.
         11    1    4    4    0    0  0.13695561732E-01  0.51157412024E-02 -0.49192553282E-02  0.15433710285E-01  0.51100000000E-03 0. -1.
</event>
<event>
 8    1  0.1101883E+005  0.1043930E+01  0.7957747E-01            NaN
         13   -1    0    0    0    0  0.00000000000E+00  0.00000000000E+00  0.74505805969E-08  0.10566000000E+00  0.10566000000E+00 0.  1.
     999900   -1    0    0    0    0 -0.00000000000E+00 -0.00000000000E+00 -0.74505805969E-08  0.93827000000E+00  0.93827000000E+00 0. -1.
     999902    2    1    2    0    0  0.11145675046E-01 -0.19362479574E-01 -0.92757101789E-03  0.10215694974E+01  0.10213247505E+01 0.  0.
     999903    2    3    3    0    0  0.24857411686E-01 -0.12882726398E+00 -0.21820284368E-01  0.13443531579E+00  0.19554397521E-01 0.  0.
         14    1    1    2    0    0 -0.11145675046E-01  0.19362479574E-01  0.92757101789E-03  0.22360502576E-01  0.00000000000E+00 0. -1.
     999901    1    3    3    0    0 -0.13711736641E-01  0.10946478441E+00  0.20892713350E-01  0.88713418163E+00  0.88000000000E+00 0.  1.
        -11    1    4    4    0    0  0.24792184836E-01 -0.92789800438E-01 -0.21353136443E-01  0.98391143154E-01  0.51100000000E-03 0. -1.
         11    1    4    4    0    0  0.65226849980E-04 -0.36037463541E-01 -0.46714792504E-03  0.36044172639E-01  0.51100000000E-03 0.  1.
</event>
<event>
 8    1  0.1101883E+005  0.1043930E+01  0.7957747E-01            NaN
         13   -1    0    0    0    0  0.00000000000E+00  0.00000000000E+00  0.74505805969E-08  0.10566000000E+00  0.10566000000E+00 0. -1.
     999900   -1    0    0    0    0 -0.00000000000E+00 -0.00000000000E+00 -0.74505805969E-08  0.93827000000E+00  0.93827000000E+00 0. -1.
     999902    2    1    2    0    0 -0.28535881873E-01  0.62898936717E-02 -0.16399804964E-01  0.10104215993E+01  0.10098658304E+01 0.  0.
     999903    2    3    3    0    0  0.65463546208E-01  0.56337836890E-01 -0.82937953302E-01  0.12150764714E+00  0.20639197389E-01 0.  0.
         14    1    1    2    0    0  0.28535881873E-01 -0.62898936717E-02  0.16399804964E-01  0.33508400730E-01  0.00000000000E+00 0. -1.
     999901    1    3    3    0    0 -0.93999428081E-01 -0.50047943219E-01  0.66538148338E-01  0.88891395213E+00  0.88000000000E+00 0.  1.
        -11    1    4    4    0    0  0.47126434261E-01  0.50878884373E-01 -0.60669712296E-01  0.92144651458E-01  0.51100000000E-03 0.  1.
         11    1    4    4    0    0  0.18337111947E-01  0.54589525171E-02 -0.22268241006E-01  0.29362995686E-01  0.51100000000E-03 0. -1.
</event>
<event>
 8    1  0.1101883E+005  0.1043930E+01  0.7957747E-01            NaN
         13   -1    0    0    0    0  0.00000000000E+00  0.00000000000E+00  0.74505805969E-08  0.10566000000E+00  0.10566000000E+00 0.  1.
     999900   -1    0    0    0    0 -0.00000000000E+00 -0.00000000000E+00 -0.74505805969E-08  0.93827000000E+00  0.93827000000E+00 0. -1.
     999902    2    1    2    0    0  0.51044474348E-02  0.69082593426E-02  0.21259178638E-01  0.10210011512E+01  0.10207436596E+01 0.  0.
     999903    2    3    3    0    0 -0.26070833109E-01 -0.11869240214E+00  0.45229116794E-01  0.13121354609E+00  0.20093456830E-01 0.  0.
         14    1    1    2    0    0 -0.51044474348E-02 -0.69082593426E-02 -0.21259178638E-01  0.22928848796E-01  0.00000000000E+00 0. -1.
     999901    1    3    3    0    0  0.31175280544E-01  0.12560066148E+00 -0.23969938156E-01  0.88978760511E+00  0.88000000000E+00 0. -1.
        -11    1    4    4    0    0 -0.99962855201E-02 -0.44652758785E-01  0.68150222508E-02  0.46265540531E-01  0.51100000000E-03 0.  1.
         11    1    4    4    0    0 -0.16074547589E-01 -0.74039643351E-01  0.38414094543E-01  0.84948005558E-01  0.51100000000E-03 0. -1.
</event>
<event>
 8    1  0.1101883E+005  0.1043930E+01  0.7957747E-01            NaN
         13   -1    0    0    0    0  0.00000000000E+00  0.00000000000E+00  0.74505805969E-08  0.10566000000E+00  0.10566000000E+00 0. -1.
     999900   -1    0    0    0    0 -0.00000000000E+00 -0.00000000000E+00 -0.74505805969E-08  0.93827000000E+00  0.93827000000E+00 0. -1.
     999902    2    1    2    0    0 -0.83607654504E-02 -0.10346225847E-01 -0.19284629102E-01  0.10205025864E+01  0.10202336424E+01 0.  0.
     999903    2    3    3    0    0  0.10448560540E+00 -0.73282308873E-01  0.17054837336E-01  0.13032518230E+00  0.20155573291E-01 0.  0.
         14    1    1    2    0    0  0.83607654504E-02  0.10346225847E-01  0.19284629102E-01  0.23427413596E-01  0.00000000000E+00 0. -1.
     999901    1    3    3    0    0 -0.11284637085E+00  0.62936083026E-01 -0.36339466438E-01  0.89017740411E+00  0.88000000000E+00 0.  1.
        -11    1    4    4    0    0  0.41176987918E-01 -0.20754526272E-01 -0.90402688858E-03  0.46123454775E-01  0.51100000000E-03 0. -1.
         11    1    4    4    0    0  0.63308617482E-01 -0.52527782601E-01  0.17958864225E-01  0.84201727522E-01  0.51100000000E-03 0.  1.
</event>
<event>
 8    1  0.1101883E+005  0.1043930E+01  0.7957747E-01            NaN
         13   -1    0    0    0    0  0.00000000000E+00  0.00000000000E+00  0.74505805969E-08  0.10566000000E+00  0.10566000000E+00 0.  1.
     999900   -1    0    0    0    0 -0.00000000000E+00 -0.00000000000E+00 -0.74505805969E-08  0.93827000000E+00  0.93827000000E+00 0. -1.
     999902    2    1    2    0    0  0.13145343702E-01 -0.19726039916E-01  0.24345454316E-01  0.10099503317E+01  0.10093785487E+01 0.  0.
     999903    2    3    3    0    0 -0.11457862942E+00  0.21501523725E-01 -0.12889490123E-01  0.11899603074E+00  0.20083289932E-01 0.  0.
         14    1    1    2    0    0 -0.13145343702E-01  0.19726039916E-01 -0.24345454316E-01  0.33979668298E-01  0.00000000000E+00 0. -1.
     999901    1    3    3    0    0  0.12772397312E+00 -0.41227563641E-01  0.37234944439E-01  0.89095430096E+00  0.88000000000E+00 0.  1.
        -11    1    4    4    0    0 -0.25808865446E-01  0.12932235363E-01 -0.64233593840E-02  0.29578047838E-01  0.51100000000E-03 0. -1.
         11    1    4    4    0    0 -0.88769763972E-01  0.85692883622E-02 -0.64661307391E-02  0.89417982903E-01  0.51100000000E-03 0.  1.
</event>
<event>
 8    1  0.1101883E+005  0.1043930E+01  0.7957747E-01            NaN
         13   -1    0    0    0    0  0.00000000000E+00  0.00000000000E+00  0.74505805969E-08  0.10566000000E+00  0.10566000000E+00 0.  1.
     999900   -1    0    0    0    0 -0.00000000000E+00 -0.00000000000E+00 -0.74505805969E-08  0.93827000000E+00  0.93827000000E+00 0. -1.
     999902    2    1    2    0    0 -0.21229337875E-01 -0.65708847756E-02 -0.49469966863E-02  0.10211630483E+01  0.10209092208E+01 0.  0.
     999903    2    3    3    0    0 -0.82841692421E-01 -0.86428840937E-01  0.55092640242E-01  0.13336907817E+00  0.20479781625E-01 0.  0.
         14    1    1    2    0    0  0.21229337875E-01  0.65708847756E-02  0.49469966863E-02  0.22766951697E-01  0.00000000000E+00 0. -1.
     999901    1    3    3    0    0  0.61612354546E-01  0.79857956161E-01 -0.60039636929E-01  0.88779397013E+00  0.88000000000E+00 0.  1.
        -11    1    4    4    0    0 -0.65432273903E-01 -0.64464315692E-01  0.50931325670E-01  0.10502995535E+00  0.51100000000E-03 0.  1.
         11    1    4    4    0    0 -0.17409418517E-01 -0.21964525245E-01  0.41613145720E-02  0.28339122822E-01  0.51100000000E-03 0. -1.
</event>
<event>
 8    1  0.1101883E+005  0.1043930E+01  0.7957747E-01            NaN
         13   -1    0    0    0    0  0.00000000000E+00  0.00000000000E+00  0.74505805969E-08  0.10566000000E+00  0.10566000000E+00 0. -1.
     999900   -1    0    0    0    0 -0.00000000000E+00 -0.00000000000E+00 -0.74505805969E-08  0.93827000000E+00  0.93827000000E+00 0.  1.
     999902    2    1    2    0    0 -0.24429353965E-01  0.67582479002E-03 -0.68356299767E-02  0.10185533195E+01  0.10182371476E+01 0.  0.
     999903    2    3    3    0    0 -0.32593553469E-01 -0.67319700922E-01  0.10318434879E+00  0.12906220581E+00  0.20390224934E-01 0.  0.
         14    1    1    2    0    0  0.24429353965E-01 -0.67582479002E-03  0.68356299767E-02  0.25376680466E-01  0.00000000000E+00 0. -1.
     999901    1    3    3    0    0  0.81641995041E-02  0.67995525712E-01 -0.11001997877E+00  0.88949111373E+00  0.88000000000E+00 0.  1.
        -11    1    4    4    0    0  0.68570704307E-03 -0.11980892381E-01  0.24382390234E-01  0.27180398284E-01  0.51100000000E-03 0.  1.
         11    1    4    4    0    0 -0.33279260512E-01 -0.55338808541E-01  0.78801958555E-01  0.10188180752E+00  0.51100000000E-03 0. -1.
</event>
<event>
 8    1  0.1101883E+005  0.1043930E+01  0.7957747E-01            NaN
         13   -1    0    0    0    0  0.00000000000E+00  0.00000000000E+00  0.74505805969E-08  0.10566000000E+00  0.10566000000E+00 0. -1.
     999900   -1    0    0    0    0 -0.00000000000E+00 -0.00000000000E+00 -0.74505805969E-08  0.93827000000E+00  0.93827000000E+00 0. -1.
     999902    2    1    2    0    0 -0.54698957123E-02  0.11294281156E-01 -0.19743312901E-01  0.10205360061E+01  0.10202678378E+01 0.  0.
     999903    2    3    3    0    0 -0.50667718701E-01  0.10763914352E+00  0.51720162696E-01  0.13124853625E+00  0.19944926728E-01 0.  0.
         14    1    1    2    0    0  0.54698957123E-02 -0.11294281156E-01  0.19743312901E-01  0.23393993893E-01  0.00000000000E+00 0. -1.
     999901    1    3    3    0    0  0.45197822989E-01 -0.96344862361E-01 -0.71463475598E-01  0.88928746986E+00  0.88000000000E+00 0. -1.
        -11    1    4    4    0    0 -0.46275993273E-01  0.10579758470E+00  0.47497695565E-01  0.12486348019E+00  0.51100000000E-03 0.  1.
         11    1    4    4    0    0 -0.43917254280E-02  0.18415588198E-02  0.42224671318E-02  0.63850560531E-02  0.51100000000E-03 0. -1.
</event>
<event>
 8    1  0.1101883E+005  0.1043930E+01  0.7957747E-01            NaN
         13   -1    0    0    0    0  0.00000000000E+00  0.00000000000E+00  0.74505805969E-08  0.10566000000E+00  0.10566000000E+00 0. -1.
     999900   -1    0    0    0    0 -0.00000000000E+00 -0.00000000000E+00 -0.74505805969E-08  0.93827000000E+00  0.93827000000E+00 0.  1.
     999902    2    1    2    0    0 -0.15771715734E-01 -0.16871193421E-01  0.50931465195E-02  0.10202799614E+01  0.10200058212E+01 0.  0.
     999903    2    3    3    0    0 -0.22514263270E-01  0.12208596733E+00 -0.92583951300E-02  0.12923533781E+00  0.34701285102E-01 0.  0.
         14    1    1    2    0    0  0.15771715734E-01  0.16871193421E-01 -0.50931465195E-02  0.23650038607E-01  0.00000000000E+00 0.  1.
     999901    1    3    3    0    0  0.67425475354E-02 -0.13895716075E+00  0.14351541650E-01  0.89104462359E+00  0.88000000000E+00 0.  1.
        -11    1    4    4    0    0 -0.12479472968E-01  0.15291609651E-01 -0.96328479721E-02  0.21968692550E-01  0.51100000000E-03 0.  1.
         11    1    4    4    0    0 -0.10034790302E-01  0.10679435768E+00  0.37445284210E-03  0.10726664526E+00  0.51100000000E-03 0. -1.
</event>
<event>
 8    1  0.1101883E+005  0.1043930E+01  0.7957747E-01            NaN
         13   -1    0    0    0    0  0.00000000000E+00  0.00000000000E+00  0.74505805969E-08  0.10566000000E+00  0.10566000000E+00 0. -1.
     999900   -1    0    0    0    0 -0.00000000000E+00 -0.00000000000E+00 -0.74505805969E-08  0.93827000000E+00  0.93827000000E+00 0.  1.
     999902    2    1    2    0    0  0.11200243151E-01  0.11568372579E-02  0.21280029198E-01  0.10198546316E+01  0.10195704224E+01 0.  0.
     999903    2    3    3    0    0  0.26097723336E-01  0.11914224918E-01 -0.12325512141E+00  0.12787477421E+00  0.18360092756E-01 0.  0.
         14    1    1    2    0    0 -0.11200243151E-01 -0.11568372579E-02 -0.21280029198E-01  0.24075368362E-01  0.00000000000E+00 0.  1.
     999901    1    3    3    0    0 -0.14897480185E-01 -0.10757387660E-01  0.14453515061E+00  0.89197985743E+00  0.88000000000E+00 0. -1.
        -11    1    4    4    0    0  0.25336175962E-01  0.51614786495E-02 -0.79731055877E-01  0.83820433467E-01  0.51100000000E-03 0. -1.
         11    1    4    4    0    0  0.76154737341E-03  0.67527462681E-02 -0.43524065531E-01  0.44054340739E-01  0.51100000000E-03 0.  1.
</event>
<event>
 8    1  0.1101883E+005  0.1043930E+01  0.7957747E-01            NaN
         13   -1    0    0    0    0  0.00000000000E+00  0.00000000000E+00  0.74505805969E-08  0.10566000000E+00  0.10566000000E+00 0. -1.
     999900   -1    0    0    0    0 -0.00000000000E+00 -0.00000000000E+00 -0.74505805969E-08  0.93827000000E+00  0.93827000000E+00 0. -1.
     999902    2    1    2    0    0  0.16691466301E-01  0.16161817560E-01 -0.52695518535E-02  0.10201061134E+01  0.10198278801E+01 0.  0.
     999903    2    3    3    0    0  0.75954026266E-01  0.10537304103E+00  0.21258519448E-01  0.13321579780E+00  0.20543423593E-01 0.  0.
         14    1    1    2    0    0 -0.16691466301E-01 -0.16161817560E-01  0.52695518535E-02  0.23823886561E-01  0.00000000000E+00 0.  1.
     999901    1    3    3    0    0 -0.59262559965E-01 -0.89211223468E-01 -0.26528071302E-01  0.88689031564E+00  0.88000000000E+00 0. -1.
        -11    1    4    4    0    0  0.65421919604E-01  0.77611210694E-01  0.20213003231E-01  0.10350050343E+00  0.51100000000E-03 0.  1.
         11    1    4    4    0    0  0.10532106662E-01  0.27761830334E-01  0.10455162171E-02  0.29715294369E-01  0.51100000000E-03 0. -1.
</event>
<event>
 8    1  0.1118172E+005  0.1043930E+01  0.7957747E-01            NaN
         13   -1    0    0    0    0  0.00000000000E+00  0.00000000000E+00  0.74505805969E-08  0.10566000000E+00  0.10566000000E+00 0. -1.
     999900   -1    0    0    0    0 -0.00000000000E+00 -0.00000000000E+00 -0.74505805969E-08  0.93827000000E+00  0.93827000000E+00 0. -1.
     999902    2    1    2    0    0 -0.19282639912E-02 -0.90779965482E-02  0.21896913018E-01  0.10201475900E+01  0.10198703361E+01 0.  0.
     999903    2    3    3    0    0  0.10080646775E+00  0.13816619034E-01  0.81437484518E-01  0.13187754767E+00  0.20168807441E-01 0.  0.
         14    1    1    2    0    0  0.19282639912E-02  0.90779965482E-02 -0.21896913018E-01  0.23782409951E-01  0.00000000000E+00 0.  1.
     999901    1    3    3    0    0 -0.10273473174E+00 -0.22894615582E-01 -0.59540571500E-01  0.88827004238E+00  0.88000000000E+00 0. -1.
        -11    1    4    4    0    0  0.63490710106E-01  0.14326030112E-01  0.61571714311E-01  0.89597112301E-01  0.51100000000E-03 0.  1.
         11    1    4    4    0    0  0.37315757646E-01 -0.50941107850E-03  0.19865770207E-01  0.42280435372E-01  0.51100000000E-03 0. -1.
</event>
<event>
 8    1  0.1101883E+005  0.1043930E+01  0.7957747E-01            NaN
         13   -1    0    0    0    0  0.00000000000E+00  0.00000000000E+00  0.74505805969E-08  0.10566000000E+00  0.10566000000E+00 0.  1.
     999900   -1    0    0    0    0 -0.00000000000E+00 -0.00000000000E+00 -0.74505805969E-08  0.93827000000E+00  0.93827000000E+00 0.  1.
     999902    2    1    2    0    0 -0.15149253911E-01 -0.17086997209E-01  0.54300779493E-02  0.10204576521E+01  0.10201876635E+01 0.  0.
     999903    2    3    3    0    0  0.36008710445E-01 -0.16331226097E-01  0.12343272051E+00  0.13110826514E+00  0.19758656840E-01 0.  0.
         14    1    1    2    0    0  0.15149253911E-01  0.17086997209E-01 -0.54300779493E-02  0.23472347863E-01  0.00000000000E+00 0. -1.
     999901    1    3    3    0    0 -0.51157964357E-01 -0.75577111205E-03 -0.11800264256E+00  0.88934938700E+00  0.88000000000E+00 0.  1.
        -11    1    4    4    0    0  0.12450514716E-01 -0.15807248246E-01  0.47131104846E-01  0.51249259300E-01  0.51100000000E-03 0.  1.
         11    1    4    4    0    0  0.23558195730E-01 -0.52397785109E-03  0.76301615665E-01  0.79859005835E-01  0.51100000000E-03 0. -1.
</event>
<event>
 8    1  0.1101883E+005  0.1043930E+01  0.7957747E-01            NaN
         13   -1    0    0    0    0  0.00000000000E+00  0.00000000000E+00  0.74505805969E-08  0.10566000000E+00  0.10566000000E+00 0.  1.
     999900   -1    0    0    0    0 -0.00000000000E+00 -0.00000000000E+00 -0.74505805969E-08  0.93827000000E+00  0.93827000000E+00 0. -1.
     999902    2    1    2    0    0  0.24070312467E-01 -0.32155696925E-02 -0.31209144305E-02  0.10194461290E+01  0.10191520741E+01 0.  0.
     999903    2    3    3    0    0  0.21148393673E-01  0.62795660738E-01 -0.11062359073E+00  0.13044509103E+00  0.19692470300E-01 0.  0.
         14    1    1    2    0    0 -0.24070312467E-01  0.32155696925E-02  0.31209144305E-02  0.24483870969E-01  0.00000000000E+00 0.  1.
     999901    1    3    3    0    0  0.29219187940E-02 -0.66011230430E-01  0.10750267630E+00  0.88900103800E+00  0.88000000000E+00 0.  1.
        -11    1    4    4    0    0  0.33748400430E-02  0.36173013072E-01 -0.68464164314E-01  0.77507930796E-01  0.51100000000E-03 0.  1.
         11    1    4    4    0    0  0.17773553631E-01  0.26622647666E-01 -0.42159426413E-01  0.52937160236E-01  0.51100000000E-03 0. -1.
</event>
<event>
 8    1  0.1101883E+005  0.1043930E+01  0.7957747E-01            NaN
         13   -1    0    0    0    0  0.00000000000E+00  0.00000000000E+00  0.74505805969E-08  0.10566000000E+00  0.10566000000E+00 0.  1.
     999900   -1    0    0    0    0 -0.00000000000E+00 -0.00000000000E+00 -0.74505805969E-08  0.93827000000E+00  0.93827000000E+00 0.  1.
     999902    2    1    2    0    0 -0.90910977503E-02  0.11541122317E-01 -0.18425725062E-01  0.10203640732E+01  0.10200919022E+01 0.  0.
     999903    2    3    3    0    0 -0.52887490277E-01 -0.76633909202E-01 -0.91208365774E-01  0.13188769591E+00  0.20138413007E-01 0.  0.
         14    1    1    2    0    0  0.90910977503E-02 -0.11541122317E-01  0.18425725062E-01  0.23565926816E-01  0.00000000000E+00 0.  1.
     999901    1    3    3    0    0  0.43796392526E-01  0.88175031519E-01  0.72782640713E-01  0.88847637727E+00  0.88000000000E+00 0. -1.
        -11    1    4    4    0    0 -0.15041201639E-01 -0.39293575294E-01 -0.38982937217E-01  0.57359858100E-01  0.51100000000E-03 0. -1.
         11    1    4    4    0    0 -0.37846288638E-01 -0.37340333908E-01 -0.52225428557E-01  0.74527837812E-01  0.51100000000E-03 0.  1.
</event>
<event>
 8    1  0.1101883E+005  0.1043930E+01  0.7957747E-01            NaN
         13   -1    0    0    0    0  0.00000000000E+00  0.00000000000E+00  0.74505805969E-08  0.10566000000E+00  0.10566000000E+00 0.  1.
     999900   -1    0    0    0    0 -0.00000000000E+00 -0.00000000000E+00 -0.74505805969E-08  0.93827000000E+00  0.93827000000E+00 0.  1.
     999902    2    1    2    0    0  0.22489083534E-01  0.33187757769E-02 -0.85962171864E-02  0.10196263357E+01  0.10193366452E+01 0.  0.
     999903    2    3    3    0    0  0.18351191487E-02  0.11550325592E+00  0.55535697476E-01  0.12994951438E+00  0.21407774341E-01 0.  0.
         14    1    1    2    0    0 -0.22489083534E-01 -0.33187757769E-02  0.85962171864E-02  0.24303664348E-01  0.00000000000E+00 0.  1.
     999901    1    3    3    0    0  0.20653964385E-01 -0.11218448015E+00 -0.64131914663E-01  0.88967682127E+00  0.88000000000E+00 0. -1.
        -11    1    4    4    0    0 -0.70920096146E-03  0.60954931161E-01  0.40906533097E-01  0.73413978028E-01  0.51100000000E-03 0. -1.
         11    1    4    4    0    0  0.25443201102E-02  0.54548324762E-01  0.14629164379E-01  0.56535536352E-01  0.51100000000E-03 0.  1.
</event>
<event>
 8    1  0.1101883E+005  0.1043930E+01  0.7957747E-01            NaN
         13   -1    0    0    0    0  0.00000000000E+00  0.00000000000E+00  0.74505805969E-08  0.10566000000E+00  0.10566000000E+00 0. -1.
     999900   -1    0    0    0    0 -0.00000000000E+00 -0.00000000000E+00 -0.74505805969E-08  0.93827000000E+00  0.93827000000E+00 0.  1.
     999902    2    1    2    0    0 -0.17649978045E-01 -0.41087944892E-02  0.15961099573E-01  0.10197812813E+01  0.10194953168E+01 0.  0.
     999903    2    3    3    0    0 -0.64185324357E-01  0.93625686291E-01  0.64080833070E-01  0.13184374070E+00  0.19771034319E-01 0.  0.
         14    1    1    2    0    0  0.17649978045E-01  0.41087944892E-02 -0.15961099573E-01  0.24148718739E-01  0.00000000000E+00 0.  1.
     999901    1    3    3    0    0  0.46535346312E-01 -0.97734480780E-01 -0.48119733496E-01  0.88793754056E+00  0.88000000000E+00 0.  1.
        -11    1    4    4    0    0 -0.28735990013E-01  0.52067947477E-01  0.24197045502E-01  0.64207370360E-01  0.51100000000E-03 0.  1.
         11    1    4    4    0    0 -0.35449334344E-01  0.41557738814E-01  0.39883787568E-01  0.67636370338E-01  0.51100000000E-03 0. -1.
</event>
<event>
 8    1  0.1101883E+005  0.1043930E+01  0.7957747E-01            NaN
         13   -1    0    0    0    0  0.00000000000E+00  0.00000000000E+00  0.74505805969E-08  0.10566000000E+00  0.10566000000E+00 0. -1.
     999900   -1    0    0    0    0 -0.00000000000E+00 -0.00000000000E+00 -0.74505805969E-08  0.93827000000E+00  0.93827000000E+00 0. -1.
     999902    2    1    2    0    0 -0.22895432043E-03  0.89951130929E-02  0.22253572800E-01  0.10199261257E+01  0.10196436220E+01 0.  0.
     999903    2    3    3    0    0  0.92553091974E-01  0.14937190959E-01  0.91516527940E-01  0.13232194963E+00  0.18564184863E-01 0.  0.
         14    1    1    2    0    0  0.22895432043E-03 -0.89951130929E-02 -0.22253572800E-01  0.24003874312E-01  0.00000000000E+00 0.  1.
     999901    1    3    3    0    0 -0.92782046294E-01 -0.59420778664E-02 -0.69262955140E-01  0.88760417606E+00  0.88000000000E+00 0. -1.
        -11    1    4    4    0    0  0.19051405256E-01 -0.43712765562E-02  0.19850248695E-01  0.27863194275E-01  0.51100000000E-03 0.  1.
         11    1    4    4    0    0  0.73501686718E-01  0.19308467515E-01  0.71666279244E-01  0.10445875535E+00  0.51100000000E-03 0. -1.
</event>
<event>
 8    1  0.1101883E+005  0.1043930E+01  0.7957747E-01            NaN
         13   -1    0    0    0    0  0.00000000000E+00  0.00000000000E+00  0.74505805969E-08  0.10566000000E+00  0.10566000000E+00 0.  1.
     999900   -1    0    0    0    0 -0.00000000000E+00 -0.00000000000E+00 -0.74505805969E-08  0.93827000000E+00  0.93827000000E+00 0.  1.
     999902    2    1    2    0    0 -0.20036878117E-01  0.12164783638E-01 -0.19443931511E-02  0.10204089645E+01  0.10201378415E+01 0.  0.
     999903    2    3    3    0    0  0.39077517165E-01 -0.77227500005E-01 -0.93746251109E-01  0.12916653216E+00  0.20112044355E-01 0.  0.
         14    1    1    2    0    0  0.20036878117E-01 -0.12164783638E-01  0.19443931511E-02  0.23521035487E-01  0.00000000000E+00 0.  1.
     999901    1    3    3    0    0 -0.59114395282E-01  0.89392283644E-01  0.91801857958E-01  0.89124243235E+00  0.88000000000E+00 0. -1.
        -11    1    4    4    0    0  0.94015787525E-02 -0.11352532300E-01 -0.27183263869E-01  0.30926697661E-01  0.51100000000E-03 0.  1.
         11    1    4    4    0    0  0.29675938412E-01 -0.65874967705E-01 -0.66562987240E-01  0.98239834498E-01  0.51100000000E-03 0. -1.
</event>
<event>
 8    1  0.1101883E+005  0.1043930E+01  0.7957747E-01            NaN
         13   -1    0    0    0    0  0.00000000000E+00  0.00000000000E+00  0.74505805969E-08  0.10566000000E+00  0.10566000000E+00 0.  1.
     999900   -1    0    0    0    0 -0.00000000000E+00 -0.00000000000E+00 -0.74505805969E-08  0.93827000000E+00  0.93827000000E+00 0. -1.
     999902    2    1    2    0    0 -0.16797845263E-02 -0.21377895150E-01 -0.13181304856E-01  0.10187589278E+01  0.10184479222E+01 0.  0.
     999903    2    3    3    0    0  0.90315922908E-01  0.44761302086E-01  0.74883479871E-01  0.12713512267E+00  0.19881241495E-01 0.  0.
         14    1    1    2    0    0  0.16797845263E-02  0.21377895150E-01  0.13181304856E-01  0.25171072183E-01  0.00000000000E+00 0.  1.
     999901    1    3    3    0    0 -0.91995707434E-01 -0.66139197237E-01 -0.88064784727E-01  0.89162380515E+00  0.88000000000E+00 0. -1.
        -11    1    4    4    0    0  0.17171269098E-01  0.17786827865E-01  0.16329829960E-01  0.29633565352E-01  0.51100000000E-03 0.  1.
         11    1    4    4    0    0  0.73144653810E-01  0.26974474222E-01  0.58553649911E-01  0.97501557318E-01  0.51100000000E-03 0. -1.
</event>
<event>
 8    1  0.1101883E+005  0.1043930E+01  0.7957747E-01            NaN
         13   -1    0    0    0    0  0.00000000000E+00  0.00000000000E+00  0.74505805969E-08  0.10566000000E+00  0.10566000000E+00 0. -1.
     999900   -1    0    0    0    0 -0.00000000000E+00 -0.00000000000E+00 -0.74505805969E-08  0.93827000000E+00  0.93827000000E+00 0.  1.
     999902    2    1    2    0    0  0.56319293913E-02  0.14579299295E-01 -0.17646616497E-01  0.10203571837E+01  0.10200848517E+01 0.  0.
     999903    2    3    3    0    0  0.64315571690E-01 -0.60699132222E-01 -0.95550517354E-01  0.13177425005E+00  0.20338982166E-01 0.  0.
         14    1    1    2    0    0 -0.56319293913E-02 -0.14579299295E-01  0.17646616497E-01  0.23572816344E-01  0.00000000000E+00 0.  1.
     999901    1    3    3    0    0 -0.58683642299E-01  0.75278431517E-01  0.77903900857E-01  0.88858293360E+00  0.88000000000E+00 0. -1.
        -11    1    4    4    0    0  0.31917789648E-01 -0.28573240904E-01 -0.60995854034E-01  0.74538115901E-01  0.51100000000E-03 0. -1.
         11    1    4    4    0    0  0.32397782042E-01 -0.32125891319E-01 -0.34554663320E-01  0.57236134150E-01  0.51100000000E-03 0.  1.
</event>
<event>
 8    1  0.1101883E+005  0.1043930E+01  0.7957747E-01            NaN
         13   -1    0    0    0    0  0.00000000000E+00  0.00000000000E+00  0.74505805969E-08  0.10566000000E+00  0.10566000000E+00 0. -1.
     999900   -1    0    0    0    0 -0.00000000000E+00 -0.00000000000E+00 -0.74505805969E-08  0.93827000000E+00  0.93827000000E+00 0. -1.
     999902    2    1    2    0    0  0.43161938976E-02 -0.18978589086E-01  0.13382124893E-01  0.10203101431E+01  0.10200367104E+01 0.  0.
     999903    2    3    3    0    0 -0.33738955365E-01 -0.10967337928E+00 -0.61817139020E-01  0.13164335029E+00  0.18494479332E-01 0.  0.
         14    1    1    2    0    0 -0.43161938976E-02  0.18978589086E-01 -0.13382124893E-01  0.23619856903E-01  0.00000000000E+00 0.  1.
     999901    1    3    3    0    0  0.38055149263E-01  0.90694790195E-01  0.75199263913E-01  0.88866679281E+00  0.88000000000E+00 0. -1.
        -11    1    4    4    0    0 -0.26258327287E-01 -0.92728301504E-01 -0.58722913013E-01  0.11285689738E+00  0.51100000000E-03 0. -1.
         11    1    4    4    0    0 -0.74806280784E-02 -0.16945077777E-01 -0.30942260065E-02  0.18786452909E-01  0.51100000000E-03 0.  1.
</event>
<event>
 8    1  0.1101883E+005  0.1043930E+01  0.7957747E-01            NaN
         13   -1    0    0    0    0  0.00000000000E+00  0.00000000000E+00  0.74505805969E-08  0.10566000000E+00  0.10566000000E+00 0. -1.
     999900   -1    0    0    0    0 -0.00000000000E+00 -0.00000000000E+00 -0.74505805969E-08  0.93827000000E+00  0.93827000000E+00 0.  1.
     999902    2    1    2    0    0 -0.11691485401E-02  0.18472762414E-01  0.14960337569E-01  0.10201303874E+01  0.10198527275E+01 0.  0.
     999903    2    3    3    0    0 -0.10080225204E+00 -0.19972853658E-01  0.79322748377E-01  0.13134056938E+00  0.19955897745E-01 0.  0.
         14    1    1    2    0    0  0.11691485401E-02 -0.18472762414E-01 -0.14960337569E-01  0.23799612595E-01  0.00000000000E+00 0.  1.
     999901    1    3    3    0    0  0.99633103497E-01  0.38445616072E-01 -0.64362410808E-01  0.88878981803E+00  0.88000000000E+00 0.  1.
        -11    1    4    4    0    0 -0.56882730748E-01 -0.16151438786E-01  0.56097141187E-01  0.81508676855E-01  0.51100000000E-03 0. -1.
         11    1    4    4    0    0 -0.43919521289E-01 -0.38214148712E-02  0.23225607190E-01  0.49831892521E-01  0.51100000000E-03 0.  1.
</event>
<event>
 8    1  0.1101883E+005  0.1043930E+01  0.7957747E-01            NaN
         13   -1    0    0    0    0  0.00000000000E+00  0.00000000000E+00  0.74505805969E-08  0.10566000000E+00  0.10566000000E+00 0. -1.
     999900   -1    0    0    0    0 -0.00000000000E+00 -0.00000000000E+00 -0.74505805969E-08  0.93827000000E+00  0.93827000000E+00 0.  1.
     999902    2    1    2    0    0 -0.24374044602E-01 -0.63831300086E-02 -0.49358022663E-04  0.10187339520E+01  0.10184223211E+01 0.  0.
     999903    2    3    3    0    0  0.76948085115E-01  0.78462918986E-01  0.60259061197E-01  0.12682469011E+00  0.19388401345E-01 0.  0.
         14    1    1    2    0    0  0.24374044602E-01  0.63831300086E-02  0.49358022663E-04  0.25196048008E-01  0.00000000000E+00 0. -1.
     999901    1    3    3    0    0 -0.10132212972E+00 -0.84846048995E-01 -0.60308419219E-01  0.89190926188E+00  0.88000000000E+00 0.  1.
        -11    1    4    4    0    0  0.47922171040E-01  0.58437018538E-01  0.47789155305E-01  0.89417470880E-01  0.51100000000E-03 0.  1.
         11    1    4    4    0    0  0.29025914075E-01  0.20025900449E-01  0.12469905892E-01  0.37407219231E-01  0.51100000000E-03 0. -1.
</event>
<event>
 8    1  0.1101883E+005  0.1043930E+01  0.7957747E-01            NaN
         13   -1    0    0    0    0  0.00000000000E+00  0.00000000000E+00  0.74505805969E-08  0.10566000000E+00  0.10566000000E+00 0. -1.
     999900   -1    0    0    0    0 -0.00000000000E+00 -0.00000000000E+00 -0.74505805969E-08  0.93827000000E+00  0.93827000000E+00 0.  1.
     999902    2    1    2    0    0  0.83571875899E-02  0.24232842654E-02 -0.20756518792E-01  0.10214233796E+01  0.10211753877E+01 0.  0.
     999903    2    3    3    0    0  0.28776307290E-01  0.60881090278E-01 -0.11441757390E+00  0.13428942757E+00  0.20191238837E-01 0.  0.
         14    1    1    2    0    0 -0.83571875899E-02 -0.24232842654E-02  0.20756518792E-01  0.22506620435E-01  0.00000000000E+00 0. -1.
     999901    1    3    3    0    0 -0.20419119700E-01 -0.58457806013E-01  0.93661055110E-01  0.88713395199E+00  0.88000000000E+00 0. -1.
        -11    1    4    4    0    0  0.72645923377E-02  0.15583930502E-01 -0.14517387657E-01  0.22508861747E-01  0.51100000000E-03 0. -1.
         11    1    4    4    0    0  0.21511714952E-01  0.45297159776E-01 -0.99900186244E-01  0.11178056583E+00  0.51100000000E-03 0.  1.
</event>
<event>
 8    1  0.1101883E+005  0.1043930E+01  0.7957747E-01            NaN
         13   -1    0    0    0    0  0.00000000000E+00  0.00000000000E+00  0.74505805969E-08  0.10566000000E+00  0.10566000000E+00 0.  1.
     999900   -1    0    0    0    0 -0.00000000000E+00 -0.00000000000E+00 -0.74505805969E-08  0.93827000000E+00  0.93827000000E+00 0.  1.
     999902    2    1    2    0    0 -0.23227231863E-02 -0.10490639731E-01 -0.21511479395E-01  0.10198843702E+01  0.10196008711E+01 0.  0.
     999903    2    3    3    0    0  0.62921742934E-01  0.11030839432E+00 -0.11898750262E-01  0.12918708634E+00  0.20509398522E-01 0.  0.
         14    1    1    2    0    0  0.23227231863E-02  0.10490639731E-01  0.21511479395E-01  0.24045629763E-01  0.00000000000E+00 0.  1.
     999901    1    3    3    0    0 -0.65244466120E-01 -0.12079903405E+00 -0.96127291331E-02  0.89069728390E+00  0.88000000000E+00 0. -1.
        -11    1    4    4    0    0  0.60477432603E-01  0.99267587084E-01 -0.15588985189E-01  0.11728107810E+00  0.51100000000E-03 0.  1.
         11    1    4    4    0    0  0.24443103309E-02  0.11040807232E-01  0.36902349272E-02  0.11906008237E-01  0.51100000000E-03 0. -1.
</event>
<event>
 8    1  0.1101883E+005  0.1043930E+01  0.7957747E-01            NaN
         13   -1    0    0    0    0  0.00000000000E+00  0.00000000000E+00  0.74505805969E-08  0.10566000000E+00  0.10566000000E+00 0.  1.
     999900   -1    0    0    0    0 -0.00000000000E+00 -0.00000000000E+00 -0.74505805969E-08  0.93827000000E+00  0.93827000000E+00 0.  1.
     999902    2    1    2    0    0 -0.15939611634E-01  0.97098233557E-02  0.13132483234E-01  0.10211086502E+01  0.10208535946E+01 0.  0.
     999903    2    3    3    0    0 -0.93572599798E-01  0.18565124783E-01 -0.88414662135E-01  0.13182966143E+00  0.21480499575E-01 0.  0.
         14    1    1    2    0    0  0.15939611634E-01 -0.97098233557E-02 -0.13132483234E-01  0.22821349753E-01  0.00000000000E+00 0. -1.
     999901    1    3    3    0    0  0.77632988164E-01 -0.88553014276E-02  0.10154714537E+00  0.88927898881E+00  0.88000000000E+00 0. -1.
        -11    1    4    4    0    0 -0.67143333561E-01  0.38769147773E-02 -0.65563783307E-01  0.93926186511E-01  0.51100000000E-03 0.  1.
         11    1    4    4    0    0 -0.26429266236E-01  0.14688210006E-01 -0.22850878828E-01  0.37903474922E-01  0.51100000000E-03 0. -1.
</event>
<event>
 8    1  0.1101883E+005  0.1043930E+01  0.7957747E-01            NaN
         13   -1    0    0    0    0  0.00000000000E+00  0.00000000000E+00  0.74505805969E-08  0.10566000000E+00  0.10566000000E+00 0.  1.
     999900   -1    0    0    0    0 -0.00000000000E+00 -0.00000000000E+00 -0.74505805969E-08  0.93827000000E+00  0.93827000000E+00 0.  1.
     999902    2    1    2    0    0  0.29820603468E-02  0.17617417086E-01  0.17263010055E-01  0.10190849284E+01  0.10187820246E+01 0.  0.
     999903    2    3    3    0    0  0.21816988560E-01  0.63403884738E-01  0.11142922241E+00  0.13267732985E+00  0.26282478199E-01 0.  0.
         14    1    1    2    0    0 -0.29820603468E-02 -0.17617417086E-01 -0.17263010055E-01  0.24845071641E-01  0.00000000000E+00 0. -1.
     999901    1    3    3    0    0 -0.18834928213E-01 -0.45786467652E-01 -0.94166212355E-01  0.88640759851E+00  0.88000000000E+00 0.  1.
        -11    1    4    4    0    0  0.22003867291E-01  0.24188972365E-01  0.47253954024E-01  0.57467154547E-01  0.51100000000E-03 0. -1.
         11    1    4    4    0    0 -0.18687873123E-03  0.39214912373E-01  0.64175268386E-01  0.75210175305E-01  0.51100000000E-03 0.  1.
</event>
<event>
 8    1  0.1101883E+005  0.1043930E+01  0.7957747E-01            NaN
         13   -1    0    0    0    0  0.00000000000E+00  0.00000000000E+00  0.74505805969E-08  0.10566000000E+00  0.10566000000E+00 0.  1.
     999900   -1    0    0    0    0 -0.00000000000E+00 -0.00000000000E+00 -0.74505805969E-08  0.93827000000E+00  0.93827000000E+00 0.  1.
     999902    2    1    2    0    0  0.80074971869E-02 -0.61230390564E-02 -0.23861897263E-01  0.10180262983E+01  0.10176966849E+01 0.  0.
     999903    2    3    3    0    0  0.74075485860E-01 -0.51890228509E-02  0.10087126482E+00  0.12677761630E+00  0.19581837660E-01 0.  0.
         14    1    1    2    0    0 -0.80074971869E-02  0.61230390564E-02  0.23861897263E-01  0.25903701656E-01  0.00000000000E+00 0.  1.
     999901    1    3    3    0    0 -0.66067988673E-01 -0.93401620548E-03 -0.12473316208E+00  0.89124868204E+00  0.88000000000E+00 0.  1.
        -11    1    4    4    0    0  0.48652326941E-01 -0.12180144810E-01  0.60977769156E-01  0.78955394348E-01  0.51100000000E-03 0. -1.
         11    1    4    4    0    0  0.25423158919E-01  0.69911219595E-02  0.39893495663E-01  0.47822221957E-01  0.51100000000E-03 0.  1.
</event>
<event>
 8    1  0.1101883E+005  0.1043930E+01  0.7957747E-01            NaN
         13   -1    0    0    0    0  0.00000000000E+00  0.00000000000E+00  0.74505805969E-08  0.10566000000E+00  0.10566000000E+00 0.  1.
     999900   -1    0    0    0    0 -0.00000000000E+00 -0.00000000000E+00 -0.74505805969E-08  0.93827000000E+00  0.93827000000E+00 0.  1.
     999902    2    1    2    0    0  0.40650177877E-02  0.17324800531E-01 -0.17258381114E-01  0.10191403892E+01  0.10188388529E+01 0.  0.
     999903    2    3    3    0    0  0.25133952957E-02 -0.33523691313E-01  0.12074727563E+00  0.12693327318E+00  0.20049843703E-01 0.  0.
         14    1    1    2    0    0 -0.40650177877E-02 -0.17324800531E-01  0.17258381114E-01  0.24789610762E-01  0.00000000000E+00 0.  1.
     999901    1    3    3    0    0  0.15516224920E-02  0.50848491843E-01 -0.13800565674E+00  0.89220711606E+00  0.88000000000E+00 0.  1.
        -11    1    4    4    0    0 -0.47849820126E-02 -0.99435452950E-02  0.16889947815E-01  0.20181714597E-01  0.51100000000E-03 0. -1.
         11    1    4    4    0    0  0.72983773083E-02 -0.23580146018E-01  0.10385732781E+00  0.10675155858E+00  0.51100000000E-03 0.  1.
</event>
<event>
 8    1  0.1101883E+005  0.1043930E+01  0.7957747E-01            NaN
         13   -1    0    0    0    0  0.00000000000E+00  0.00000000000E+00  0.74505805969E-08  0.10566000000E+00  0.10566000000E+00 0.  1.
     999900   -1    0    0    0    0 -0.00000000000E+00 -0.00000000000E+00 -0.74505805969E-08  0.93827000000E+00  0.93827000000E+00 0.  1.
     999902    2    1    2    0    0 -0.56869093297E-02 -0.17156836131E-01  0.15483577654E-01  0.10201300181E+01  0.10198523494E+01 0.  0.
     999903    2    3    3    0    0 -0.48254928023E-01 -0.44549108503E-01  0.11364651391E+00  0.13322622685E+00  0.22815263496E-01 0.  0.
         14    1    1    2    0    0  0.56869093297E-02  0.17156836131E-01 -0.15483577654E-01  0.23799981948E-01  0.00000000000E+00 0. -1.
     999901    1    3    3    0    0  0.42568018694E-01  0.27392272372E-01 -0.98162936257E-01  0.88690379121E+00  0.88000000000E+00 0.  1.
        -11    1    4    4    0    0 -0.27779818361E-01 -0.18589589136E-01  0.76553576061E-01  0.83534437575E-01  0.51100000000E-03 0. -1.
         11    1    4    4    0    0 -0.20475109663E-01 -0.25959519367E-01  0.37092937851E-01  0.49691789270E-01  0.51100000000E-03 0.  1.
</event>
<event>
 8    1  0.1101883E+005  0.1043930E+01  0.7957747E-01            NaN
         13   -1    0    0    0    0  0.00000000000E+00  0.00000000000E+00  0.74505805969E-08  0.10566000000E+00  0.10566000000E+00 0. -1.
     999900   -1    0    0    0    0 -0.00000000000E+00 -0.00000000000E+00 -0.74505805969E-08  0.93827000000E+00  0.93827000000E+00 0. -1.
     999902    2    1    2    0    0 -0.16814871806E-01  0.91893268033E-02  0.52478420445E-02  0.10240623507E+01  0.10238696083E+01 0.  0.
     999903    2    3    3    0    0  0.83686152811E-02  0.13204138992E+00 -0.16902329564E-01  0.13489562423E+00  0.20153866061E-01 0.  0.
         14    1    1    2    0    0  0.16814871806E-01 -0.91893268033E-02 -0.52478420445E-02  0.19867649259E-01  0.00000000000E+00 0. -1.
     999901    1    3    3    0    0 -0.25183487087E-01 -0.12285206312E+00  0.22150171608E-01  0.88916672651E+00  0.88000000000E+00 0.  1.
        -11    1    4    4    0    0 -0.17608320356E-02  0.10221793270E+00 -0.10732091756E-01  0.10279613421E+00  0.51100000000E-03 0.  1.
         11    1    4    4    0    0  0.10129447317E-01  0.29823457222E-01 -0.61702378077E-02  0.32099490015E-01  0.51100000000E-03 0. -1.
</event>
<event>
 8    1  0.1101883E+005  0.1043930E+01  0.7957747E-01            NaN
         13   -1    0    0    0    0  0.00000000000E+00  0.00000000000E+00  0.74505805969E-08  0.10566000000E+00  0.10566000000E+00 0. -1.
     999900   -1    0    0    0    0 -0.00000000000E+00 -0.00000000000E+00 -0.74505805969E-08  0.93827000000E+00  0.93827000000E+00 0. -1.
     999902    2    1    2    0    0  0.18445598708E-01 -0.14236529441E-01  0.35527212522E-02  0.10203600889E+01  0.10200878248E+01 0.  0.
     999903    2    3    3    0    0 -0.94649791140E-01  0.82389838872E-01  0.14000376416E-01  0.12781520162E+00  0.19850609918E-01 0.  0.
         14    1    1    2    0    0 -0.18445598708E-01  0.14236529441E-01 -0.35527212522E-02  0.23569911126E-01  0.00000000000E+00 0.  1.
     999901    1    3    3    0    0  0.11309538985E+00 -0.96626368313E-01 -0.10447655163E-01  0.89254488725E+00  0.88000000000E+00 0. -1.
        -11    1    4    4    0    0 -0.12181529142E-01  0.17108116562E-01 -0.31581996484E-02  0.21244120376E-01  0.51100000000E-03 0.  1.
         11    1    4    4    0    0 -0.82468261998E-01  0.65281722310E-01  0.17158576064E-01  0.10657108125E+00  0.51100000000E-03 0. -1.
</event>
<event>
 8    1  0.1101883E+005  0.1043930E+01  0.7957747E-01            NaN
         13   -1    0    0    0    0  0.00000000000E+00  0.00000000000E+00  0.74505805969E-08  0.10566000000E+00  0.10566000000E+00 0. -1.
     999900   -1    0    0    0    0 -0.00000000000E+00 -0.00000000000E+00 -0.74505805969E-08  0.93827000000E+00  0.93827000000E+00 0.  1.
     999902    2    1    2    0    0 -0.23685019180E-01  0.32497664544E-02  0.22998315209E-02  0.10199127075E+01  0.10196298841E+01 0.  0.
     999903    2    3    3    0    0 -0.41037767500E-01 -0.89267787840E-01 -0.84286083693E-01  0.13066710785E+00  0.17802046566E-01 0.  0.
         14    1    1    2    0    0  0.23685019180E-01 -0.32497664544E-02 -0.22998315209E-02  0.24017292533E-01  0.00000000000E+00 0.  1.
     999901    1    3    3    0    0  0.17352748319E-01  0.92517554295E-01  0.86585915214E-01  0.88924559962E+00  0.88000000000E+00 0. -1.
        -11    1    4    4    0    0 -0.39611268557E-01 -0.87574947336E-01 -0.77374367447E-01  0.12339156315E+00  0.51100000000E-03 0.  1.
         11    1    4    4    0    0 -0.14264989431E-02 -0.16928405044E-02 -0.69117162463E-02  0.72755446997E-02  0.51100000000E-03 0. -1.
</event>
<event>
 8    1  0.1101883E+005  0.1043930E+01  0.7957747E-01            NaN
         13   -1    0    0    0    0  0.00000000000E+00  0.00000000000E+00  0.74505805969E-08  0.10566000000E+00  0.10566000000E+00 0.  1.
     999900   -1    0    0    0    0 -0.00000000000E+00 -0.00000000000E+00 -0.74505805969E-08  0.93827000000E+00  0.93827000000E+00 0.  1.
     999902    2    1    2    0    0  0.11803320381E-02 -0.15649894035E-01 -0.17427401988E-01  0.10204773518E+01  0.10202078214E+01 0.  0.
     999903    2    3    3    0    0 -0.78872795358E-01 -0.25260974306E-01 -0.10186921816E+00  0.13276608322E+00  0.19760075272E-01 0.  0.
         14    1    1    2    0    0 -0.11803320381E-02  0.15649894035E-01  0.17427401988E-01  0.23452648189E-01  0.00000000000E+00 0.  1.
     999901    1    3    3    0    0  0.80053127396E-01  0.96110802703E-02  0.84441816168E-01  0.88771126859E+00  0.88000000000E+00 0. -1.
        -11    1    4    4    0    0 -0.47453669452E-01 -0.11680316297E-01 -0.73708124680E-01  0.88438844961E-01  0.51100000000E-03 0.  1.
         11    1    4    4    0    0 -0.31419125906E-01 -0.13580658009E-01 -0.28161093476E-01  0.44327238256E-01  0.51100000000E-03 0. -1.
</event>
<event>
 8    1  0.1101883E+005  0.1043930E+01  0.7957747E-01            NaN
         13   -1    0    0    0    0  0.00000000000E+00  0.00000000000E+00  0.74505805969E-08  0.10566000000E+00  0.10566000000E+00 0. -1.
     999900   -1    0    0    0    0 -0.00000000000E+00 -0.00000000000E+00 -0.74505805969E-08  0.93827000000E+00  0.93827000000E+00 0.  1.
     999902    2    1    2    0    0 -0.35194565574E-02  0.20279335282E-01 -0.14750581672E-01  0.10186077238E+01  0.10182929231E+01 0.  0.
     999903    2    3    3    0    0  0.91664018092E-01 -0.78279201766E-01  0.36333964635E-01  0.12654084850E+00  0.12747694379E-01 0.  0.
         14    1    1    2    0    0  0.35194565574E-02 -0.20279335282E-01  0.14750581672E-01  0.25322276233E-01  0.00000000000E+00 0.  1.
     999901    1    3    3    0    0 -0.95183474649E-01  0.98558537048E-01 -0.51084546308E-01  0.89206687526E+00  0.88000000000E+00 0.  1.
        -11    1    4    4    0    0  0.50855016763E-01 -0.51508092446E-01  0.20621282941E-01  0.75264963619E-01  0.51100000000E-03 0.  1.
         11    1    4    4    0    0  0.40809001329E-01 -0.26771109320E-01  0.15712681694E-01  0.51275884884E-01  0.51100000000E-03 0. -1.
</event>
<event>
 8    1  0.1101883E+005  0.1043930E+01  0.7957747E-01            NaN
         13   -1    0    0    0    0  0.00000000000E+00  0.00000000000E+00  0.74505805969E-08  0.10566000000E+00  0.10566000000E+00 0. -1.
     999900   -1    0    0    0    0 -0.00000000000E+00 -0.00000000000E+00 -0.74505805969E-08  0.93827000000E+00  0.93827000000E+00 0. -1.
     999902    2    1    2    0    0  0.13276020333E-01 -0.15386405209E-01  0.12167833617E-01  0.10202434984E+01  0.10199685023E+01 0.  0.
     999903    2    3    3    0    0 -0.84858450799E-01 -0.97147912190E-01  0.88550843186E-02  0.13101557898E+00  0.21165913673E-01 0.  0.
         14    1    1    2    0    0 -0.13276020333E-01  0.15386405209E-01 -0.12167833617E-01  0.23686501558E-01  0.00000000000E+00 0.  1.
     999901    1    3    3    0    0  0.98134471132E-01  0.81761506981E-01  0.33127492980E-02  0.88922791947E+00  0.88000000000E+00 0. -1.
        -11    1    4    4    0    0 -0.52178823148E-01 -0.63260749744E-01  0.15535761342E-01  0.83463603114E-01  0.51100000000E-03 0. -1.
         11    1    4    4    0    0 -0.32679627650E-01 -0.33887162446E-01 -0.66806770229E-02  0.47551975863E-01  0.51100000000E-03 0.  1.
</event>
<event>
 8    1  0.1101883E+005  0.1043930E+01  0.7957747E-01            NaN
         13   -1    0    0    0    0  0.00000000000E+00  0.00000000000E+00  0.74505805969E-08  0.10566000000E+00  0.10566000000E+00 0. -1.
     999900   -1    0    0    0    0 -0.00000000000E+00 -0.00000000000E+00 -0.74505805969E-08  0.93827000000E+00  0.93827000000E+00 0.  1.
     999902    2    1    2    0    0  0.10381610819E-01 -0.10387441198E-01 -0.18604297985E-01  0.10202277494E+01  0.10199523832E+01 0.  0.
     999903    2    3    3    0    0  0.96090863265E-01  0.86167348262E-01 -0.12255743805E-02  0.13063743736E+00  0.20158673019E-01 0.  0.
         14    1    1    2    0    0 -0.10381610819E-01  0.10387441198E-01  0.18604297985E-01  0.23702250554E-01  0.00000000000E+00 0. -1.
     999901    1    3    3    0    0 -0.85709252446E-01 -0.96554789461E-01 -0.17378723604E-01  0.88959031209E+00  0.88000000000E+00 0.  1.
        -11    1    4    4    0    0  0.49495328357E-01  0.44782750101E-01  0.94233263082E-02  0.67411738113E-01  0.51100000000E-03 0.  1.
         11    1    4    4    0    0  0.46595534908E-01  0.41384598162E-01 -0.10648900689E-01  0.63225699246E-01  0.51100000000E-03 0. -1.
</event>
<event>
 8    1  0.1101883E+005  0.1043930E+01  0.7957747E-01            NaN
         13   -1    0    0    0    0  0.00000000000E+00  0.00000000000E+00  0.74505805969E-08  0.10566000000E+00  0.10566000000E+00 0.  1.
     999900   -1    0    0    0    0 -0.00000000000E+00 -0.00000000000E+00 -0.74505805969E-08  0.93827000000E+00  0.93827000000E+00 0.  1.
     999902    2    1    2    0    0 -0.45636332470E-02 -0.20397880976E-01 -0.11135693646E-01  0.10202465887E+01  0.10199716652E+01 0.  0.
     999903    2    3    3    0    0 -0.11445074702E+00 -0.62693926659E-01  0.50611250066E-02  0.13225645917E+00  0.20896269314E-01 0.  0.
         14    1    1    2    0    0  0.45636332470E-02  0.20397880976E-01  0.11135693646E-01  0.23683411277E-01  0.00000000000E+00 0.  1.
     999901    1    3    3    0    0  0.10988711378E+00  0.42296045683E-01 -0.16196818653E-01  0.88799012956E+00  0.88000000000E+00 0. -1.
        -11    1    4    4    0    0 -0.50708701458E-01 -0.28121937300E-01 -0.81195604143E-02  0.58552575890E-01  0.51100000000E-03 0.  1.
         11    1    4    4    0    0 -0.63742045564E-01 -0.34571989359E-01  0.13180685421E-01  0.73703883277E-01  0.51100000000E-03 0. -1.
</event>
<event>
 8    1  0.1101883E+005  0.1043930E+01  0.7957747E-01            NaN
         13   -1    0    0    0    0  0.00000000000E+00  0.00000000000E+00  0.74505805969E-08  0.10566000000E+00  0.10566000000E+00 0.  1.
     999900   -1    0    0    0    0 -0.00000000000E+00 -0.00000000000E+00 -0.74505805969E-08  0.93827000000E+00  0.93827000000E+00 0. -1.
     999902    2    1    2    0    0  0.10652944508E-01  0.44148025989E-02  0.20905312234E-01  0.10200551641E+01  0.10197757254E+01 0.  0.
     999903    2    3    3    0    0  0.33218085444E-01  0.11638868536E+00  0.47707479529E-01  0.13226820084E+00  0.23855944089E-01 0.  0.
         14    1    1    2    0    0 -0.10652944508E-01 -0.44148025989E-02 -0.20905312234E-01  0.23874835880E-01  0.00000000000E+00 0. -1.
     999901    1    3    3    0    0 -0.22565140936E-01 -0.11197388276E+00 -0.26802167295E-01  0.88778696328E+00  0.88000000000E+00 0. -1.
        -11    1    4    4    0    0  0.28424318570E-01  0.11327037549E+00  0.48534709218E-01  0.12646738303E+00  0.51100000000E-03 0. -1.
         11    1    4    4    0    0  0.47937668737E-02  0.31183098738E-02 -0.82722968882E-03  0.58008178102E-02  0.51100000000E-03 0.  1.
</event>
<event>
 8    1  0.1101883E+005  0.1043930E+01  0.7957747E-01            NaN
         13   -1    0    0    0    0  0.00000000000E+00  0.00000000000E+00  0.74505805969E-08  0.10566000000E+00  0.10566000000E+00 0.  1.
     999900   -1    0    0    0    0 -0.00000000000E+00 -0.00000000000E+00 -0.74505805969E-08  0.93827000000E+00  0.93827000000E+00 0. -1.
     999902    2    1    2    0    0 -0.90008298929E-02 -0.22797654307E-02  0.21390207380E-01  0.10206114829E+01  0.10203450621E+01 0.  0.
     999903    2    3    3    0    0  0.87868873996E-02  0.12075115807E+00  0.47430939660E-01  0.13149330695E+00  0.19563848549E-01 0.  0.
         14    1    1    2    0    0  0.90008298929E-02  0.22797654307E-02 -0.21390207380E-01  0.23318517126E-01  0.00000000000E+00 0. -1.
     999901    1    3    3    0    0 -0.17787717292E-01 -0.12303092350E+00 -0.26040732279E-01  0.88911817593E+00  0.88000000000E+00 0. -1.
        -11    1    4    4    0    0  0.48167222433E-02  0.89519726771E-01  0.25789744755E-01  0.93286410317E-01  0.51100000000E-03 0.  1.
         11    1    4    4    0    0  0.39701651563E-02  0.31231431298E-01  0.21641194905E-01  0.38206896631E-01  0.51100000000E-03 0. -1.
</event>
<event>
 8    1  0.1101883E+005  0.1043930E+01  0.7957747E-01            NaN
         13   -1    0    0    0    0  0.00000000000E+00  0.00000000000E+00  0.74505805969E-08  0.10566000000E+00  0.10566000000E+00 0. -1.
     999900   -1    0    0    0    0 -0.00000000000E+00 -0.00000000000E+00 -0.74505805969E-08  0.93827000000E+00  0.93827000000E+00 0.  1.
     999902    2    1    2    0    0 -0.49865840153E-02 -0.99540964416E-02 -0.20452511348E-01  0.10206436247E+01  0.10203779463E+01 0.  0.
     999903    2    3    3    0    0 -0.12219675672E+00 -0.44748488492E-01 -0.11334656627E-01  0.13214375995E+00  0.19975592068E-01 0.  0.
         14    1    1    2    0    0  0.49865840153E-02  0.99540964416E-02  0.20452511348E-01  0.23286375341E-01  0.00000000000E+00 0. -1.
     999901    1    3    3    0    0  0.11721017271E+00  0.34794392050E-01 -0.91178547206E-02  0.88849986470E+00  0.88000000000E+00 0.  1.
        -11    1    4    4    0    0 -0.65048115522E-02 -0.66118424704E-02 -0.39780469252E-02  0.10105197303E-01  0.51100000000E-03 0.  1.
         11    1    4    4    0    0 -0.11569194517E+00 -0.38136646021E-01 -0.73566097019E-02  0.12203856265E+00  0.51100000000E-03 0. -1.
</event>
<event>
 8    1  0.1101883E+005  0.1043930E+01  0.7957747E-01            NaN
         13   -1    0    0    0    0  0.00000000000E+00  0.00000000000E+00  0.74505805969E-08  0.10566000000E+00  0.10566000000E+00 0.  1.
     999900   -1    0    0    0    0 -0.00000000000E+00 -0.00000000000E+00 -0.74505805969E-08  0.93827000000E+00  0.93827000000E+00 0.  1.
     999902    2    1    2    0    0  0.43833215625E-02 -0.41114592929E-02 -0.23496849997E-01  0.10196767618E+01  0.10193882866E+01 0.  0.
     999903    2    3    3    0    0  0.28067352565E-01  0.98210695866E-01 -0.80671507675E-01  0.13158909816E+00  0.19356692397E-01 0.  0.
         14    1    1    2    0    0 -0.43833215625E-02  0.41114592929E-02  0.23496849997E-01  0.24253238242E-01  0.00000000000E+00 0.  1.
     999901    1    3    3    0    0 -0.23684031003E-01 -0.10232215516E+00  0.57174657678E-01  0.88808766360E+00  0.88000000000E+00 0. -1.
        -11    1    4    4    0    0  0.15733676728E-01  0.70549694217E-01 -0.46618528060E-01  0.86013697845E-01  0.51100000000E-03 0.  1.
         11    1    4    4    0    0  0.12333675838E-01  0.27661001649E-01 -0.34052979614E-01  0.45575400311E-01  0.51100000000E-03 0. -1.
</event>
<event>
 8    1  0.1101883E+005  0.1043930E+01  0.7957747E-01            NaN
         13   -1    0    0    0    0  0.00000000000E+00  0.00000000000E+00  0.74505805969E-08  0.10566000000E+00  0.10566000000E+00 0.  1.
     999900   -1    0    0    0    0 -0.00000000000E+00 -0.00000000000E+00 -0.74505805969E-08  0.93827000000E+00  0.93827000000E+00 0. -1.
     999902    2    1    2    0    0  0.22385356916E-01  0.55965639824E-02  0.10775932911E-01  0.10184634246E+01  0.10181449802E+01 0.  0.
     999903    2    3    3    0    0  0.17046432999E-02 -0.12586311002E+00  0.37526485821E-02  0.12843046772E+00  0.25216550025E-01 0.  0.
         14    1    1    2    0    0 -0.22385356916E-01 -0.55965639824E-02 -0.10775932911E-01  0.25466575404E-01  0.00000000000E+00 0. -1.
     999901    1    3    3    0    0  0.20680713617E-01  0.13145967400E+00  0.70232843291E-02  0.89003295688E+00  0.88000000000E+00 0. -1.
        -11    1    4    4    0    0 -0.22802244798E-02 -0.41285032937E-01 -0.10261053883E-01  0.42605207617E-01  0.51100000000E-03 0.  1.
         11    1    4    4    0    0  0.39848677797E-02 -0.84578077080E-01  0.14013702465E-01  0.85825260102E-01  0.51100000000E-03 0. -1.
</event>
<event>
 8    1  0.1101883E+005  0.1043930E+01  0.7957747E-01            NaN
         13   -1    0    0    0    0  0.00000000000E+00  0.00000000000E+00  0.74505805969E-08  0.10566000000E+00  0.10566000000E+00 0.  1.
     999900   -1    0    0    0    0 -0.00000000000E+00 -0.00000000000E+00 -0.74505805969E-08  0.93827000000E+00  0.93827000000E+00 0.  1.
     999902    2    1    2    0    0 -0.12629065530E-01  0.16829023208E-01  0.93234401397E-02  0.10209161812E+01  0.10206567558E+01 0.  0.
     999903    2    3    3    0    0 -0.19061195862E-02 -0.89888642370E-01 -0.90410571160E-01  0.12881163874E+00  0.18296600212E-01 0.  0.
         14    1    1    2    0    0  0.12629065530E-01 -0.16829023208E-01 -0.93234401397E-02  0.23013818769E-01  0.00000000000E+00 0. -1.
     999901    1    3    3    0    0 -0.10722945944E-01  0.10671766558E+00  0.99734011300E-01  0.89210454249E+00  0.88000000000E+00 0. -1.
        -11    1    4    4    0    0 -0.79053429905E-02 -0.56391874378E-01 -0.64474516328E-01  0.86021871175E-01  0.51100000000E-03 0.  1.
         11    1    4    4    0    0  0.59992234043E-02 -0.33496767992E-01 -0.25936054833E-01  0.42789767569E-01  0.51100000000E-03 0. -1.
</event>
<event>
 8    1  0.1101883E+005  0.1043930E+01  0.7957747E-01            NaN
         13   -1    0    0    0    0  0.00000000000E+00  0.00000000000E+00  0.74505805969E-08  0.10566000000E+00  0.10566000000E+00 0. -1.
     999900   -1    0    0    0    0 -0.00000000000E+00 -0.00000000000E+00 -0.74505805969E-08  0.93827000000E+00  0.93827000000E+00 0. -1.
     999902    2    1    2    0    0  0.15406355387E-01 -0.45351542828E-03 -0.18314860033E-01  0.10199926743E+01  0.10197117534E+01 0.  0.
     999903    2    3    3    0    0  0.20269398774E-01 -0.11995519099E+00  0.41129345067E-01  0.12991519838E+00  0.19652973676E-01 0.  0.
         14    1    1    2    0    0 -0.15406355387E-01  0.45351542828E-03  0.18314860033E-01  0.23937325677E-01  0.00000000000E+00 0.  1.
     999901    1    3    3    0    0 -0.48630433871E-02  0.11950167556E+00 -0.59444205099E-01  0.89007747594E+00  0.88000000000E+00 0. -1.
        -11    1    4    4    0    0  0.32159260884E-02 -0.75459537052E-01  0.23436747837E-01  0.79082401221E-01  0.51100000000E-03 0. -1.
         11    1    4    4    0    0  0.17053472686E-01 -0.44495653935E-01  0.17692597229E-01  0.50832797164E-01  0.51100000000E-03 0.  1.
</event>
<event>
 8    1  0.1101883E+005  0.1043930E+01  0.7957747E-01            NaN
         13   -1    0    0    0    0  0.00000000000E+00  0.00000000000E+00  0.74505805969E-08  0.10566000000E+00  0.10566000000E+00 0. -1.
     999900   -1    0    0    0    0 -0.00000000000E+00 -0.00000000000E+00 -0.74505805969E-08  0.93827000000E+00  0.93827000000E+00 0. -1.
     999902    2    1    2    0    0 -0.56746303057E-02 -0.21085773914E-01  0.86004606843E-02  0.10204613142E+01  0.10201914107E+01 0.  0.
     999903    2    3    3    0    0  0.11944988559E-01 -0.76143817219E-01  0.10656778110E+00  0.13313981946E+00  0.20711250691E-01 0.  0.
         14    1    1    2    0    0  0.56746303057E-02  0.21085773914E-01 -0.86004606843E-02  0.23468685831E-01  0.00000000000E+00 0.  1.
     999901    1    3    3    0    0 -0.17619618865E-01  0.55058043305E-01 -0.97967320416E-01  0.88732149471E+00  0.88000000000E+00 0. -1.
        -11    1    4    4    0    0  0.27907705397E-02 -0.59876629115E-01  0.90238840707E-01  0.10833424485E+00  0.51100000000E-03 0. -1.
         11    1    4    4    0    0  0.91542180198E-02 -0.16267188103E-01  0.16328940394E-01  0.24805574610E-01  0.51100000000E-03 0.  1.
</event>
<event>
 8    1  0.1101883E+005  0.1043930E+01  0.7957747E-01            NaN
         13   -1    0    0    0    0  0.00000000000E+00  0.00000000000E+00  0.74505805969E-08  0.10566000000E+00  0.10566000000E+00 0. -1.
     999900   -1    0    0    0    0 -0.00000000000E+00 -0.00000000000E+00 -0.74505805969E-08  0.93827000000E+00  0.93827000000E+00 0.  1.
     999902    2    1    2    0    0 -0.41712705845E-02  0.76598243270E-02  0.22345706234E-01  0.10199424408E+01  0.10196603256E+01 0.  0.
     999903    2    3    3    0    0  0.50339752954E-01 -0.10402771921E+00 -0.51702439816E-01  0.12813041637E+00  0.19707973652E-01 0.  0.
         14    1    1    2    0    0  0.41712705845E-02 -0.76598243270E-02 -0.22345706234E-01  0.23987559153E-01  0.00000000000E+00 0.  1.
     999901    1    3    3    0    0 -0.54511023539E-01  0.11168754353E+00  0.74048146050E-01  0.89181202448E+00  0.88000000000E+00 0. -1.
        -11    1    4    4    0    0  0.27702466542E-01 -0.71156139762E-01 -0.26044487551E-01  0.80679609141E-01  0.51100000000E-03 0.  1.
         11    1    4    4    0    0  0.22637286412E-01 -0.32871579445E-01 -0.25657952265E-01  0.47450807230E-01  0.51100000000E-03 0. -1.
</event>
<event>
 8    1  0.1101883E+005  0.1043930E+01  0.7957747E-01            NaN
         13   -1    0    0    0    0  0.00000000000E+00  0.00000000000E+00  0.74505805969E-08  0.10566000000E+00  0.10566000000E+00 0.  1.
     999900   -1    0    0    0    0 -0.00000000000E+00 -0.00000000000E+00 -0.74505805969E-08  0.93827000000E+00  0.93827000000E+00 0. -1.
     999902    2    1    2    0    0 -0.13229328988E-01  0.42878740163E-02  0.19055487795E-01  0.10203394802E+01  0.10200667342E+01 0.  0.
     999903    2    3    3    0    0  0.50615214300E-01 -0.25622380687E-01 -0.11274201598E+00  0.12773579937E+00  0.19679074199E-01 0.  0.
         14    1    1    2    0    0  0.13229328988E-01 -0.42878740163E-02 -0.19055487795E-01  0.23590519794E-01  0.00000000000E+00 0. -1.
     999901    1    3    3    0    0 -0.63844543288E-01  0.29910254703E-01  0.13179750378E+00  0.89260368084E+00  0.88000000000E+00 0.  1.
        -11    1    4    4    0    0  0.47168816571E-01 -0.18513196238E-01 -0.85723138010E-01  0.99580887739E-01  0.51100000000E-03 0. -1.
         11    1    4    4    0    0  0.34463977286E-02 -0.71091844490E-02 -0.27018877974E-01  0.28154911629E-01  0.51100000000E-03 0.  1.
</event>
<event>
 8    1  0.1101883E+005  0.1043930E+01  0.7957747E-01            NaN
         13   -1    0    0    0    0  0.00000000000E+00  0.00000000000E+00  0.74505805969E-08  0.10566000000E+00  0.10566000000E+00 0. -1.
     999900   -1    0    0    0    0 -0.00000000000E+00 -0.00000000000E+00 -0.74505805969E-08  0.93827000000E+00  0.93827000000E+00 0. -1.
     999902    2    1    2    0    0  0.21919372233E-01 -0.55224834632E-02  0.78771272524E-02  0.10199924597E+01  0.10197115337E+01 0.  0.
     999903    2    3    3    0    0  0.10737034113E+00 -0.19864582164E-01  0.73697936946E-01  0.13329073821E+00  0.20298847321E-01 0.  0.
         14    1    1    2    0    0 -0.21919372233E-01  0.55224834632E-02 -0.78771272524E-02  0.23937540317E-01  0.00000000000E+00 0.  1.
     999901    1    3    3    0    0 -0.85450968897E-01  0.14342098701E-01 -0.65820809694E-01  0.88670172148E+00  0.88000000000E+00 0. -1.
        -11    1    4    4    0    0  0.47392415627E-01  0.13929030837E-02  0.32434712415E-01  0.57447827882E-01  0.51100000000E-03 0.  1.
         11    1    4    4    0    0  0.59977925503E-01 -0.21257485247E-01  0.41263224532E-01  0.75842910324E-01  0.51100000000E-03 0. -1.
</event>
<event>
 8    1  0.1101883E+005  0.1043930E+01  0.7957747E-01            NaN
         13   -1    0    0    0    0  0.00000000000E+00  0.00000000000E+00  0.74505805969E-08  0.10566000000E+00  0.10566000000E+00 0. -1.
     999900   -1    0    0    0    0 -0.00000000000E+00 -0.00000000000E+00 -0.74505805969E-08  0.93827000000E+00  0.93827000000E+00 0.  1.
     999902    2    1    2    0    0  0.19995085362E-01  0.10365718347E-01  0.71333714527E-02  0.10203050864E+01  0.10200315352E+01 0.  0.
     999903    2    3    3    0    0 -0.30286595418E-01 -0.12320058148E+00 -0.75880782960E-02  0.12868581507E+00  0.20169257034E-01 0.  0.
         14    1    1    2    0    0 -0.19995085362E-01 -0.10365718347E-01 -0.71333714527E-02  0.23624913625E-01  0.00000000000E+00 0.  1.
     999901    1    3    3    0    0  0.50281680781E-01  0.13356629983E+00  0.14721449749E-01  0.89161927130E+00  0.88000000000E+00 0.  1.
        -11    1    4    4    0    0 -0.27073303999E-02 -0.26736101155E-01 -0.90017419891E-02  0.28345038767E-01  0.51100000000E-03 0. -1.
         11    1    4    4    0    0 -0.27579265018E-01 -0.96464480328E-01  0.14136636931E-02  0.10034077631E+00  0.51100000000E-03 0.  1.
</event>
<event>
 8    1  0.1101883E+005  0.1043930E+01  0.7957747E-01            NaN
         13   -1    0    0    0    0  0.00000000000E+00  0.00000000000E+00  0.74505805969E-08  0.10566000000E+00  0.10566000000E+00 0.  1.
     999900   -1    0    0    0    0 -0.00000000000E+00 -0.00000000000E+00 -0.74505805969E-08  0.93827000000E+00  0.93827000000E+00 0. -1.
     999902    2    1    2    0    0  0.69617656508E-02 -0.11890432049E-01  0.18378556198E-01  0.10209600221E+01  0.10207015954E+01 0.  0.
     999903    2    3    3    0    0  0.44451810385E-01 -0.28557720447E-02  0.12455944136E+00  0.13373879329E+00  0.19669558132E-01 0.  0.
         14    1    1    2    0    0 -0.69617656508E-02  0.11890432049E-01 -0.18378556198E-01  0.22969977867E-01  0.00000000000E+00 0. -1.
     999901    1    3    3    0    0 -0.37490044735E-01 -0.90346600038E-02 -0.10618088517E+00  0.88722122884E+00  0.88000000000E+00 0. -1.
        -11    1    4    4    0    0  0.32165455108E-01  0.65430197857E-02  0.92160424541E-01  0.97832676457E-01  0.51100000000E-03 0. -1.
         11    1    4    4    0    0  0.12286355277E-01 -0.93987918304E-02  0.32399016823E-01  0.35906116832E-01  0.51100000000E-03 0.  1.
</event>
<event>
 8    1  0.1101883E+005  0.1043930E+01  0.7957747E-01            NaN
         13   -1    0    0    0    0  0.00000000000E+00  0.00000000000E+00  0.74505805969E-08  0.10566000000E+00  0.10566000000E+00 0. -1.
     999900   -1    0    0    0    0 -0.00000000000E+00 -0.00000000000E+00 -0.74505805969E-08  0.93827000000E+00  0.93827000000E+00 0.  1.
     999902    2    1    2    0    0 -0.44166442865E-02 -0.10953506749E-01 -0.22363380610E-01  0.10186395502E+01  0.10183255503E+01 0.  0.
     999903    2    3    3    0    0 -0.10995650750E+00  0.62787307333E-01  0.10150856990E-01  0.12867688471E+00  0.20543155982E-01 0.  0.
         14    1    1    2    0    0  0.44166442865E-02  0.10953506749E-01  0.22363380610E-01  0.25290449762E-01  0.00000000000E+00 0. -1.
     999901    1    3    3    0    0  0.10553986321E+00 -0.73740814082E-01 -0.32514237600E-01  0.88996266553E+00  0.88000000000E+00 0.  1.
        -11    1    4    4    0    0 -0.78044422937E-01  0.54172853536E-01  0.42778559553E-02  0.95100952595E-01  0.51100000000E-03 0. -1.
         11    1    4    4    0    0 -0.31912084561E-01  0.86144537968E-02  0.58730010348E-02  0.33575932115E-01  0.51100000000E-03 0.  1.
</event>
<event>
 8    1  0.1101883E+005  0.1043930E+01  0.7957747E-01            NaN
         13   -1    0    0    0    0  0.00000000000E+00  0.00000000000E+00  0.74505805969E-08  0.10566000000E+00  0.10566000000E+00 0.  1.
     999900   -1    0    0    0    0 -0.00000000000E+00 -0.00000000000E+00 -0.74505805969E-08  0.93827000000E+00  0.93827000000E+00 0. -1.
     999902    2    1    2    0    0  0.17202382408E-01 -0.35416138639E-02  0.16681615290E-01  0.10197072570E+01  0.10194195156E+01 0.  0.
     999903    2    3    3    0    0 -0.18688577553E-01  0.61642225286E-01  0.11225651125E+00  0.13141020386E+00  0.22761601285E-01 0.  0.
         14    1    1    2    0    0 -0.17202382408E-01  0.35416138639E-02 -0.16681615290E-01  0.24222742990E-01  0.00000000000E+00 0. -1.
     999901    1    3    3    0    0  0.35890959961E-01 -0.65183839150E-01 -0.95574895955E-01  0.88829705315E+00  0.88000000000E+00 0. -1.
        -11    1    4    4    0    0 -0.22363712977E-01  0.47773636249E-01  0.97292190947E-01  0.11067288520E+00  0.51100000000E-03 0. -1.
         11    1    4    4    0    0  0.36751354237E-02  0.13868589037E-01  0.14964320298E-01  0.20737318661E-01  0.51100000000E-03 0.  1.
</event>
<event>
 8    1  0.1101883E+005  0.1043930E+01  0.7957747E-01            NaN
         13   -1    0    0    0    0  0.00000000000E+00  0.00000000000E+00  0.74505805969E-08  0.10566000000E+00  0.10566000000E+00 0. -1.
     999900   -1    0    0    0    0 -0.00000000000E+00 -0.00000000000E+00 -0.74505805969E-08  0.93827000000E+00  0.93827000000E+00 0.  1.
     999902    2    1    2    0    0  0.97495223685E-02 -0.16313502936E-01 -0.10041562677E-01  0.10224354299E+01  0.10222094657E+01 0.  0.
     999903    2    3    3    0    0  0.56430094069E-03  0.11079444666E+00 -0.67765625642E-01  0.13138387883E+00  0.19844791593E-01 0.  0.
         14    1    1    2    0    0 -0.97495223685E-02  0.16313502936E-01  0.10041562677E-01  0.21494570139E-01  0.00000000000E+00 0. -1.
     999901    1    3    3    0    0  0.91852214278E-02 -0.12710794959E+00  0.57724062965E-01  0.89105155103E+00  0.88000000000E+00 0.  1.
        -11    1    4    4    0    0  0.52280687345E-02  0.66066049819E-01 -0.30404810586E-01  0.72916179749E-01  0.51100000000E-03 0.  1.
         11    1    4    4    0    0 -0.46637677938E-02  0.44728396837E-01 -0.37360815056E-01  0.58467699085E-01  0.51100000000E-03 0. -1.
</event>
<event>
 8    1  0.1101883E+005  0.1043930E+01  0.7957747E-01            NaN
         13   -1    0    0    0    0  0.00000000000E+00  0.00000000000E+00  0.74505805969E-08  0.10566000000E+00  0.10566000000E+00 0.  1.
     999900   -1    0    0    0    0 -0.00000000000E+00 -0.00000000000E+00 -0.74505805969E-08  0.93827000000E+00  0.93827000000E+00 0. -1.
     999902    2    1    2    0    0  0.15987153210E-01 -0.14122534792E-01  0.27215042578E-02  0.10224255437E+01  0.10221993694E+01 0.  0.
     999903    2    3    3    0    0 -0.67448663599E-01 -0.86450880252E-01  0.72058407739E-01  0.13281859042E+00  0.20622485726E-01 0.  0.
         14    1    1    2    0    0 -0.15987153210E-01  0.14122534792E-01 -0.27215042578E-02  0.21504456332E-01  0.00000000000E+00 0. -1.
     999901    1    3    3    0    0  0.83435816809E-01  0.72328345460E-01 -0.69336903481E-01  0.88960695325E+00  0.88000000000E+00 0. -1.
        -11    1    4    4    0    0 -0.29653415205E-01 -0.25641602717E-01  0.33078957815E-01  0.51296153797E-01  0.51100000000E-03 0. -1.
         11    1    4    4    0    0 -0.37795248394E-01 -0.60809277536E-01  0.38979449923E-01  0.81522436623E-01  0.51100000000E-03 0.  1.
</event>
<event>
 8    1  0.1101883E+005  0.1043930E+01  0.7957747E-01            NaN
         13   -1    0    0    0    0  0.00000000000E+00  0.00000000000E+00  0.74505805969E-08  0.10566000000E+00  0.10566000000E+00 0.  1.
     999900   -1    0    0    0    0 -0.00000000000E+00 -0.00000000000E+00 -0.74505805969E-08  0.93827000000E+00  0.93827000000E+00 0.  1.
     999902    2    1    2    0    0  0.12098524449E-01  0.14557301425E-01  0.11962172566E-01  0.10215384192E+01  0.10212929839E+01 0.  0.
     999903    2    3    3    0    0 -0.57642080758E-02  0.13069242833E+00  0.21792906344E-01  0.13367407807E+00  0.16735933237E-01 0.  0.
         14    1    1    2    0    0 -0.12098524449E-01 -0.14557301425E-01 -0.11962172566E-01  0.22391580808E-01  0.00000000000E+00 0. -1.
     999901    1    3    3    0    0  0.17862732524E-01 -0.11613512691E+00 -0.98307337787E-02  0.88786434113E+00  0.88000000000E+00 0. -1.
        -11    1    4    4    0    0 -0.74075394505E-02  0.10316697026E+00  0.10842893321E-01  0.10400060024E+00  0.51100000000E-03 0.  1.
         11    1    4    4    0    0  0.16433313746E-02  0.27525458074E-01  0.10950013024E-01  0.29673477828E-01  0.51100000000E-03 0. -1.
</event>
<event>
 8    1  0.1101883E+005  0.1043930E+01  0.7957747E-01            NaN
         13   -1    0    0    0    0  0.00000000000E+00  0.00000000000E+00  0.74505805969E-08  0.10566000000E+00  0.10566000000E+00 0.  1.
     999900   -1    0    0    0    0 -0.00000000000E+00 -0.00000000000E+00 -0.74505805969E-08  0.93827000000E+00  0.93827000000E+00 0. -1.
     999902    2    1    2    0    0 -0.63872581736E-02  0.22182992671E-01 -0.65730884923E-02  0.10199281725E+01  0.10196457176E+01 0.  0.
     999903    2    3    3    0    0 -0.51491810414E-01 -0.63100750533E-01  0.97210594520E-01  0.12859277528E+00  0.21285932191E-01 0.  0.
         14    1    1    2    0    0  0.63872581736E-02 -0.22182992671E-01  0.65730884923E-02  0.24001827496E-01  0.00000000000E+00 0.  1.
     999901    1    3    3    0    0  0.45104552240E-01  0.85283743204E-01 -0.10378368301E+00  0.89133539723E+00  0.88000000000E+00 0. -1.
        -11    1    4    4    0    0 -0.11345754128E-01 -0.30126709813E-01  0.35564217268E-01  0.47973111758E-01  0.51100000000E-03 0. -1.
         11    1    4    4    0    0 -0.40146056286E-01 -0.32974040720E-01  0.61646377252E-01  0.80619663520E-01  0.51100000000E-03 0.  1.
</event>
<event>
 8    1  0.1101883E+005  0.1043930E+01  0.7957747E-01            NaN
         13   -1    0    0    0    0  0.00000000000E+00  0.00000000000E+00  0.74505805969E-08  0.10566000000E+00  0.10566000000E+00 0. -1.
     999900   -1    0    0    0    0 -0.00000000000E+00 -0.00000000000E+00 -0.74505805969E-08  0.93827000000E+00  0.93827000000E+00 0.  1.
     999902    2    1    2    0    0 -0.10737520663E-01 -0.21311193191E-01  0.34899623377E-02  0.10198127625E+01  0.10195275521E+01 0.  0.
     999903    2    3    3    0    0 -0.11605042502E+00 -0.42267722149E-01 -0.42318293086E-01  0.13210313649E+00  0.20152897026E-01 0.  0.
         14    1    1    2    0    0  0.10737520663E-01  0.21311193191E-01 -0.34899623377E-02  0.24117237452E-01  0.00000000000E+00 0.  1.
     999901    1    3    3    0    0  0.10531290435E+00  0.20956528958E-01  0.45808255424E-01  0.88770962606E+00  0.88000000000E+00 0. -1.
        -11    1    4    4    0    0 -0.64250240308E-01 -0.13111858286E-01 -0.25096384927E-01  0.70214698352E-01  0.51100000000E-03 0.  1.
         11    1    4    4    0    0 -0.51800184710E-01 -0.29155863863E-01 -0.17221908159E-01  0.61888438138E-01  0.51100000000E-03 0. -1.
</event>
<event>
 8    1  0.1101883E+005  0.1043930E+01  0.7957747E-01            NaN
         13   -1    0    0    0    0  0.00000000000E+00  0.00000000000E+00  0.74505805969E-08  0.10566000000E+00  0.10566000000E+00 0. -1.
     999900   -1    0    0    0    0 -0.00000000000E+00 -0.00000000000E+00 -0.74505805969E-08  0.93827000000E+00  0.93827000000E+00 0.  1.
     999902    2    1    2    0    0  0.20562680804E-01 -0.69063687808E-02 -0.99384452311E-02  0.10200701076E+01  0.10197910227E+01 0.  0.
     999903    2    3    3    0    0 -0.42369774105E-01  0.11968309022E+00 -0.15239351098E-02  0.12874738883E+00  0.21314969155E-01 0.  0.
         14    1    1    2    0    0 -0.20562680804E-01  0.69063687808E-02  0.99384452311E-02  0.23859892397E-01  0.00000000000E+00 0. -1.
     999901    1    3    3    0    0  0.62932454909E-01 -0.12658945901E+00 -0.84145101213E-02  0.89132271877E+00  0.88000000000E+00 0. -1.
        -11    1    4    4    0    0 -0.13814922764E-01  0.17907327183E-01  0.36438266225E-02  0.22914254325E-01  0.51100000000E-03 0. -1.
         11    1    4    4    0    0 -0.28554851341E-01  0.10177576304E+00 -0.51677617323E-02  0.10583313451E+00  0.51100000000E-03 0.  1.
</event>
<event>
 8    1  0.1101883E+005  0.1043930E+01  0.7957747E-01            NaN
         13   -1    0    0    0    0  0.00000000000E+00  0.00000000000E+00  0.74505805969E-08  0.10566000000E+00  0.10566000000E+00 0. -1.
     999900   -1    0    0    0    0 -0.00000000000E+00 -0.00000000000E+00 -0.74505805969E-08  0.93827000000E+00  0.93827000000E+00 0. -1.
     999902    2    1    2    0    0 -0.56468876180E-02 -0.19248127511E-01  0.12059148776E-01  0.10205248548E+01  0.10202564278E+01 0.  0.
     999903    2    3    3    0    0 -0.11508784492E+00  0.56402749990E-01 -0.12124999372E-01  0.13019612258E+00  0.19430194825E-01 0.  0.
         14    1    1    2    0    0  0.56468876180E-02  0.19248127511E-01 -0.12059148776E-01  0.23405145196E-01  0.00000000000E+00 0.  1.
     999901    1    3    3    0    0  0.10944095730E+00 -0.75650877501E-01  0.24184148148E-01  0.89032873222E+00  0.88000000000E+00 0.  1.
        -11    1    4    4    0    0 -0.87685231865E-01  0.51405365535E-01 -0.71393836023E-02  0.10189427566E+00  0.51100000000E-03 0.  1.
         11    1    4    4    0    0 -0.27402613052E-01  0.49973844546E-02 -0.49856157701E-02  0.28301846920E-01  0.51100000000E-03 0. -1.
</event>
<event>
 7    1  0.1440017E+005  0.1043930E+01  0.7957747E-01            NaN
         13   -1    0    0    0    0  0.00000000000E+00  0.00000000000E+00  0.74505805969E-08  0.10566000000E+00  0.10566000000E+00 0.  1.
     999900   -1    0    0    0    0 -0.00000000000E+00 -0.00000000000E+00 -0.74505805969E-08  0.93827000000E+00  0.93827000000E+00 0.  1.
     999903    2    1    2    0    0 -0.73567247770E-01 -0.85004339090E-02  0.71888846503E-01  0.10574038233E+00  0.22991843843E-01 0.  0.
         14    1    1    2    0    0  0.31320768956E-01  0.34814271872E-01  0.22106749060E-01  0.51785446295E-01  0.00000000000E+00 0.  1.
     999901    1    1    2    0    0  0.42246478814E-01 -0.26313837963E-01 -0.93995595563E-01  0.88640417137E+00  0.88000000000E+00 0.  1.
        -11    1    3    3    0    0 -0.20798643777E-01 -0.25617519211E-02  0.35960455715E-01  0.41624051366E-01  0.51100000000E-03 0. -1.
         11    1    3    3    0    0 -0.52768603993E-01 -0.59386819879E-02  0.35928390788E-01  0.64116330967E-01  0.51100000000E-03 0.  1.
</event>
<event>
 8    1  0.1101883E+005  0.1043930E+01  0.7957747E-01            NaN
         13   -1    0    0    0    0  0.00000000000E+00  0.00000000000E+00  0.74505805969E-08  0.10566000000E+00  0.10566000000E+00 0.  1.
     999900   -1    0    0    0    0 -0.00000000000E+00 -0.00000000000E+00 -0.74505805969E-08  0.93827000000E+00  0.93827000000E+00 0.  1.
     999902    2    1    2    0    0 -0.19032578106E-02 -0.20069511740E-01  0.10786356555E-01  0.10210662037E+01  0.10208101877E+01 0.  0.
     999903    2    3    3    0    0 -0.74829401298E-02 -0.13096209675E+00 -0.16090917086E-01  0.13368202194E+00  0.20122132099E-01 0.  0.
         14    1    1    2    0    0  0.19032578106E-02  0.20069511740E-01 -0.10786356555E-01  0.22863796262E-01  0.00000000000E+00 0. -1.
     999901    1    3    3    0    0  0.55796823192E-02  0.11089258501E+00  0.26877273641E-01  0.88738418180E+00  0.88000000000E+00 0. -1.
        -11    1    4    4    0    0  0.11598257078E-02 -0.43028565078E-01  0.34603207889E-02  0.43186080504E-01  0.51100000000E-03 0.  1.
         11    1    4    4    0    0 -0.86427658376E-02 -0.87933531669E-01 -0.19551237875E-01  0.90495941437E-01  0.51100000000E-03 0. -1.
</event>
<event>
 8    1  0.1101883E+005  0.1043930E+01  0.7957747E-01            NaN
         13   -1    0    0    0    0  0.00000000000E+00  0.00000000000E+00  0.74505805969E-08  0.10566000000E+00  0.10566000000E+00 0. -1.
     999900   -1    0    0    0    0 -0.00000000000E+00 -0.00000000000E+00 -0.74505805969E-08  0.93827000000E+00  0.93827000000E+00 0. -1.
     999902    2    1    2    0    0 -0.20198724937E-01 -0.92699994782E-03  0.14384894552E-01  0.10191152260E+01  0.10188130696E+01 0.  0.
     999903    2    3    3    0    0  0.12331400967E+00 -0.12338823692E-01  0.18895358357E-01  0.12740536342E+00  0.22726647544E-01 0.  0.
         14    1    1    2    0    0  0.20198724937E-01  0.92699994782E-03 -0.14384894552E-01  0.24814774012E-01  0.00000000000E+00 0.  1.
     999901    1    3    3    0    0 -0.14351273461E+00  0.11411823744E-01 -0.45104638047E-02  0.89170986257E+00  0.88000000000E+00 0.  1.
        -11    1    4    4    0    0  0.10685473179E+00 -0.12790585381E-01  0.23796610912E-01  0.11021829518E+00  0.51100000000E-03 0.  1.
         11    1    4    4    0    0  0.16459277889E-01  0.45176168911E-03 -0.49012525549E-02  0.17187068245E-01  0.51100000000E-03 0. -1.
</event>
<event>
 8    1  0.1101883E+005  0.1043930E+01  0.7957747E-01            NaN
         13   -1    0    0    0    0  0.00000000000E+00  0.00000000000E+00  0.74505805969E-08  0.10566000000E+00  0.10566000000E+00 0.  1.
     999900   -1    0    0    0    0 -0.00000000000E+00 -0.00000000000E+00 -0.74505805969E-08  0.93827000000E+00  0.93827000000E+00 0.  1.
     999902    2    1    2    0    0  0.15618737317E-01 -0.16910993034E-01 -0.10827680292E-01  0.10184905562E+01  0.10181727986E+01 0.  0.
     999903    2    3    3    0    0  0.54524561817E-01  0.10354890197E+00 -0.48225108937E-01  0.12864629052E+00  0.22997912738E-01 0.  0.
         14    1    1    2    0    0 -0.15618737317E-01  0.16910993034E-01  0.10827680292E-01  0.25439443808E-01  0.00000000000E+00 0.  1.
     999901    1    3    3    0    0 -0.38905824500E-01 -0.12045989501E+00  0.37397428645E-01  0.88984426568E+00  0.88000000000E+00 0. -1.
        -11    1    4    4    0    0  0.11594203968E-01  0.45815157807E-01 -0.21042790462E-01  0.51735040369E-01  0.51100000000E-03 0.  1.
         11    1    4    4    0    0  0.42930357849E-01  0.57733744167E-01 -0.27182318475E-01  0.76911250148E-01  0.51100000000E-03 0. -1.
</event>
<event>
 8    1  0.1101883E+005  0.1043930E+01  0.7957747E-01            NaN
         13   -1    0    0    0    0  0.00000000000E+00  0.00000000000E+00  0.74505805969E-08  0.10566000000E+00  0.10566000000E+00 0.  1.
     999900   -1    0    0    0    0 -0.00000000000E+00 -0.00000000000E+00 -0.74505805969E-08  0.93827000000E+00  0.93827000000E+00 0. -1.
     999902    2    1    2    0    0  0.21538457167E-01  0.14222679777E-02  0.84161486839E-02  0.10207619284E+01  0.10204989735E+01 0.  0.
     999903    2    3    3    0    0 -0.49254537439E-01 -0.65279992405E-01 -0.97799122910E-01  0.12905428373E+00  0.20071194305E-01 0.  0.
         14    1    1    2    0    0 -0.21538457167E-01 -0.14222679777E-02 -0.84161486839E-02  0.23168071608E-01  0.00000000000E+00 0.  1.
     999901    1    3    3    0    0  0.70792994606E-01  0.66702260383E-01  0.10621527159E+00  0.89170764466E+00  0.88000000000E+00 0.  1.
        -11    1    4    4    0    0 -0.38588734290E-01 -0.37637601245E-01 -0.55139030212E-01  0.77111952480E-01  0.51100000000E-03 0. -1.
         11    1    4    4    0    0 -0.10665803149E-01 -0.27642391160E-01 -0.42660092699E-01  0.51942331252E-01  0.51100000000E-03 0.  1.
</event>
<event>
 8    1  0.1101883E+005  0.1043930E+01  0.7957747E-01            NaN
         13   -1    0    0    0    0  0.00000000000E+00  0.00000000000E+00  0.74505805969E-08  0.10566000000E+00  0.10566000000E+00 0.  1.
     999900   -1    0    0    0    0 -0.00000000000E+00 -0.00000000000E+00 -0.74505805969E-08  0.93827000000E+00  0.93827000000E+00 0.  1.
     999902    2    1    2    0    0 -0.78312239325E-02  0.16768712189E-01  0.13818100042E-01  0.10208332975E+01  0.10205719787E+01 0.  0.
     999903    2    3    3    0    0  0.12532472389E+00 -0.23689681026E-01  0.14143371774E-01  0.12989699574E+00  0.20142172941E-01 0.  0.
         14    1    1    2    0    0  0.78312239325E-02 -0.16768712189E-01 -0.13818100042E-01  0.23096702482E-01  0.00000000000E+00 0. -1.
     999901    1    3    3    0    0 -0.13315594783E+00  0.40458393215E-01 -0.32527173145E-03  0.89093630178E+00  0.88000000000E+00 0.  1.
        -11    1    4    4    0    0  0.98454389488E-01 -0.17069448308E-01  0.27417216821E-02  0.99962047967E-01  0.51100000000E-03 0.  1.
         11    1    4    4    0    0  0.26870334407E-01 -0.66202327182E-02  0.11401650091E-01  0.29934947773E-01  0.51100000000E-03 0. -1.
</event>
<event>
 7    1  0.1101883E+005  0.1043930E+01  0.7957747E-01            NaN
         13   -1    0    0    0    0  0.00000000000E+00  0.00000000000E+00  0.74505805969E-08  0.10566000000E+00  0.10566000000E+00 0.  1.
     999900   -1    0    0    0    0 -0.00000000000E+00 -0.00000000000E+00 -0.74505805969E-08  0.93827000000E+00  0.93827000000E+00 0. -1.
     999903    2    1    2    0    0 -0.61508298958E-01 -0.16260741137E-01 -0.94672966511E-01  0.11570775583E+00  0.19432746312E-01 0.  0.
         14    1    1    2    0    0  0.40452878106E-02 -0.39468306590E-01  0.17028906669E-02  0.39711603029E-01  0.00000000000E+00 0. -1.
     999901    1    1    2    0    0  0.57463011147E-01  0.55729047726E-01  0.92970075844E-01  0.88851064114E+00  0.88000000000E+00 0.  1.
        -11    1    3    3    0    0 -0.15261668506E-01  0.32275208800E-02 -0.30289755900E-01  0.34074416358E-01  0.51100000000E-03 0. -1.
         11    1    3    3    0    0 -0.46246630451E-01 -0.19488262017E-01 -0.64383210611E-01  0.81633339476E-01  0.51100000000E-03 0.  1.
</event>
<event>
 8    1  0.1101883E+005  0.1043930E+01  0.7957747E-01            NaN
         13   -1    0    0    0    0  0.00000000000E+00  0.00000000000E+00  0.74505805969E-08  0.10566000000E+00  0.10566000000E+00 0.  1.
     999900   -1    0    0    0    0 -0.00000000000E+00 -0.00000000000E+00 -0.74505805969E-08  0.93827000000E+00  0.93827000000E+00 0.  1.
     999902    2    1    2    0    0 -0.71852937419E-02  0.29654406847E-01  0.14419846193E-01  0.10101817518E+01  0.10096178621E+01 0.  0.
     999903    2    3    3    0    0  0.99658063194E-01 -0.21856078365E-01 -0.54627542056E-01  0.11954356779E+00  0.29951269225E-01 0.  0.
         14    1    1    2    0    0  0.71852937419E-02 -0.29654406847E-01 -0.14419846193E-01  0.33748248189E-01  0.00000000000E+00 0.  1.
     999901    1    3    3    0    0 -0.10684335694E+00  0.51510485213E-01  0.69047388249E-01  0.89063818402E+00  0.88000000000E+00 0. -1.
        -11    1    4    4    0    0  0.40685679826E-01 -0.22788356204E-01 -0.17294030336E-01  0.49739102602E-01  0.51100000000E-03 0.  1.
         11    1    4    4    0    0  0.58972383368E-01  0.93227783892E-03 -0.37333511720E-01  0.69804465190E-01  0.51100000000E-03 0. -1.
</event>
<event>
 8    1  0.1101883E+005  0.1043930E+01  0.7957747E-01            NaN
         13   -1    0    0    0    0  0.00000000000E+00  0.00000000000E+00  0.74505805969E-08  0.10566000000E+00  0.10566000000E+00 0. -1.
     999900   -1    0    0    0    0 -0.00000000000E+00 -0.00000000000E+00 -0.74505805969E-08  0.93827000000E+00  0.93827000000E+00 0. -1.
     999902    2    1    2    0    0  0.11185467093E-01 -0.23165355720E-02 -0.20207174959E-01  0.10207176987E+01  0.10204537273E+01 0.  0.
     999903    2    3    3    0    0 -0.42000833062E-01  0.12143059632E+00  0.36966680455E-02  0.13014848249E+00  0.20383876963E-01 0.  0.
         14    1    1    2    0    0 -0.11185467093E-01  0.23165355720E-02  0.20207174959E-01  0.23212301286E-01  0.00000000000E+00 0. -1.
     999901    1    3    3    0    0  0.53186300156E-01 -0.12374713189E+00 -0.23903843004E-01  0.89056921622E+00  0.88000000000E+00 0.  1.
        -11    1    4    4    0    0 -0.83029235509E-02  0.52876466410E-01 -0.18339787940E-02  0.53558228488E-01  0.51100000000E-03 0. -1.
         11    1    4    4    0    0 -0.33697909511E-01  0.68554129907E-01  0.55306468395E-02  0.76590254003E-01  0.51100000000E-03 0.  1.
</event>
<event>
 8    1  0.1270520E+005  0.1043930E+01  0.7957747E-01            NaN
         13   -1    0    0    0    0  0.00000000000E+00  0.00000000000E+00  0.74505805969E-08  0.10566000000E+00  0.10566000000E+00 0. -1.
     999900   -1    0    0    0    0 -0.00000000000E+00 -0.00000000000E+00 -0.74505805969E-08  0.93827000000E+00  0.93827000000E+00 0. -1.
     999902    2    1    2    0    0  0.95417048349E-02 -0.15202307100E-01  0.16736668753E-01  0.10193888029E+01  0.10190933525E+01 0.  0.
     999903    2    3    3    0    0  0.69417081232E-01 -0.65470290572E-01  0.90284464391E-01  0.13286682966E+00  0.19930373785E-01 0.  0.
         14    1    1    2    0    0 -0.95417048349E-02  0.15202307100E-01 -0.16736668753E-01  0.24541197062E-01  0.00000000000E+00 0.  1.
     999901    1    3    3    0    0 -0.59875376397E-01  0.50267983472E-01 -0.73547795638E-01  0.88652197328E+00  0.88000000000E+00 0.  1.
        -11    1    4    4    0    0  0.25305278562E-01 -0.30937979240E-01  0.49214293949E-01  0.63402078297E-01  0.51100000000E-03 0. -1.
         11    1    4    4    0    0  0.44111802670E-01 -0.34532311332E-01  0.41070170442E-01  0.69464751362E-01  0.51100000000E-03 0.  1.
</event>
<event>
 8    1  0.1101883E+005  0.1043930E+01  0.7957747E-01            NaN
         13   -1    0    0    0    0  0.00000000000E+00  0.00000000000E+00  0.74505805969E-08  0.10566000000E+00  0.10566000000E+00 0. -1.
     999900   -1    0    0    0    0 -0.00000000000E+00 -0.00000000000E+00 -0.74505805969E-08  0.93827000000E+00  0.93827000000E+00 0. -1.
     999902    2    1    2    0    0 -0.10593146886E-01 -0.16834281955E-01 -0.10106865200E-01  0.10216195420E+01  0.10213759015E+01 0.  0.
     999903    2    3    3    0    0  0.64940872289E-01 -0.10652717112E+00  0.39297475789E-01  0.13246770387E+00  0.20929545784E-01 0.  0.
         14    1    1    2    0    0  0.10593146886E-01  0.16834281955E-01  0.10106865200E-01  0.22310457953E-01  0.00000000000E+00 0. -1.
     999901    1    3    3    0    0 -0.75534019175E-01  0.89692889160E-01 -0.49404340989E-01  0.88915183817E+00  0.88000000000E+00 0. -1.
        -11    1    4    4    0    0  0.16570361085E-01 -0.42708460169E-01  0.80912880664E-02  0.46522247367E-01  0.51100000000E-03 0. -1.
         11    1    4    4    0    0  0.48370511204E-01 -0.63818710946E-01  0.31206187723E-01  0.85945456506E-01  0.51100000000E-03 0.  1.
</event>
<event>
 8    1  0.1101883E+005  0.1043930E+01  0.7957747E-01            NaN
         13   -1    0    0    0    0  0.00000000000E+00  0.00000000000E+00  0.74505805969E-08  0.10566000000E+00  0.10566000000E+00 0. -1.
     999900   -1    0    0    0    0 -0.00000000000E+00 -0.00000000000E+00 -0.74505805969E-08  0.93827000000E+00  0.93827000000E+00 0. -1.
     999902    2    1    2    0    0 -0.19338820978E-01 -0.12490976450E-01  0.46587294646E-02  0.10204413166E+01  0.10201709476E+01 0.  0.
     999903    2    3    3    0    0 -0.10206708547E+00  0.66253484581E-01 -0.46388456678E-01  0.13159348307E+00  0.18914061366E-01 0.  0.
         14    1    1    2    0    0  0.19338820978E-01  0.12490976450E-01 -0.46587294646E-02  0.23488683440E-01  0.00000000000E+00 0.  1.
     999901    1    3    3    0    0  0.82728264494E-01 -0.78744461031E-01  0.51047186143E-01  0.88884783349E+00  0.88000000000E+00 0. -1.
        -11    1    4    4    0    0 -0.81042807533E-01  0.59343736528E-01 -0.33034716923E-01  0.10574104861E+00  0.51100000000E-03 0.  1.
         11    1    4    4    0    0 -0.21024277939E-01  0.69097480530E-02 -0.13353739755E-01  0.25852434459E-01  0.51100000000E-03 0. -1.
</event>
<event>
 7    1  0.1101883E+005  0.1043930E+01  0.7957747E-01            NaN
         13   -1    0    0    0    0  0.00000000000E+00  0.00000000000E+00  0.74505805969E-08  0.10566000000E+00  0.10566000000E+00 0.  1.
     999900   -1    0    0    0    0 -0.00000000000E+00 -0.00000000000E+00 -0.74505805969E-08  0.93827000000E+00  0.93827000000E+00 0.  1.
     999903    2    1    2    0    0 -0.47630959166E-01 -0.50267548667E-01 -0.61707514890E-01  0.94912566242E-01  0.20125683010E-01 0.  0.
         14    1    1    2    0    0 -0.28845309927E-02 -0.48287088135E-01  0.38413662412E-01  0.61770323453E-01  0.00000000000E+00 0.  1.
     999901    1    1    2    0    0  0.50515490159E-01  0.98554636802E-01  0.23293852477E-01  0.88724711030E+00  0.88000000000E+00 0. -1.
        -11    1    3    3    0    0 -0.29440732133E-01 -0.35004727692E-01 -0.27844068171E-01  0.53550358754E-01  0.51100000000E-03 0.  1.
         11    1    3    3    0    0 -0.18190227033E-01 -0.15262820976E-01 -0.33863446719E-01  0.41362207488E-01  0.51100000000E-03 0. -1.
</event>
<event>
 8    1  0.1101883E+005  0.1043930E+01  0.7957747E-01            NaN
         13   -1    0    0    0    0  0.00000000000E+00  0.00000000000E+00  0.74505805969E-08  0.10566000000E+00  0.10566000000E+00 0. -1.
     999900   -1    0    0    0    0 -0.00000000000E+00 -0.00000000000E+00 -0.74505805969E-08  0.93827000000E+00  0.93827000000E+00 0. -1.
     999902    2    1    2    0    0 -0.71927876194E-03  0.21872229068E-01 -0.62119254634E-02  0.10211813784E+01  0.10209279641E+01 0.  0.
     999903    2    3    3    0    0 -0.25707718475E-01 -0.10421334253E+00 -0.67797110423E-01  0.12971364007E+00  0.26605876951E-01 0.  0.
         14    1    1    2    0    0  0.71927876194E-03 -0.21872229068E-01  0.62119254634E-02  0.22748621592E-01  0.00000000000E+00 0. -1.
     999901    1    3    3    0    0  0.24988439713E-01  0.12608557160E+00  0.61585184960E-01  0.89146773833E+00  0.88000000000E+00 0.  1.
        -11    1    4    4    0    0  0.29347809512E-02 -0.36095524710E-01 -0.16776819456E-01  0.39915193040E-01  0.51100000000E-03 0.  1.
         11    1    4    4    0    0 -0.28642499427E-01 -0.68117817822E-01 -0.51020290967E-01  0.89798447034E-01  0.51100000000E-03 0. -1.
</event>
<event>
 8    1  0.1101883E+005  0.1043930E+01  0.7957747E-01            NaN
         13   -1    0    0    0    0  0.00000000000E+00  0.00000000000E+00  0.74505805969E-08  0.10566000000E+00  0.10566000000E+00 0.  1.
     999900   -1    0    0    0    0 -0.00000000000E+00 -0.00000000000E+00 -0.74505805969E-08  0.93827000000E+00  0.93827000000E+00 0.  1.
     999902    2    1    2    0    0 -0.57064885162E-02 -0.19233857513E-01  0.11858865261E-01  0.10206246793E+01  0.10203585635E+01 0.  0.
     999903    2    3    3    0    0  0.86786222472E-01 -0.87394990181E-01 -0.42083957677E-01  0.13151800984E+00  0.18873121074E-01 0.  0.
         14    1    1    2    0    0  0.57064885162E-02  0.19233857513E-01 -0.11858865261E-01  0.23305320665E-01  0.00000000000E+00 0. -1.
     999901    1    3    3    0    0 -0.92492710988E-01  0.68161132668E-01  0.53942822939E-01  0.88910666949E+00  0.88000000000E+00 0. -1.
        -11    1    4    4    0    0  0.61939279020E-01 -0.71895559177E-01 -0.36645483303E-01  0.10172806045E+00  0.51100000000E-03 0.  1.
         11    1    4    4    0    0  0.24846943452E-01 -0.15499431004E-01 -0.54384743746E-02  0.29789949393E-01  0.51100000000E-03 0. -1.
</event>
<event>
 8    1  0.1101883E+005  0.1043930E+01  0.7957747E-01            NaN
         13   -1    0    0    0    0  0.00000000000E+00  0.00000000000E+00  0.74505805969E-08  0.10566000000E+00  0.10566000000E+00 0.  1.
     999900   -1    0    0    0    0 -0.00000000000E+00 -0.00000000000E+00 -0.74505805969E-08  0.93827000000E+00  0.93827000000E+00 0. -1.
     999902    2    1    2    0    0  0.18400929116E-01  0.75829764109E-02  0.95627564157E-02  0.10218496460E+01  0.10216110595E+01 0.  0.
     999903    2    3    3    0    0  0.10162774815E+00  0.76796188121E-01 -0.34694721304E-01  0.13411325694E+00  0.23596361958E-01 0.  0.
         14    1    1    2    0    0 -0.18400929116E-01 -0.75829764109E-02 -0.95627564157E-02  0.22080354024E-01  0.00000000000E+00 0. -1.
     999901    1    3    3    0    0 -0.83226819032E-01 -0.69213211710E-01  0.44257477719E-01  0.88773638903E+00  0.88000000000E+00 0.  1.
        -11    1    4    4    0    0  0.45077176097E-01  0.27752633469E-01 -0.36151954177E-02  0.53061202665E-01  0.51100000000E-03 0. -1.
         11    1    4    4    0    0  0.56550572050E-01  0.49043554652E-01 -0.31079525886E-01  0.81052054276E-01  0.51100000000E-03 0.  1.
</event>
<event>
 8    1  0.1101883E+005  0.1043930E+01  0.7957747E-01            NaN
         13   -1    0    0    0    0  0.00000000000E+00  0.00000000000E+00  0.74505805969E-08  0.10566000000E+00  0.10566000000E+00 0. -1.
     999900   -1    0    0    0    0 -0.00000000000E+00 -0.00000000000E+00 -0.74505805969E-08  0.93827000000E+00  0.93827000000E+00 0. -1.
     999902    2    1    2    0    0  0.98814821790E-02 -0.46896580322E-02 -0.21302309494E-01  0.10199837065E+01  0.10197025726E+01 0.  0.
     999903    2    3    3    0    0 -0.10815645621E+00  0.58363330446E-01 -0.36387871895E-01  0.12973867931E+00  0.20098515528E-01 0.  0.
         14    1    1    2    0    0 -0.98814821790E-02  0.46896580322E-02  0.21302309494E-01  0.23946293498E-01  0.00000000000E+00 0. -1.
     999901    1    3    3    0    0  0.11803793839E+00 -0.63052988478E-01  0.15085562401E-01  0.89024502720E+00  0.88000000000E+00 0.  1.
        -11    1    4    4    0    0 -0.53853372898E-01  0.18792812260E-01 -0.21182288118E-01  0.60846577686E-01  0.51100000000E-03 0.  1.
         11    1    4    4    0    0 -0.54303083311E-01  0.39570518186E-01 -0.15205583777E-01  0.68892101620E-01  0.51100000000E-03 0. -1.
</event>
<event>
 8    1  0.1101883E+005  0.1043930E+01  0.7957747E-01            NaN
         13   -1    0    0    0    0  0.00000000000E+00  0.00000000000E+00  0.74505805969E-08  0.10566000000E+00  0.10566000000E+00 0. -1.
     999900   -1    0    0    0    0 -0.00000000000E+00 -0.00000000000E+00 -0.74505805969E-08  0.93827000000E+00  0.93827000000E+00 0.  1.
     999902    2    1    2    0    0 -0.14725470672E-01  0.18627830864E-01  0.10854587039E-01  0.10178214261E+01  0.10174865099E+01 0.  0.
     999903    2    3    3    0    0 -0.96147304029E-01  0.43549118541E-01  0.75954511551E-01  0.13131785271E+00  0.18288269973E-01 0.  0.
         14    1    1    2    0    0  0.14725470672E-01 -0.18627830864E-01 -0.10854587039E-01  0.26108573860E-01  0.00000000000E+00 0.  1.
     999901    1    3    3    0    0  0.81421833357E-01 -0.24921287676E-01 -0.65099924512E-01  0.88650357343E+00  0.88000000000E+00 0.  1.
        -11    1    4    4    0    0 -0.43195031554E-01  0.27654678253E-01  0.29973888653E-01  0.59407803378E-01  0.51100000000E-03 0. -1.
         11    1    4    4    0    0 -0.52952272475E-01  0.15894440287E-01  0.45980622897E-01  0.71910049335E-01  0.51100000000E-03 0.  1.
</event>
<event>
 8    1  0.1101883E+005  0.1043930E+01  0.7957747E-01            NaN
         13   -1    0    0    0    0  0.00000000000E+00  0.00000000000E+00  0.74505805969E-08  0.10566000000E+00  0.10566000000E+00 0.  1.
     999900   -1    0    0    0    0 -0.00000000000E+00 -0.00000000000E+00 -0.74505805969E-08  0.93827000000E+00  0.93827000000E+00 0.  1.
     999902    2    1    2    0    0 -0.21794860741E-01 -0.54405420357E-02 -0.81572191769E-02  0.10200311365E+01  0.10197511283E+01 0.  0.
     999903    2    3    3    0    0 -0.21122055621E-01  0.90714476522E-02 -0.12819958730E+00  0.13176247181E+00  0.19944482876E-01 0.  0.
         14    1    1    2    0    0  0.21794860741E-01  0.54405420357E-02  0.81572191769E-02  0.23898863510E-01  0.00000000000E+00 0. -1.
     999901    1    3    3    0    0 -0.67280512010E-03 -0.14511989688E-01  0.12004236812E+00  0.88826866468E+00  0.88000000000E+00 0. -1.
        -11    1    4    4    0    0 -0.10628184941E-01  0.10984434895E-02 -0.10066852665E+00  0.10123526200E+00  0.51100000000E-03 0. -1.
         11    1    4    4    0    0 -0.10493870680E-01  0.79730041627E-02 -0.27531060647E-01  0.30527209807E-01  0.51100000000E-03 0.  1.
</event>
<event>
 8    1  0.1101883E+005  0.1043930E+01  0.7957747E-01            NaN
         13   -1    0    0    0    0  0.00000000000E+00  0.00000000000E+00  0.74505805969E-08  0.10566000000E+00  0.10566000000E+00 0. -1.
     999900   -1    0    0    0    0 -0.00000000000E+00 -0.00000000000E+00 -0.74505805969E-08  0.93827000000E+00  0.93827000000E+00 0.  1.
     999902    2    1    2    0    0 -0.11546349643E-02 -0.21452357549E-01  0.12296087651E-01  0.10191766043E+01  0.10188759592E+01 0.  0.
     999903    2    3    3    0    0  0.94399042561E-01  0.69392462125E-01 -0.46142290915E-01  0.12743766795E+00  0.19615176889E-01 0.  0.
         14    1    1    2    0    0  0.11546349643E-02  0.21452357549E-01 -0.12296087651E-01  0.24753395683E-01  0.00000000000E+00 0.  1.
     999901    1    3    3    0    0 -0.95553677526E-01 -0.90844819674E-01  0.58438378566E-01  0.89173893637E+00  0.88000000000E+00 0.  1.
        -11    1    4    4    0    0  0.36339330323E-01  0.15382546662E-01 -0.14035217233E-01  0.41885774601E-01  0.51100000000E-03 0. -1.
         11    1    4    4    0    0  0.58059712238E-01  0.54009915464E-01 -0.32107073682E-01  0.85551893346E-01  0.51100000000E-03 0.  1.
</event>
<event>
 8    1  0.1101883E+005  0.1043930E+01  0.7957747E-01            NaN
         13   -1    0    0    0    0  0.00000000000E+00  0.00000000000E+00  0.74505805969E-08  0.10566000000E+00  0.10566000000E+00 0.  1.
     999900   -1    0    0    0    0 -0.00000000000E+00 -0.00000000000E+00 -0.74505805969E-08  0.93827000000E+00  0.93827000000E+00 0.  1.
     999902    2    1    2    0    0 -0.17693559607E-01 -0.15260836842E-01 -0.14137421955E-02  0.10205215857E+01  0.10202530828E+01 0.  0.
     999903    2    3    3    0    0  0.64307800574E-01  0.49573980732E-01 -0.98184259428E-01  0.12906642158E+00  0.20613578048E-01 0.  0.
         14    1    1    2    0    0  0.17693559607E-01  0.15260836842E-01  0.14137421955E-02  0.23408414293E-01  0.00000000000E+00 0.  1.
     999901    1    3    3    0    0 -0.82001360182E-01 -0.64834817575E-01  0.96770517232E-01  0.89145516413E+00  0.88000000000E+00 0. -1.
        -11    1    4    4    0    0  0.38177279703E-01  0.16449572430E-01 -0.49531195339E-01  0.64666015428E-01  0.51100000000E-03 0.  1.
         11    1    4    4    0    0  0.26130520871E-01  0.33124408303E-01 -0.48653064089E-01  0.64400406153E-01  0.51100000000E-03 0. -1.
</event>
<event>
 8    1  0.1101883E+005  0.1043930E+01  0.7957747E-01            NaN
         13   -1    0    0    0    0  0.00000000000E+00  0.00000000000E+00  0.74505805969E-08  0.10566000000E+00  0.10566000000E+00 0. -1.
     999900   -1    0    0    0    0 -0.00000000000E+00 -0.00000000000E+00 -0.74505805969E-08  0.93827000000E+00  0.93827000000E+00 0.  1.
     999902    2    1    2    0    0  0.16488344936E-01  0.17809036811E-01  0.25974567051E-02  0.10195215160E+01  0.10192292909E+01 0.  0.
     999903    2    3    3    0    0  0.10648418928E+00 -0.18098771438E-01 -0.71257121812E-01  0.13112795372E+00  0.21225332584E-01 0.  0.
         14    1    1    2    0    0 -0.16488344936E-01 -0.17809036811E-01 -0.25974567051E-02  0.24408484021E-01  0.00000000000E+00 0.  1.
     999901    1    3    3    0    0 -0.89995844347E-01  0.35907808250E-01  0.73854578517E-01  0.88839356226E+00  0.88000000000E+00 0. -1.
        -11    1    4    4    0    0  0.85634134487E-01 -0.15727552422E-01 -0.66619396929E-01  0.10963104516E+00  0.51100000000E-03 0. -1.
         11    1    4    4    0    0  0.20850054796E-01 -0.23712190167E-02 -0.46377248827E-02  0.21496908562E-01  0.51100000000E-03 0.  1.
</event>
<event>
 8    1  0.1101883E+005  0.1043930E+01  0.7957747E-01            NaN
         13   -1    0    0    0    0  0.00000000000E+00  0.00000000000E+00  0.74505805969E-08  0.10566000000E+00  0.10566000000E+00 0. -1.
     999900   -1    0    0    0    0 -0.00000000000E+00 -0.00000000000E+00 -0.74505805969E-08  0.93827000000E+00  0.93827000000E+00 0. -1.
     999902    2    1    2    0    0  0.12425864954E-01 -0.70835869852E-03 -0.20191966117E-01  0.10202104008E+01  0.10199346266E+01 0.  0.
     999903    2    3    3    0    0 -0.55086279406E-01  0.10298577438E+00 -0.53473723953E-01  0.13093089562E+00  0.25355322346E-01 0.  0.
         14    1    1    2    0    0 -0.12425864954E-01  0.70835869852E-03  0.20191966117E-01  0.23719599229E-01  0.00000000000E+00 0. -1.
     999901    1    3    3    0    0  0.67512144360E-01 -0.10369413308E+00  0.33281757837E-01  0.88927950515E+00  0.88000000000E+00 0. -1.
        -11    1    4    4    0    0 -0.41553737247E-01  0.51822403040E-01 -0.33131287678E-01  0.74230841840E-01  0.51100000000E-03 0.  1.
         11    1    4    4    0    0 -0.13532542159E-01  0.51163371343E-01 -0.20342436275E-01  0.56700053784E-01  0.51100000000E-03 0. -1.
</event>
<event>
 8    1  0.1101883E+005  0.1043930E+01  0.7957747E-01            NaN
         13   -1    0    0    0    0  0.00000000000E+00  0.00000000000E+00  0.74505805969E-08  0.10566000000E+00  0.10566000000E+00 0. -1.
     999900   -1    0    0    0    0 -0.00000000000E+00 -0.00000000000E+00 -0.74505805969E-08  0.93827000000E+00  0.93827000000E+00 0.  1.
     999902    2    1    2    0    0 -0.13334559941E-01 -0.22657578435E-01 -0.19109892949E-02  0.10175704054E+01  0.10172289328E+01 0.  0.
     999903    2    3    3    0    0  0.99847871790E-01 -0.31353163713E-01 -0.69760339624E-01  0.12768872199E+00  0.22029216147E-01 0.  0.
         14    1    1    2    0    0  0.13334559941E-01  0.22657578435E-01  0.19109892949E-02  0.26359594637E-01  0.00000000000E+00 0. -1.
     999901    1    3    3    0    0 -0.11318243173E+00  0.86955852780E-02  0.67849350330E-01  0.88988168337E+00  0.88000000000E+00 0.  1.
        -11    1    4    4    0    0  0.22199129591E-01 -0.16976691422E-01 -0.16987563180E-01  0.32708528399E-01  0.51100000000E-03 0. -1.
         11    1    4    4    0    0  0.77648742199E-01 -0.14376472291E-01 -0.52772776445E-01  0.94980193595E-01  0.51100000000E-03 0.  1.
</event>
<event>
 8    1  0.1101883E+005  0.1043930E+01  0.7957747E-01            NaN
         13   -1    0    0    0    0  0.00000000000E+00  0.00000000000E+00  0.74505805969E-08  0.10566000000E+00  0.10566000000E+00 0.  1.
     999900   -1    0    0    0    0 -0.00000000000E+00 -0.00000000000E+00 -0.74505805969E-08  0.93827000000E+00  0.93827000000E+00 0.  1.
     999902    2    1    2    0    0  0.18988664470E-01  0.23990982148E-02 -0.13047985669E-01  0.10207659118E+01  0.10205030484E+01 0.  0.
     999903    2    3    3    0    0  0.39075083629E-01  0.10418866071E-01  0.12216059143E+00  0.13017670225E+00  0.19681178247E-01 0.  0.
         14    1    1    2    0    0 -0.18988664470E-01 -0.23990982148E-02  0.13047985669E-01  0.23164088167E-01  0.00000000000E+00 0. -1.
     999901    1    3    3    0    0 -0.20086419159E-01 -0.80197678566E-02 -0.13520857710E+00  0.89058920959E+00  0.88000000000E+00 0.  1.
        -11    1    4    4    0    0  0.23192268746E-01  0.14266095305E-01  0.90991576904E-01  0.94979634624E-01  0.51100000000E-03 0. -1.
         11    1    4    4    0    0  0.15882814882E-01 -0.38472292338E-02  0.31169014530E-01  0.35197067621E-01  0.51100000000E-03 0.  1.
</event>
<event>
 8    1  0.1101883E+005  0.1043930E+01  0.7957747E-01            NaN
         13   -1    0    0    0    0  0.00000000000E+00  0.00000000000E+00  0.74505805969E-08  0.10566000000E+00  0.10566000000E+00 0.  1.
     999900   -1    0    0    0    0 -0.00000000000E+00 -0.00000000000E+00 -0.74505805969E-08  0.93827000000E+00  0.93827000000E+00 0. -1.
     999902    2    1    2    0    0  0.91170707032E-02  0.20649145021E-01  0.72676132198E-02  0.10202165783E+01  0.10199409494E+01 0.  0.
     999903    2    3    3    0    0  0.27089690838E-01  0.92807300685E-01  0.89414207942E-01  0.13326794530E+00  0.20454785551E-01 0.  0.
         14    1    1    2    0    0 -0.91170707032E-02 -0.20649145021E-01 -0.72676132198E-02  0.23713421731E-01  0.00000000000E+00 0. -1.
     999901    1    3    3    0    0 -0.17972620135E-01 -0.72158155664E-01 -0.82146594722E-01  0.88694863297E+00  0.88000000000E+00 0. -1.
        -11    1    4    4    0    0  0.14603377666E-02  0.37956752131E-01  0.29591886888E-01  0.48153800570E-01  0.51100000000E-03 0. -1.
         11    1    4    4    0    0  0.25629353071E-01  0.54850548554E-01  0.59822321054E-01  0.85114144728E-01  0.51100000000E-03 0.  1.
</event>
<event>
 8    1  0.1101883E+005  0.1043930E+01  0.7957747E-01            NaN
         13   -1    0    0    0    0  0.00000000000E+00  0.00000000000E+00  0.74505805969E-08  0.10566000000E+00  0.10566000000E+00 0. -1.
     999900   -1    0    0    0    0 -0.00000000000E+00 -0.00000000000E+00 -0.74505805969E-08  0.93827000000E+00  0.93827000000E+00 0.  1.
     999902    2    1    2    0    0 -0.22826222012E-01 -0.27124890306E-02 -0.67374463427E-02  0.10199761445E+01  0.10196948309E+01 0.  0.
     999903    2    3    3    0    0  0.76315834683E-01  0.73826059920E-01 -0.70469373825E-01  0.12882573330E+00  0.18861154932E-01 0.  0.
         14    1    1    2    0    0  0.22826222012E-01  0.27124890306E-02  0.67374463427E-02  0.23953855458E-01  0.00000000000E+00 0.  1.
     999901    1    3    3    0    0 -0.99142056695E-01 -0.76538548951E-01  0.63731927483E-01  0.89115041124E+00  0.88000000000E+00 0.  1.
        -11    1    4    4    0    0  0.39332279271E-01  0.26767176131E-01 -0.25668865370E-01  0.54061647043E-01  0.51100000000E-03 0. -1.
         11    1    4    4    0    0  0.36983555412E-01  0.47058883789E-01 -0.44800508456E-01  0.74764086253E-01  0.51100000000E-03 0.  1.
</event>
<event>
 8    1  0.1101883E+005  0.1043930E+01  0.7957747E-01            NaN
         13   -1    0    0    0    0  0.00000000000E+00  0.00000000000E+00  0.74505805969E-08  0.10566000000E+00  0.10566000000E+00 0.  1.
     999900   -1    0    0    0    0 -0.00000000000E+00 -0.00000000000E+00 -0.74505805969E-08  0.93827000000E+00  0.93827000000E+00 0.  1.
     999902    2    1    2    0    0  0.14093295622E-01 -0.86199525985E-02  0.16364695985E-01  0.10206764446E+01  0.10204115232E+01 0.  0.
     999903    2    3    3    0    0  0.52175976190E-01 -0.11184829415E+00  0.46439330259E-01  0.13331470061E+00  0.19591442205E-01 0.  0.
         14    1    1    2    0    0 -0.14093295622E-01  0.86199525985E-02 -0.16364695985E-01  0.23253555405E-01  0.00000000000E+00 0. -1.
     999901    1    3    3    0    0 -0.38082680568E-01  0.10322834155E+00 -0.30074634274E-01  0.88736174398E+00  0.88000000000E+00 0. -1.
        -11    1    4    4    0    0  0.90473910523E-02 -0.27775590024E-01  0.19255920816E-01  0.34991288823E-01  0.51100000000E-03 0. -1.
         11    1    4    4    0    0  0.43128585138E-01 -0.84072704130E-01  0.27183409443E-01  0.98323411788E-01  0.51100000000E-03 0.  1.
</event>
<event>
 8    1  0.1101883E+005  0.1043930E+01  0.7957747E-01            NaN
         13   -1    0    0    0    0  0.00000000000E+00  0.00000000000E+00  0.74505805969E-08  0.10566000000E+00  0.10566000000E+00 0.  1.
     999900   -1    0    0    0    0 -0.00000000000E+00 -0.00000000000E+00 -0.74505805969E-08  0.93827000000E+00  0.93827000000E+00 0. -1.
     999902    2    1    2    0    0 -0.14922543666E-01  0.13362536426E-01  0.13296584886E-01  0.10198875613E+01  0.10196041383E+01 0.  0.
     999903    2    3    3    0    0  0.53865201838E-01 -0.10367480247E+00  0.50024889226E-01  0.12872065158E+00  0.20410584636E-01 0.  0.
         14    1    1    2    0    0  0.14922543666E-01 -0.13362536426E-01 -0.13296584886E-01  0.24042438704E-01  0.00000000000E+00 0.  1.
     999901    1    3    3    0    0 -0.68787745504E-01  0.11703733890E+00 -0.36728304340E-01  0.89116690971E+00  0.88000000000E+00 0. -1.
        -11    1    4    4    0    0  0.44973431172E-01 -0.72175942140E-01  0.29162031134E-01  0.89903622375E-01  0.51100000000E-03 0.  1.
         11    1    4    4    0    0  0.88917706653E-02 -0.31498860333E-01  0.20862858092E-01  0.38817029209E-01  0.51100000000E-03 0. -1.
</event>
<event>
 8    1  0.1101883E+005  0.1043930E+01  0.7957747E-01            NaN
         13   -1    0    0    0    0  0.00000000000E+00  0.00000000000E+00  0.74505805969E-08  0.10566000000E+00  0.10566000000E+00 0.  1.
     999900   -1    0    0    0    0 -0.00000000000E+00 -0.00000000000E+00 -0.74505805969E-08  0.93827000000E+00  0.93827000000E+00 0.  1.
     999902    2    1    2    0    0  0.24442459947E-01  0.56777668001E-02 -0.73121444614E-02  0.10177930847E+01  0.10174574315E+01 0.  0.
     999903    2    3    3    0    0  0.68587979901E-01  0.10458158313E-01  0.10715539583E+00  0.12926931077E+00  0.20361527206E-01 0.  0.
         14    1    1    2    0    0 -0.24442459947E-01 -0.56777668001E-02  0.73121444614E-02  0.26136915287E-01  0.00000000000E+00 0. -1.
     999901    1    3    3    0    0 -0.44145519954E-01 -0.47803915124E-02 -0.11446754029E+00  0.88852377394E+00  0.88000000000E+00 0. -1.
        -11    1    4    4    0    0  0.58115407020E-01  0.15809188341E-01  0.84924975140E-01  0.10411456907E+00  0.51100000000E-03 0.  1.
         11    1    4    4    0    0  0.10472572882E-01 -0.53510300287E-02  0.22230420690E-01  0.25154741704E-01  0.51100000000E-03 0. -1.
</event>
<event>
 8    1  0.1101883E+005  0.1043930E+01  0.7957747E-01            NaN
         13   -1    0    0    0    0  0.00000000000E+00  0.00000000000E+00  0.74505805969E-08  0.10566000000E+00  0.10566000000E+00 0. -1.
     999900   -1    0    0    0    0 -0.00000000000E+00 -0.00000000000E+00 -0.74505805969E-08  0.93827000000E+00  0.93827000000E+00 0. -1.
     999902    2    1    2    0    0 -0.15759207189E-01 -0.64815389174E-02  0.15144501137E-01  0.10211326565E+01  0.10208781432E+01 0.  0.
     999903    2    3    3    0    0 -0.36832319376E-01 -0.20383425154E-01 -0.12168871688E+00  0.13020018536E+00  0.19283170953E-01 0.  0.
         14    1    1    2    0    0  0.15759207189E-01  0.64815389174E-02 -0.15144501137E-01  0.22797343544E-01  0.00000000000E+00 0.  1.
     999901    1    3    3    0    0  0.21073112187E-01  0.13901886237E-01  0.13683321801E+00  0.89093247109E+00  0.88000000000E+00 0.  1.
        -11    1    4    4    0    0 -0.76644882093E-02 -0.58165463109E-02 -0.56452243882E-01  0.57268608773E-01  0.51100000000E-03 0. -1.
         11    1    4    4    0    0 -0.29167831166E-01 -0.14566878843E-01 -0.65236472994E-01  0.72931576589E-01  0.51100000000E-03 0.  1.
</event>
<event>
 8    1  0.1101883E+005  0.1043930E+01  0.7957747E-01            NaN
         13   -1    0    0    0    0  0.00000000000E+00  0.00000000000E+00  0.74505805969E-08  0.10566000000E+00  0.10566000000E+00 0. -1.
     999900   -1    0    0    0    0 -0.00000000000E+00 -0.00000000000E+00 -0.74505805969E-08  0.93827000000E+00  0.93827000000E+00 0. -1.
     999902    2    1    2    0    0  0.54451824976E-02 -0.22086242811E-01 -0.85684156642E-02  0.10196221848E+01  0.10193323942E+01 0.  0.
     999903    2    3    3    0    0  0.50768541132E-01  0.11215102224E+00 -0.29784414598E-01  0.12803709698E+00  0.18737403572E-01 0.  0.
         14    1    1    2    0    0 -0.54451824976E-02  0.22086242811E-01  0.85684156642E-02  0.24307815223E-01  0.00000000000E+00 0. -1.
     999901    1    3    3    0    0 -0.45323358634E-01 -0.13423726505E+00  0.21215998934E-01  0.89158508779E+00  0.88000000000E+00 0. -1.
        -11    1    4    4    0    0  0.39075723482E-01  0.97889409491E-01 -0.29995189519E-01  0.10958659212E+00  0.51100000000E-03 0. -1.
         11    1    4    4    0    0  0.11692817649E-01  0.14261612749E-01  0.21077492102E-03  0.18450504867E-01  0.51100000000E-03 0.  1.
</event>
<event>
 8    1  0.1101883E+005  0.1043930E+01  0.7957747E-01            NaN
         13   -1    0    0    0    0  0.00000000000E+00  0.00000000000E+00  0.74505805969E-08  0.10566000000E+00  0.10566000000E+00 0.  1.
     999900   -1    0    0    0    0 -0.00000000000E+00 -0.00000000000E+00 -0.74505805969E-08  0.93827000000E+00  0.93827000000E+00 0.  1.
     999902    2    1    2    0    0  0.15771229553E-01 -0.15034028166E-01 -0.93871588997E-02  0.10202050672E+01  0.10199291675E+01 0.  0.
     999903    2    3    3    0    0 -0.87911537281E-01 -0.75628752756E-01 -0.56034299149E-01  0.13082450046E+00  0.22957800618E-01 0.  0.
         14    1    1    2    0    0 -0.15771229553E-01  0.15034028166E-01  0.93871588997E-02  0.23724932807E-01  0.00000000000E+00 0. -1.
     999901    1    3    3    0    0  0.10368276683E+00  0.60594724590E-01  0.46647140249E-01  0.88938056673E+00  0.88000000000E+00 0.  1.
        -11    1    4    4    0    0 -0.56273205961E-01 -0.59805871610E-01 -0.45643030532E-01  0.93951920392E-01  0.51100000000E-03 0. -1.
         11    1    4    4    0    0 -0.31638331320E-01 -0.15822881145E-01 -0.10391268617E-01  0.36872580069E-01  0.51100000000E-03 0.  1.
</event>
<event>
 8    1  0.1101883E+005  0.1043930E+01  0.7957747E-01            NaN
         13   -1    0    0    0    0  0.00000000000E+00  0.00000000000E+00  0.74505805969E-08  0.10566000000E+00  0.10566000000E+00 0. -1.
     999900   -1    0    0    0    0 -0.00000000000E+00 -0.00000000000E+00 -0.74505805969E-08  0.93827000000E+00  0.93827000000E+00 0. -1.
     999902    2    1    2    0    0 -0.20539538043E-01  0.62611954247E-02  0.12966230436E-01  0.10188461741E+01  0.10185373474E+01 0.  0.
     999903    2    3    3    0    0 -0.10375956074E+00 -0.91203586895E-02  0.78801661474E-01  0.13233815473E+00  0.21318019591E-01 0.  0.
         14    1    1    2    0    0  0.20539538043E-01 -0.62611954247E-02 -0.12966230436E-01  0.25083825922E-01  0.00000000000E+00 0.  1.
     999901    1    3    3    0    0  0.83220022697E-01  0.15381554114E-01 -0.65835431038E-01  0.88650801935E+00  0.88000000000E+00 0. -1.
        -11    1    4    4    0    0 -0.24969803047E-01 -0.48940212502E-02  0.30900371474E-01  0.40031694773E-01  0.51100000000E-03 0.  1.
         11    1    4    4    0    0 -0.78789757693E-01 -0.42263374393E-02  0.47901290000E-01  0.92306459959E-01  0.51100000000E-03 0. -1.
</event>
<event>
 8    1  0.1101883E+005  0.1043930E+01  0.7957747E-01            NaN
         13   -1    0    0    0    0  0.00000000000E+00  0.00000000000E+00  0.74505805969E-08  0.10566000000E+00  0.10566000000E+00 0. -1.
     999900   -1    0    0    0    0 -0.00000000000E+00 -0.00000000000E+00 -0.74505805969E-08  0.93827000000E+00  0.93827000000E+00 0.  1.
     999902    2    1    2    0    0 -0.11164255873E-01  0.14954707875E-01 -0.14549719638E-01  0.10202661407E+01  0.10199916762E+01 0.  0.
     999903    2    3    3    0    0 -0.82355169539E-01 -0.40377319059E-01  0.89376555426E-01  0.12957514485E+00  0.19719220518E-01 0.  0.
         14    1    1    2    0    0  0.11164255873E-01 -0.14954707875E-01  0.14549719638E-01  0.23663859330E-01  0.00000000000E+00 0. -1.
     999901    1    3    3    0    0  0.71190913666E-01  0.55332026934E-01 -0.10392627506E+00  0.89069099582E+00  0.88000000000E+00 0.  1.
        -11    1    4    4    0    0 -0.52600234474E-01 -0.34769121151E-01  0.54096414523E-01  0.83080440765E-01  0.51100000000E-03 0.  1.
         11    1    4    4    0    0 -0.29754935065E-01 -0.56081979072E-02  0.35280140903E-01  0.46494704081E-01  0.51100000000E-03 0. -1.
</event>
<event>
 8    1  0.1101883E+005  0.1043930E+01  0.7957747E-01            NaN
         13   -1    0    0    0    0  0.00000000000E+00  0.00000000000E+00  0.74505805969E-08  0.10566000000E+00  0.10566000000E+00 0.  1.
     999900   -1    0    0    0    0 -0.00000000000E+00 -0.00000000000E+00 -0.74505805969E-08  0.93827000000E+00  0.93827000000E+00 0. -1.
     999902    2    1    2    0    0  0.20532975507E-01 -0.30878498167E-02 -0.14110652931E-01  0.10188252509E+01  0.10185159024E+01 0.  0.
     999903    2    3    3    0    0 -0.38532000006E-01  0.88241286638E-01 -0.83804805859E-01  0.12939455804E+00  0.21177027038E-01 0.  0.
         14    1    1    2    0    0 -0.20532975507E-01  0.30878498167E-02  0.14110652931E-01  0.25104749069E-01  0.00000000000E+00 0.  1.
     999901    1    3    3    0    0  0.59064975513E-01 -0.91329136455E-01  0.69694152929E-01  0.88943069289E+00  0.88000000000E+00 0. -1.
        -11    1    4    4    0    0 -0.29106678867E-01  0.58205071977E-01 -0.43622954782E-01  0.78347000348E-01  0.51100000000E-03 0.  1.
         11    1    4    4    0    0 -0.94253211387E-02  0.30036214661E-01 -0.40181851077E-01  0.51047557696E-01  0.51100000000E-03 0. -1.
</event>
<event>
 8    1  0.1101883E+005  0.1043930E+01  0.7957747E-01            NaN
         13   -1    0    0    0    0  0.00000000000E+00  0.00000000000E+00  0.74505805969E-08  0.10566000000E+00  0.10566000000E+00 0. -1.
     999900   -1    0    0    0    0 -0.00000000000E+00 -0.00000000000E+00 -0.74505805969E-08  0.93827000000E+00  0.93827000000E+00 0.  1.
     999902    2    1    2    0    0 -0.72281589785E-02 -0.21570111604E-01  0.70789169044E-02  0.10201050748E+01  0.10198268169E+01 0.  0.
     999903    2    3    3    0    0  0.62973455168E-01 -0.10853110816E+00 -0.35784716052E-01  0.13200160526E+00  0.19980500337E-01 0.  0.
         14    1    1    2    0    0  0.72281589785E-02  0.21570111604E-01 -0.70789169044E-02  0.23824925212E-01  0.00000000000E+00 0. -1.
     999901    1    3    3    0    0 -0.70201614147E-01  0.86960996561E-01  0.42863632957E-01  0.88810346952E+00  0.88000000000E+00 0.  1.
        -11    1    4    4    0    0  0.36882835726E-01 -0.57784755069E-01 -0.96193895412E-02  0.69225828025E-01  0.51100000000E-03 0.  1.
         11    1    4    4    0    0  0.26090619442E-01 -0.50746353096E-01 -0.26165326511E-01  0.62775777238E-01  0.51100000000E-03 0. -1.
</event>
<event>
 8    1  0.1101883E+005  0.1043930E+01  0.7957747E-01            NaN
         13   -1    0    0    0    0  0.00000000000E+00  0.00000000000E+00  0.74505805969E-08  0.10566000000E+00  0.10566000000E+00 0. -1.
     999900   -1    0    0    0    0 -0.00000000000E+00 -0.00000000000E+00 -0.74505805969E-08  0.93827000000E+00  0.93827000000E+00 0.  1.
     999902    2    1    2    0    0 -0.18167364159E-01 -0.69645712362E-02  0.12690549353E-01  0.10207005270E+01  0.10204361604E+01 0.  0.
     999903    2    3    3    0    0  0.10600554686E+00 -0.28462605207E-01  0.66769603832E-01  0.13007960796E+00  0.20377157558E-01 0.  0.
         14    1    1    2    0    0  0.18167364159E-01  0.69645712362E-02 -0.12690549353E-01  0.23229473000E-01  0.00000000000E+00 0.  1.
     999901    1    3    3    0    0 -0.12417291102E+00  0.21498033971E-01 -0.54079054480E-01  0.89062091904E+00  0.88000000000E+00 0.  1.
        -11    1    4    4    0    0  0.47209836337E-01 -0.12330722552E-01  0.41584584297E-01  0.64112043625E-01  0.51100000000E-03 0.  1.
         11    1    4    4    0    0  0.58795710527E-01 -0.16131882655E-01  0.25185019535E-01  0.65967564336E-01  0.51100000000E-03 0. -1.
</event>
<event>
 8    1  0.1101883E+005  0.1043930E+01  0.7957747E-01            NaN
         13   -1    0    0    0    0  0.00000000000E+00  0.00000000000E+00  0.74505805969E-08  0.10566000000E+00  0.10566000000E+00 0. -1.
     999900   -1    0    0    0    0 -0.00000000000E+00 -0.00000000000E+00 -0.74505805969E-08  0.93827000000E+00  0.93827000000E+00 0. -1.
     999902    2    1    2    0    0 -0.48449135612E-02  0.13681548585E-01 -0.17567526410E-02  0.10293100089E+01  0.10292061748E+01 0.  0.
     999903    2    3    3    0    0 -0.56489743179E-01  0.93315929421E-01  0.85310217815E-01  0.13993411518E+00  0.20118885638E-01 0.  0.
         14    1    1    2    0    0  0.48449135612E-02 -0.13681548585E-01  0.17567526410E-02  0.14619991072E-01  0.00000000000E+00 0. -1.
     999901    1    3    3    0    0  0.51644829617E-01 -0.79634380836E-01 -0.87066970456E-01  0.88937589375E+00  0.88000000000E+00 0. -1.
        -11    1    4    4    0    0 -0.44501011122E-01  0.67393520592E-01  0.72871141268E-01  0.10877817318E+00  0.51100000000E-03 0.  1.
         11    1    4    4    0    0 -0.11988732057E-01  0.25922408829E-01  0.12439076547E-01  0.31155942004E-01  0.51100000000E-03 0. -1.
</event>
<event>
 8    1  0.1101883E+005  0.1043930E+01  0.7957747E-01            NaN
         13   -1    0    0    0    0  0.00000000000E+00  0.00000000000E+00  0.74505805969E-08  0.10566000000E+00  0.10566000000E+00 0. -1.
     999900   -1    0    0    0    0 -0.00000000000E+00 -0.00000000000E+00 -0.74505805969E-08  0.93827000000E+00  0.93827000000E+00 0.  1.
     999902    2    1    2    0    0  0.19386001127E-01  0.30441487944E-02 -0.15639072738E-01  0.10188368839E+01  0.10185278256E+01 0.  0.
     999903    2    3    3    0    0 -0.54424299452E-01 -0.99851669861E-01 -0.57301106540E-01  0.12879686508E+00  0.19309461379E-01 0.  0.
         14    1    1    2    0    0 -0.19386001127E-01 -0.30441487944E-02  0.15639072738E-01  0.25093116141E-01  0.00000000000E+00 0. -1.
     999901    1    3    3    0    0  0.73810300579E-01  0.10289581866E+00  0.41662033803E-01  0.89004001878E+00  0.88000000000E+00 0. -1.
        -11    1    4    4    0    0 -0.25595100664E-01 -0.61096908013E-01 -0.25594635544E-01  0.71016109697E-01  0.51100000000E-03 0. -1.
         11    1    4    4    0    0 -0.28829198788E-01 -0.38754761848E-01 -0.31706470996E-01  0.57780755383E-01  0.51100000000E-03 0.  1.
</event>
<event>
 8    1  0.1101883E+005  0.1043930E+01  0.7957747E-01            NaN
         13   -1    0    0    0    0  0.00000000000E+00  0.00000000000E+00  0.74505805969E-08  0.10566000000E+00  0.10566000000E+00 0.  1.
     999900   -1    0    0    0    0 -0.00000000000E+00 -0.00000000000E+00 -0.74505805969E-08  0.93827000000E+00  0.93827000000E+00 0. -1.
     999902    2    1    2    0    0 -0.19527690331E-01 -0.13530011091E-01 -0.96583664243E-03  0.10201534416E+01  0.10198763257E+01 0.  0.
     999903    2    3    3    0    0  0.32253861469E-01 -0.61010885720E-01  0.10925699615E+00  0.13049910678E+00  0.18173769738E-01 0.  0.
         14    1    1    2    0    0  0.19527690331E-01  0.13530011091E-01  0.96583664243E-03  0.23776558418E-01  0.00000000000E+00 0. -1.
     999901    1    3    3    0    0 -0.51781551800E-01  0.47480874629E-01 -0.11022283279E+00  0.88965433480E+00  0.88000000000E+00 0. -1.
        -11    1    4    4    0    0  0.89614854056E-02 -0.27733902160E-01  0.59571560417E-01  0.66321259647E-01  0.51100000000E-03 0.  1.
         11    1    4    4    0    0  0.23292376064E-01 -0.33276983560E-01  0.49685435734E-01  0.64177847133E-01  0.51100000000E-03 0. -1.
</event>
<event>
 8    1  0.1101883E+005  0.1043930E+01  0.7957747E-01            NaN
         13   -1    0    0    0    0  0.00000000000E+00  0.00000000000E+00  0.74505805969E-08  0.10566000000E+00  0.10566000000E+00 0.  1.
     999900   -1    0    0    0    0 -0.00000000000E+00 -0.00000000000E+00 -0.74505805969E-08  0.93827000000E+00  0.93827000000E+00 0.  1.
     999902    2    1    2    0    0 -0.15936017253E-01  0.87362985288E-02 -0.11632713688E-01  0.10223522433E+01  0.10221245079E+01 0.  0.
     999903    2    3    3    0    0  0.10758567092E+00 -0.14142985592E-01  0.68422042816E-01  0.12983342939E+00  0.20011067299E-01 0.  0.
         14    1    1    2    0    0  0.15936017253E-01 -0.87362985288E-02  0.11632713688E-01  0.21577756733E-01  0.00000000000E+00 0.  1.
     999901    1    3    3    0    0 -0.12352168817E+00  0.22879284121E-01 -0.80054756504E-01  0.89251881388E+00  0.88000000000E+00 0.  1.
        -11    1    4    4    0    0  0.85360184812E-01 -0.31421835924E-02  0.50484676651E-01  0.99222971969E-01  0.51100000000E-03 0. -1.
         11    1    4    4    0    0  0.22225486108E-01 -0.11000802000E-01  0.17937366165E-01  0.30610457418E-01  0.51100000000E-03 0.  1.
</event>
<event>
 8    1  0.1101883E+005  0.1043930E+01  0.7957747E-01            NaN
         13   -1    0    0    0    0  0.00000000000E+00  0.00000000000E+00  0.74505805969E-08  0.10566000000E+00  0.10566000000E+00 0. -1.
     999900   -1    0    0    0    0 -0.00000000000E+00 -0.00000000000E+00 -0.74505805969E-08  0.93827000000E+00  0.93827000000E+00 0.  1.
     999902    2    1    2    0    0  0.17214399256E-01  0.13754009651E-01  0.12645964047E-01  0.10185247106E+01  0.10182078164E+01 0.  0.
     999903    2    3    3    0    0 -0.67719113272E-01 -0.83270086139E-01  0.65610769026E-01  0.12755184497E+00  0.21092998705E-01 0.  0.
         14    1    1    2    0    0 -0.17214399256E-01 -0.13754009651E-01 -0.12645964047E-01  0.25405289408E-01  0.00000000000E+00 0. -1.
     999901    1    3    3    0    0  0.84933512528E-01  0.97024095790E-01 -0.52964804979E-01  0.89097286563E+00  0.88000000000E+00 0. -1.
        -11    1    4    4    0    0 -0.52722295742E-01 -0.72689495904E-01  0.61197255394E-01  0.10866815758E+00  0.51100000000E-03 0. -1.
         11    1    4    4    0    0 -0.14996817529E-01 -0.10580590235E-01  0.44135136317E-02  0.18883687386E-01  0.51100000000E-03 0.  1.
</event>
<event>
 8    1  0.1101883E+005  0.1043930E+01  0.7957747E-01            NaN
         13   -1    0    0    0    0  0.00000000000E+00  0.00000000000E+00  0.74505805969E-08  0.10566000000E+00  0.10566000000E+00 0.  1.
     999900   -1    0    0    0    0 -0.00000000000E+00 -0.00000000000E+00 -0.74505805969E-08  0.93827000000E+00  0.93827000000E+00 0. -1.
     999902    2    1    2    0    0  0.19401238302E-01  0.13083769798E-01 -0.21078339822E-01  0.10124357229E+01  0.10119457513E+01 0.  0.
     999903    2    3    3    0    0  0.42821055521E-01 -0.10677713478E+00  0.35441202726E-01  0.12220564985E+00  0.21050954816E-01 0.  0.
         14    1    1    2    0    0 -0.19401238302E-01 -0.13083769798E-01  0.21078339822E-01  0.31494277090E-01  0.00000000000E+00 0.  1.
     999901    1    3    3    0    0 -0.23419817219E-01  0.11986090457E+00 -0.56519542548E-01  0.89023007306E+00  0.88000000000E+00 0. -1.
        -11    1    4    4    0    0 -0.10083927492E-02 -0.15841638412E-01  0.67711191643E-02  0.17265095982E-01  0.51100000000E-03 0. -1.
         11    1    4    4    0    0  0.43829448270E-01 -0.90935496364E-01  0.28670083562E-01  0.10494055387E+00  0.51100000000E-03 0.  1.
</event>
<event>
 8    1  0.1101883E+005  0.1043930E+01  0.7957747E-01            NaN
         13   -1    0    0    0    0  0.00000000000E+00  0.00000000000E+00  0.74505805969E-08  0.10566000000E+00  0.10566000000E+00 0.  1.
     999900   -1    0    0    0    0 -0.00000000000E+00 -0.00000000000E+00 -0.74505805969E-08  0.93827000000E+00  0.93827000000E+00 0.  1.
     999902    2    1    2    0    0  0.40882908965E-02 -0.16951760682E-01 -0.19759611757E-01  0.10175762798E+01  0.10172349614E+01 0.  0.
     999903    2    3    3    0    0  0.42871868050E-01 -0.10714966026E+00 -0.59123825664E-01  0.13124148509E+00  0.20239908190E-01 0.  0.
         14    1    1    2    0    0 -0.40882908965E-02  0.16951760682E-01  0.19759611757E-01  0.26353720220E-01  0.00000000000E+00 0.  1.
     999901    1    3    3    0    0 -0.38783577153E-01  0.90197899576E-01  0.39364213908E-01  0.88633479469E+00  0.88000000000E+00 0. -1.
        -11    1    4    4    0    0  0.17301692318E-01 -0.21961585164E-01 -0.10463451959E-01  0.29856401790E-01  0.51100000000E-03 0.  1.
         11    1    4    4    0    0  0.25570175732E-01 -0.85188075094E-01 -0.48660373706E-01  0.10138508330E+00  0.51100000000E-03 0. -1.
</event>
<event>
 8    1  0.1101883E+005  0.1043930E+01  0.7957747E-01            NaN
         13   -1    0    0    0    0  0.00000000000E+00  0.00000000000E+00  0.74505805969E-08  0.10566000000E+00  0.10566000000E+00 0. -1.
     999900   -1    0    0    0    0 -0.00000000000E+00 -0.00000000000E+00 -0.74505805969E-08  0.93827000000E+00  0.93827000000E+00 0. -1.
     999902    2    1    2    0    0  0.97388480503E-02 -0.10237815501E-01 -0.18830057218E-01  0.10203879295E+01  0.10201163157E+01 0.  0.
     999903    2    3    3    0    0  0.73266435056E-01  0.33099740489E-01 -0.10398884130E+00  0.13293882305E+00  0.19886885940E-01 0.  0.
         14    1    1    2    0    0 -0.97388480503E-02  0.10237815501E-01  0.18830057218E-01  0.23542070479E-01  0.00000000000E+00 0. -1.
     999901    1    3    3    0    0 -0.63527587006E-01 -0.43337555990E-01  0.85158784084E-01  0.88744910647E+00  0.88000000000E+00 0.  1.
        -11    1    4    4    0    0  0.31491132775E-01  0.11270927295E-01 -0.28521041424E-01  0.43959483283E-01  0.51100000000E-03 0.  1.
         11    1    4    4    0    0  0.41775302281E-01  0.21828813194E-01 -0.75467799877E-01  0.88979339767E-01  0.51100000000E-03 0. -1.
</event>
<event>
 8    1  0.1101883E+005  0.1043930E+01  0.7957747E-01            NaN
         13   -1    0    0    0    0  0.00000000000E+00  0.00000000000E+00  0.74505805969E-08  0.10566000000E+00  0.10566000000E+00 0. -1.
     999900   -1    0    0    0    0 -0.00000000000E+00 -0.00000000000E+00 -0.74505805969E-08  0.93827000000E+00  0.93827000000E+00 0.  1.
     999902    2    1    2    0    0  0.31202449125E-01 -0.70075006116E-02 -0.70737705739E-02  0.10111773493E+01  0.10106467710E+01 0.  0.
     999903    2    3    3    0    0  0.15171562085E-01 -0.81871305317E-01 -0.89649438396E-01  0.12400187654E+00  0.20158289859E-01 0.  0.
         14    1    1    2    0    0 -0.31202449125E-01  0.70075006116E-02  0.70737705739E-02  0.32752650677E-01  0.00000000000E+00 0. -1.
     999901    1    3    3    0    0  0.16030887040E-01  0.74863804706E-01  0.82575667822E-01  0.88717547278E+00  0.88000000000E+00 0. -1.
        -11    1    4    4    0    0  0.12122047349E-01 -0.70966151034E-01 -0.65534905642E-01  0.97356168798E-01  0.51100000000E-03 0. -1.
         11    1    4    4    0    0  0.30495147363E-02 -0.10905154283E-01 -0.24114532754E-01  0.26645707741E-01  0.51100000000E-03 0.  1.
</event>
<event>
 8    1  0.1101883E+005  0.1043930E+01  0.7957747E-01            NaN
         13   -1    0    0    0    0  0.00000000000E+00  0.00000000000E+00  0.74505805969E-08  0.10566000000E+00  0.10566000000E+00 0.  1.
     999900   -1    0    0    0    0 -0.00000000000E+00 -0.00000000000E+00 -0.74505805969E-08  0.93827000000E+00  0.93827000000E+00 0.  1.
     999902    2    1    2    0    0  0.17933173958E-01  0.12541938804E-01 -0.12051081518E-01  0.10189474556E+01  0.10186411487E+01 0.  0.
     999903    2    3    3    0    0  0.21316836643E-01  0.22400270001E-01 -0.12619879087E+00  0.13151388887E+00  0.20336876064E-01 0.  0.
         14    1    1    2    0    0 -0.17933173958E-01 -0.12541938804E-01  0.12051081518E-01  0.24982544365E-01  0.00000000000E+00 0. -1.
     999901    1    3    3    0    0 -0.33836626852E-02 -0.98583311972E-02  0.11414770935E+00  0.88743356676E+00  0.88000000000E+00 0. -1.
        -11    1    4    4    0    0  0.21262838154E-01  0.85065062101E-02 -0.71743018733E-01  0.75311292594E-01  0.51100000000E-03 0.  1.
         11    1    4    4    0    0  0.53998489622E-04  0.13893763791E-01 -0.54455772139E-01  0.56202596278E-01  0.51100000000E-03 0. -1.
</event>
<event>
 8    1  0.1101883E+005  0.1043930E+01  0.7957747E-01            NaN
         13   -1    0    0    0    0  0.00000000000E+00  0.00000000000E+00  0.74505805969E-08  0.10566000000E+00  0.10566000000E+00 0. -1.
     999900   -1    0    0    0    0 -0.00000000000E+00 -0.00000000000E+00 -0.74505805969E-08  0.93827000000E+00  0.93827000000E+00 0.  1.
     999902    2    1    2    0    0  0.19645226410E-01  0.37053200537E-02  0.11397419362E-01  0.10209177101E+01  0.10206583196E+01 0.  0.
     999903    2    3    3    0    0 -0.87496681239E-01 -0.89824829771E-01 -0.23349576289E-01  0.12882207006E+00  0.18048649569E-01 0.  0.
         14    1    1    2    0    0 -0.19645226410E-01 -0.37053200537E-02 -0.11397419362E-01  0.23012289880E-01  0.00000000000E+00 0.  1.
     999901    1    3    3    0    0  0.10714190765E+00  0.93530149825E-01  0.34746995651E-01  0.89209564006E+00  0.88000000000E+00 0.  1.
        -11    1    4    4    0    0 -0.28592646694E-01 -0.28795054063E-01  0.93433551066E-03  0.40593456213E-01  0.51100000000E-03 0.  1.
         11    1    4    4    0    0 -0.58904034545E-01 -0.61029775708E-01 -0.24283911800E-01  0.88228613850E-01  0.51100000000E-03 0. -1.
</event>
<event>
 8    1  0.1101883E+005  0.1043930E+01  0.7957747E-01            NaN
         13   -1    0    0    0    0  0.00000000000E+00  0.00000000000E+00  0.74505805969E-08  0.10566000000E+00  0.10566000000E+00 0.  1.
     999900   -1    0    0    0    0 -0.00000000000E+00 -0.00000000000E+00 -0.74505805969E-08  0.93827000000E+00  0.93827000000E+00 0. -1.
     999902    2    1    2    0    0  0.11888497357E-01  0.95171477379E-02  0.18424365593E-01  0.10200266589E+01  0.10197465445E+01 0.  0.
     999903    2    3    3    0    0  0.66135133326E-01  0.11194208792E+00  0.11351777814E-01  0.13239859070E+00  0.22262907526E-01 0.  0.
         14    1    1    2    0    0 -0.11888497357E-01 -0.95171477379E-02 -0.18424365593E-01  0.23903341147E-01  0.00000000000E+00 0. -1.
     999901    1    3    3    0    0 -0.54246635969E-01 -0.10242494018E+00  0.70725877790E-02  0.88762806816E+00  0.88000000000E+00 0. -1.
        -11    1    4    4    0    0  0.33924436942E-01  0.45728457238E-01  0.14287416200E-01  0.58705626697E-01  0.51100000000E-03 0. -1.
         11    1    4    4    0    0  0.32210696383E-01  0.66213630678E-01 -0.29356383866E-02  0.73692963998E-01  0.51100000000E-03 0.  1.
</event>
<event>
 8    1  0.1101883E+005  0.1043930E+01  0.7957747E-01            NaN
         13   -1    0    0    0    0  0.00000000000E+00  0.00000000000E+00  0.74505805969E-08  0.10566000000E+00  0.10566000000E+00 0.  1.
     999900   -1    0    0    0    0 -0.00000000000E+00 -0.00000000000E+00 -0.74505805969E-08  0.93827000000E+00  0.93827000000E+00 0. -1.
     999902    2    1    2    0    0 -0.89330438020E-02  0.98145436916E-02  0.20364819844E-01  0.10196225849E+01  0.10193328040E+01 0.  0.
     999903    2    3    3    0    0 -0.96665557963E-01 -0.83510107678E-01 -0.10776441647E-01  0.12980447838E+00  0.20369161331E-01 0.  0.
         14    1    1    2    0    0  0.89330438020E-02 -0.98145436916E-02 -0.20364819844E-01  0.24307415056E-01  0.00000000000E+00 0. -1.
     999901    1    3    3    0    0  0.87732514161E-01  0.93324651370E-01  0.31141261490E-01  0.88981810656E+00  0.88000000000E+00 0.  1.
        -11    1    4    4    0    0 -0.87837171356E-01 -0.66577427576E-01 -0.81145182799E-02  0.11051709851E+00  0.51100000000E-03 0.  1.
         11    1    4    4    0    0 -0.88283866068E-02 -0.16932680102E-01 -0.26619233668E-02  0.19287379877E-01  0.51100000000E-03 0. -1.
</event>
<event>
 8    1  0.1101883E+005  0.1043930E+01  0.7957747E-01            NaN
         13   -1    0    0    0    0  0.00000000000E+00  0.00000000000E+00  0.74505805969E-08  0.10566000000E+00  0.10566000000E+00 0.  1.
     999900   -1    0    0    0    0 -0.00000000000E+00 -0.00000000000E+00 -0.74505805969E-08  0.93827000000E+00  0.93827000000E+00 0. -1.
     999902    2    1    2    0    0  0.17431577041E-01  0.13138019840E-01  0.98616658503E-02  0.10199775493E+01  0.10196962690E+01 0.  0.
     999903    2    3    3    0    0 -0.14458993852E-02  0.76593279737E-01 -0.10373356965E+00  0.13020971063E+00  0.18035912578E-01 0.  0.
         14    1    1    2    0    0 -0.17431577041E-01 -0.13138019840E-01 -0.98616658503E-02  0.23952450747E-01  0.00000000000E+00 0.  1.
     999901    1    3    3    0    0  0.18877476426E-01 -0.63455259896E-01  0.11359523550E+00  0.88976783863E+00  0.88000000000E+00 0.  1.
        -11    1    4    4    0    0 -0.46048652697E-02  0.68392883636E-01 -0.82754054072E-01  0.10745829843E+00  0.51100000000E-03 0.  1.
         11    1    4    4    0    0  0.31589658845E-02  0.82003961007E-02 -0.20979515582E-01  0.22751412192E-01  0.51100000000E-03 0. -1.
</event>
<event>
 7    1  0.1101883E+005  0.1043930E+01  0.7957747E-01            NaN
         13   -1    0    0    0    0  0.00000000000E+00  0.00000000000E+00  0.74505805969E-08  0.10566000000E+00  0.10566000000E+00 0. -1.
     999900   -1    0    0    0    0 -0.00000000000E+00 -0.00000000000E+00 -0.74505805969E-08  0.93827000000E+00  0.93827000000E+00 0. -1.
     999903    2    1    2    0    0 -0.73455513455E-01 -0.78081828511E-01 -0.39828396985E-01  0.11609943447E+00  0.20007325603E-01 0.  0.
         14    1    1    2    0    0  0.38323348712E-01  0.10554180137E-01 -0.15844904763E-01  0.42791713939E-01  0.00000000000E+00 0.  1.
     999901    1    1    2    0    0  0.35132164743E-01  0.67527648374E-01  0.55673301748E-01  0.88503885159E+00  0.88000000000E+00 0.  1.
        -11    1    3    3    0    0 -0.53539019242E-01 -0.44705033371E-01 -0.20580086445E-01  0.72723914012E-01  0.51100000000E-03 0.  1.
         11    1    3    3    0    0 -0.19916494213E-01 -0.33376795140E-01 -0.19248310541E-01  0.43375520460E-01  0.51100000000E-03 0. -1.
</event>
<event>
 8    1  0.1101883E+005  0.1043930E+01  0.7957747E-01            NaN
         13   -1    0    0    0    0  0.00000000000E+00  0.00000000000E+00  0.74505805969E-08  0.10566000000E+00  0.10566000000E+00 0. -1.
     999900   -1    0    0    0    0 -0.00000000000E+00 -0.00000000000E+00 -0.74505805969E-08  0.93827000000E+00  0.93827000000E+00 0. -1.
     999902    2    1    2    0    0  0.51788868596E-05  0.25438601364E-01  0.73051329072E-02  0.10174632769E+01  0.10171189863E+01 0.  0.
     999903    2    3    3    0    0 -0.28929721153E-01  0.82568517289E-01  0.95441828094E-01  0.13074509573E+00  0.18183748085E-01 0.  0.
         14    1    1    2    0    0 -0.51788868596E-05 -0.25438601364E-01 -0.73051329072E-02  0.26466723125E-01  0.00000000000E+00 0. -1.
     999901    1    3    3    0    0  0.28934900039E-01 -0.57129915925E-01 -0.88136695187E-01  0.88671818114E+00  0.88000000000E+00 0. -1.
        -11    1    4    4    0    0 -0.14343931987E-02  0.28651767786E-01  0.27300694137E-01  0.39605180248E-01  0.51100000000E-03 0.  1.
         11    1    4    4    0    0 -0.27495327954E-01  0.53916749503E-01  0.68141133957E-01  0.91139915483E-01  0.51100000000E-03 0. -1.
</event>
<event>
 7    1  0.1101883E+005  0.1043930E+01  0.7957747E-01            NaN
         13   -1    0    0    0    0  0.00000000000E+00  0.00000000000E+00  0.74505805969E-08  0.10566000000E+00  0.10566000000E+00 0. -1.
     999900   -1    0    0    0    0 -0.00000000000E+00 -0.00000000000E+00 -0.74505805969E-08  0.93827000000E+00  0.93827000000E+00 0. -1.
     999903    2    1    2    0    0 -0.49530660543E-01  0.39756043508E-01  0.60975232550E-01  0.90672017898E-01  0.21670406456E-01 0.  0.
         14    1    1    2    0    0 -0.11777098705E-01  0.65972018226E-02 -0.68559090819E-01  0.69875403825E-01  0.00000000000E+00 0.  1.
     999901    1    1    2    0    0  0.61307759248E-01 -0.46353245331E-01  0.75838582682E-02  0.88338257828E+00  0.88000000000E+00 0. -1.
        -11    1    3    3    0    0 -0.45965879651E-01  0.33933589923E-01  0.43218207891E-01  0.71640946612E-01  0.51100000000E-03 0.  1.
         11    1    3    3    0    0 -0.35647808919E-02  0.58224535852E-02  0.17757024659E-01  0.19031071286E-01  0.51100000000E-03 0. -1.
</event>
<event>
 8    1  0.1101883E+005  0.1043930E+01  0.7957747E-01            NaN
         13   -1    0    0    0    0  0.00000000000E+00  0.00000000000E+00  0.74505805969E-08  0.10566000000E+00  0.10566000000E+00 0.  1.
     999900   -1    0    0    0    0 -0.00000000000E+00 -0.00000000000E+00 -0.74505805969E-08  0.93827000000E+00  0.93827000000E+00 0.  1.
     999902    2    1    2    0    0 -0.13611327424E-02  0.76675921083E-02  0.22263204393E-01  0.10203440949E+01  0.10200714568E+01 0.  0.
     999903    2    3    3    0    0  0.60087521028E-01 -0.84892950929E-01  0.78183771328E-01  0.13159750501E+00  0.19694616648E-01 0.  0.
         14    1    1    2    0    0  0.13611327424E-02 -0.76675921083E-02 -0.22263204393E-01  0.23585905133E-01  0.00000000000E+00 0. -1.
     999901    1    3    3    0    0 -0.61448653770E-01  0.92560543037E-01 -0.55920566935E-01  0.88874658986E+00  0.88000000000E+00 0.  1.
        -11    1    4    4    0    0  0.44066171940E-01 -0.65689199035E-01  0.48531571066E-01  0.92803409908E-01  0.51100000000E-03 0. -1.
         11    1    4    4    0    0  0.16021349088E-01 -0.19203751893E-01  0.29652200262E-01  0.38794095102E-01  0.51100000000E-03 0.  1.
</event>
<event>
 8    1  0.1101883E+005  0.1043930E+01  0.7957747E-01            NaN
         13   -1    0    0    0    0  0.00000000000E+00  0.00000000000E+00  0.74505805969E-08  0.10566000000E+00  0.10566000000E+00 0.  1.
     999900   -1    0    0    0    0 -0.00000000000E+00 -0.00000000000E+00 -0.74505805969E-08  0.93827000000E+00  0.93827000000E+00 0. -1.
     999902    2    1    2    0    0  0.20896783439E-01 -0.34249859041E-04 -0.77080098529E-02  0.10216569188E+01  0.10214141029E+01 0.  0.
     999903    2    3    3    0    0  0.12723701825E+00  0.86962725646E-02  0.36100398562E-01  0.13413021822E+00  0.20561923413E-01 0.  0.
         14    1    1    2    0    0 -0.20896783439E-01  0.34249859041E-04  0.77080098529E-02  0.22273081220E-01  0.00000000000E+00 0.  1.
     999901    1    3    3    0    0 -0.10634023481E+00 -0.87305224236E-02 -0.43808408415E-01  0.88752670056E+00  0.88000000000E+00 0. -1.
        -11    1    4    4    0    0  0.56829035646E-01  0.13230849128E-01  0.12002733004E-01  0.59572824188E-01  0.51100000000E-03 0.  1.
         11    1    4    4    0    0  0.70407982600E-01 -0.45345765636E-02  0.24097665558E-01  0.74557394032E-01  0.51100000000E-03 0. -1.
</event>
<event>
 8    1  0.1101883E+005  0.1043930E+01  0.7957747E-01            NaN
         13   -1    0    0    0    0  0.00000000000E+00  0.00000000000E+00  0.74505805969E-08  0.10566000000E+00  0.10566000000E+00 0. -1.
     999900   -1    0    0    0    0 -0.00000000000E+00 -0.00000000000E+00 -0.74505805969E-08  0.93827000000E+00  0.93827000000E+00 0. -1.
     999902    2    1    2    0    0  0.28756229029E-02 -0.71856609885E-02 -0.24048331496E-01  0.10186668811E+01  0.10183535680E+01 0.  0.
     999903    2    3    3    0    0 -0.31340417221E-02  0.11120231003E+00  0.57935522095E-01  0.12694204682E+00  0.19544374055E-01 0.  0.
         14    1    1    2    0    0 -0.28756229029E-02  0.71856609885E-02  0.24048331496E-01  0.25263118942E-01  0.00000000000E+00 0. -1.
     999901    1    3    3    0    0  0.60096646250E-02 -0.11838797102E+00 -0.81983853590E-01  0.89172483424E+00  0.88000000000E+00 0. -1.
        -11    1    4    4    0    0 -0.60709471366E-02  0.47082336273E-01  0.15284034191E-01  0.49874498596E-01  0.51100000000E-03 0.  1.
         11    1    4    4    0    0  0.29369054146E-02  0.64119973755E-01  0.42651487903E-01  0.77067548223E-01  0.51100000000E-03 0. -1.
</event>
<event>
 8    1  0.1101883E+005  0.1043930E+01  0.7957747E-01            NaN
         13   -1    0    0    0    0  0.00000000000E+00  0.00000000000E+00  0.74505805969E-08  0.10566000000E+00  0.10566000000E+00 0.  1.
     999900   -1    0    0    0    0 -0.00000000000E+00 -0.00000000000E+00 -0.74505805969E-08  0.93827000000E+00  0.93827000000E+00 0.  1.
     999902    2    1    2    0    0 -0.21893398582E-01 -0.19741713494E-02 -0.82163526278E-02  0.10204624329E+01  0.10201925555E+01 0.  0.
     999903    2    3    3    0    0 -0.56665066187E-01 -0.79074946498E-01  0.86002171727E-01  0.13140072037E+00  0.20149413945E-01 0.  0.
         14    1    1    2    0    0  0.21893398582E-01  0.19741713494E-02  0.82163526278E-02  0.23467567077E-01  0.00000000000E+00 0. -1.
     999901    1    3    3    0    0  0.34771667605E-01  0.77100775149E-01 -0.94218524355E-01  0.88906171255E+00  0.88000000000E+00 0.  1.
        -11    1    4    4    0    0 -0.20461509778E-01 -0.25419759166E-01  0.41744906501E-01  0.52988072981E-01  0.51100000000E-03 0.  1.
         11    1    4    4    0    0 -0.36203556409E-01 -0.53655187332E-01  0.44257265226E-01  0.78412647389E-01  0.51100000000E-03 0. -1.
</event>
<event>
 8    1  0.1101883E+005  0.1043930E+01  0.7957747E-01            NaN
         13   -1    0    0    0    0  0.00000000000E+00  0.00000000000E+00  0.74505805969E-08  0.10566000000E+00  0.10566000000E+00 0.  1.
     999900   -1    0    0    0    0 -0.00000000000E+00 -0.00000000000E+00 -0.74505805969E-08  0.93827000000E+00  0.93827000000E+00 0.  1.
     999902    2    1    2    0    0  0.13261935727E-01  0.19898442631E-01  0.40746780589E-02  0.10196724247E+01  0.10193838451E+01 0.  0.
     999903    2    3    3    0    0 -0.11061299761E+00 -0.18672442574E-01 -0.57873666050E-01  0.12800527288E+00  0.21262485971E-01 0.  0.
         14    1    1    2    0    0 -0.13261935727E-01 -0.19898442631E-01 -0.40746780589E-02  0.24257575304E-01  0.00000000000E+00 0.  1.
     999901    1    3    3    0    0  0.12387493334E+00  0.38570885205E-01  0.61948344109E-01  0.89166715182E+00  0.88000000000E+00 0. -1.
        -11    1    4    4    0    0 -0.68023666862E-01 -0.96720151163E-02 -0.46646933828E-01  0.83047966178E-01  0.51100000000E-03 0. -1.
         11    1    4    4    0    0 -0.42589330751E-01 -0.90004274578E-02 -0.11226732222E-01  0.44957306699E-01  0.51100000000E-03 0.  1.
</event>
<event>
 8    1  0.1101883E+005  0.1043930E+01  0.7957747E-01            NaN
         13   -1    0    0    0    0  0.00000000000E+00  0.00000000000E+00  0.74505805969E-08  0.10566000000E+00  0.10566000000E+00 0.  1.
     999900   -1    0    0    0    0 -0.00000000000E+00 -0.00000000000E+00 -0.74505805969E-08  0.93827000000E+00  0.93827000000E+00 0. -1.
     999902    2    1    2    0    0 -0.67060997343E-02 -0.12624387335E-01  0.18119703086E-01  0.10208503430E+01  0.10205894141E+01 0.  0.
     999903    2    3    3    0    0  0.17709835177E-01  0.12513334043E+00 -0.16306332997E-01  0.12913375043E+00  0.20919795774E-01 0.  0.
         14    1    1    2    0    0  0.67060997343E-02  0.12624387335E-01 -0.18119703086E-01  0.23079657042E-01  0.00000000000E+00 0. -1.
     999901    1    3    3    0    0 -0.24415934911E-01 -0.13775772776E+00  0.34426036083E-01  0.89171659253E+00  0.88000000000E+00 0.  1.
        -11    1    4    4    0    0 -0.37962755988E-02  0.43166412400E-01 -0.66293667815E-02  0.43840169854E-01  0.51100000000E-03 0. -1.
         11    1    4    4    0    0  0.21506110776E-01  0.81966928027E-01 -0.96769662156E-02  0.85293580573E-01  0.51100000000E-03 0.  1.
</event>
<event>
 8    1  0.1101883E+005  0.1043930E+01  0.7957747E-01            NaN
         13   -1    0    0    0    0  0.00000000000E+00  0.00000000000E+00  0.74505805969E-08  0.10566000000E+00  0.10566000000E+00 0. -1.
     999900   -1    0    0    0    0 -0.00000000000E+00 -0.00000000000E+00 -0.74505805969E-08  0.93827000000E+00  0.93827000000E+00 0. -1.
     999902    2    1    2    0    0  0.16581788431E-01 -0.10501206576E-01  0.13741167019E-01  0.10199706445E+01  0.10196892001E+01 0.  0.
     999903    2    3    3    0    0  0.12184983762E+00  0.13057646396E-01  0.46552142277E-01  0.13277678637E+00  0.21087626477E-01 0.  0.
         14    1    1    2    0    0 -0.16581788431E-01  0.10501206576E-01 -0.13741167019E-01  0.23959355546E-01  0.00000000000E+00 0.  1.
     999901    1    3    3    0    0 -0.10526804918E+00 -0.23558852972E-01 -0.32810975258E-01  0.88719385809E+00  0.88000000000E+00 0. -1.
        -11    1    4    4    0    0  0.56469170044E-01 -0.12495863451E-02  0.13244722411E-01  0.58017345891E-01  0.51100000000E-03 0.  1.
         11    1    4    4    0    0  0.65380667572E-01  0.14307232742E-01  0.33307419867E-01  0.74759440475E-01  0.51100000000E-03 0. -1.
</event>
<event>
 8    1  0.1101883E+005  0.1043930E+01  0.7957747E-01            NaN
         13   -1    0    0    0    0  0.00000000000E+00  0.00000000000E+00  0.74505805969E-08  0.10566000000E+00  0.10566000000E+00 0.  1.
     999900   -1    0    0    0    0 -0.00000000000E+00 -0.00000000000E+00 -0.74505805969E-08  0.93827000000E+00  0.93827000000E+00 0.  1.
     999902    2    1    2    0    0  0.85953426124E-03  0.11247124022E-01  0.20844649231E-01  0.10202290296E+01  0.10199536934E+01 0.  0.
     999903    2    3    3    0    0 -0.97832098433E-01 -0.76624656645E-01  0.33597672205E-01  0.13027165542E+00  0.19986073618E-01 0.  0.
         14    1    1    2    0    0 -0.85953426124E-03 -0.11247124022E-01 -0.20844649231E-01  0.23700970433E-01  0.00000000000E+00 0. -1.
     999901    1    3    3    0    0  0.98691632694E-01  0.87871780667E-01 -0.12753022974E-01  0.88995737415E+00  0.88000000000E+00 0.  1.
        -11    1    4    4    0    0 -0.67542219923E-01 -0.49653899304E-01  0.31835402391E-01  0.89672822832E-01  0.51100000000E-03 0.  1.
         11    1    4    4    0    0 -0.30289878510E-01 -0.26970757341E-01  0.17622698148E-02  0.40598832589E-01  0.51100000000E-03 0. -1.
</event>
<event>
 8    1  0.1101883E+005  0.1043930E+01  0.7957747E-01            NaN
         13   -1    0    0    0    0  0.00000000000E+00  0.00000000000E+00  0.74505805969E-08  0.10566000000E+00  0.10566000000E+00 0. -1.
     999900   -1    0    0    0    0 -0.00000000000E+00 -0.00000000000E+00 -0.74505805969E-08  0.93827000000E+00  0.93827000000E+00 0. -1.
     999902    2    1    2    0    0  0.15332067424E-01 -0.17560669431E-01 -0.35733558457E-02  0.10203457198E+01  0.10200731197E+01 0.  0.
     999903    2    3    3    0    0  0.42684654707E-01  0.18500834432E-01  0.12048342714E+00  0.13049254002E+00  0.18649025801E-01 0.  0.
         14    1    1    2    0    0 -0.15332067424E-01  0.17560669431E-01  0.35733558457E-02  0.23584280238E-01  0.00000000000E+00 0.  1.
     999901    1    3    3    0    0 -0.27352587284E-01 -0.36061503863E-01 -0.12405678299E+00  0.88985317974E+00  0.88000000000E+00 0. -1.
        -11    1    4    4    0    0  0.63564035963E-02  0.90151463622E-02  0.15783801678E-01  0.19263079895E-01  0.51100000000E-03 0. -1.
         11    1    4    4    0    0  0.36328251111E-01  0.94856880700E-02  0.10469962546E+00  0.11122946013E+00  0.51100000000E-03 0.  1.
</event>
<event>
 8    1  0.1101883E+005  0.1043930E+01  0.7957747E-01            NaN
         13   -1    0    0    0    0  0.00000000000E+00  0.00000000000E+00  0.74505805969E-08  0.10566000000E+00  0.10566000000E+00 0.  1.
     999900   -1    0    0    0    0 -0.00000000000E+00 -0.00000000000E+00 -0.74505805969E-08  0.93827000000E+00  0.93827000000E+00 0.  1.
     999902    2    1    2    0    0 -0.83489657151E-02 -0.16284465809E-01 -0.15369791610E-01  0.10200318923E+01  0.10197519021E+01 0.  0.
     999903    2    3    3    0    0 -0.11841277486E+00  0.39476554033E-01 -0.34646117287E-01  0.13121531389E+00  0.20907452926E-01 0.  0.
         14    1    1    2    0    0  0.83489657151E-02  0.16284465809E-01  0.15369791610E-01  0.23898107651E-01  0.00000000000E+00 0.  1.
     999901    1    3    3    0    0  0.11006380914E+00 -0.55761019842E-01  0.19276325677E-01  0.88881657846E+00  0.88000000000E+00 0.  1.
        -11    1    4    4    0    0 -0.39997276869E-01  0.23938176497E-01 -0.12567791625E-01  0.48280730714E-01  0.51100000000E-03 0.  1.
         11    1    4    4    0    0 -0.78415497987E-01  0.15538377537E-01 -0.22078325662E-01  0.82934583173E-01  0.51100000000E-03 0. -1.
</event>
<event>
 8    1  0.1101883E+005  0.1043930E+01  0.7957747E-01            NaN
         13   -1    0    0    0    0  0.00000000000E+00  0.00000000000E+00  0.74505805969E-08  0.10566000000E+00  0.10566000000E+00 0.  1.
     999900   -1    0    0    0    0 -0.00000000000E+00 -0.00000000000E+00 -0.74505805969E-08  0.93827000000E+00  0.93827000000E+00 0.  1.
     999902    2    1    2    0    0 -0.22833472925E-01  0.90752594801E-02 -0.56300765169E-03  0.10193526772E+01  0.10190563457E+01 0.  0.
     999903    2    3    3    0    0  0.70463856707E-01  0.82950008426E-02 -0.10409704157E+00  0.12838449776E+00  0.24747182904E-01 0.  0.
         14    1    1    2    0    0  0.22833472925E-01 -0.90752594801E-02  0.56300765169E-03  0.24577322842E-01  0.00000000000E+00 0. -1.
     999901    1    3    3    0    0 -0.93297329632E-01  0.78025863755E-03  0.10353403391E+00  0.89096817940E+00  0.88000000000E+00 0. -1.
        -11    1    4    4    0    0  0.50428225298E-01  0.10819177339E-01 -0.55554034192E-01  0.75806149757E-01  0.51100000000E-03 0. -1.
         11    1    4    4    0    0  0.20035631409E-01 -0.25241764968E-02 -0.48543007374E-01  0.52578348004E-01  0.51100000000E-03 0.  1.
</event>
<event>
 8    1  0.1101883E+005  0.1043930E+01  0.7957747E-01            NaN
         13   -1    0    0    0    0  0.00000000000E+00  0.00000000000E+00  0.74505805969E-08  0.10566000000E+00  0.10566000000E+00 0. -1.
     999900   -1    0    0    0    0 -0.00000000000E+00 -0.00000000000E+00 -0.74505805969E-08  0.93827000000E+00  0.93827000000E+00 0.  1.
     999902    2    1    2    0    0 -0.11380862919E-01 -0.10704272537E-01  0.19798482581E-01  0.10187092664E+01  0.10183970169E+01 0.  0.
     999903    2    3    3    0    0 -0.57070504012E-01  0.10022608412E+00 -0.51379394800E-01  0.12772140028E+00  0.19251065236E-01 0.  0.
         14    1    1    2    0    0  0.11380862919E-01  0.10704272537E-01 -0.19798482581E-01  0.25220733610E-01  0.00000000000E+00 0.  1.
     999901    1    3    3    0    0  0.45689641094E-01 -0.11093035666E+00  0.71177877381E-01  0.89098786611E+00  0.88000000000E+00 0. -1.
        -11    1    4    4    0    0 -0.32120242866E-01  0.42319570103E-01 -0.16351796577E-01  0.55590452307E-01  0.51100000000E-03 0. -1.
         11    1    4    4    0    0 -0.24950261147E-01  0.57906514016E-01 -0.35027598223E-01  0.72130947970E-01  0.51100000000E-03 0.  1.
</event>
<event>
 8    1  0.1101883E+005  0.1043930E+01  0.7957747E-01            NaN
         13   -1    0    0    0    0  0.00000000000E+00  0.00000000000E+00  0.74505805969E-08  0.10566000000E+00  0.10566000000E+00 0. -1.
     999900   -1    0    0    0    0 -0.00000000000E+00 -0.00000000000E+00 -0.74505805969E-08  0.93827000000E+00  0.93827000000E+00 0. -1.
     999902    2    1    2    0    0 -0.19635316237E-02 -0.38338608893E-02  0.23784916137E-01  0.10197581945E+01  0.10194716764E+01 0.  0.
     999903    2    3    3    0    0 -0.57204355927E-01  0.75499763202E-01  0.89474440663E-01  0.13203048499E+00  0.21303071506E-01 0.  0.
         14    1    1    2    0    0  0.19635316237E-02  0.38338608893E-02 -0.23784916137E-01  0.24171805505E-01  0.00000000000E+00 0.  1.
     999901    1    3    3    0    0  0.55240824303E-01 -0.79333624091E-01 -0.65689524526E-01  0.88772770950E+00  0.88000000000E+00 0.  1.
        -11    1    4    4    0    0 -0.36061278694E-01  0.59678123246E-01  0.72737766058E-01  0.10076178813E+00  0.51100000000E-03 0.  1.
         11    1    4    4    0    0 -0.21143077233E-01  0.15821639956E-01  0.16736674605E-01  0.31268696865E-01  0.51100000000E-03 0. -1.
</event>
<event>
 8    1  0.1101883E+005  0.1043930E+01  0.7957747E-01            NaN
         13   -1    0    0    0    0  0.00000000000E+00  0.00000000000E+00  0.74505805969E-08  0.10566000000E+00  0.10566000000E+00 0. -1.
     999900   -1    0    0    0    0 -0.00000000000E+00 -0.00000000000E+00 -0.74505805969E-08  0.93827000000E+00  0.93827000000E+00 0. -1.
     999902    2    1    2    0    0 -0.35533762834E-02  0.16483507758E-01 -0.16448876808E-01  0.10203737257E+01  0.10201017802E+01 0.  0.
     999903    2    3    3    0    0 -0.40923150903E-01  0.89680508204E-01  0.83707376994E-01  0.13088759533E+00  0.20182661290E-01 0.  0.
         14    1    1    2    0    0  0.35533762834E-02 -0.16483507758E-01  0.16448876808E-01  0.23556274308E-01  0.00000000000E+00 0. -1.
     999901    1    3    3    0    0  0.37369774619E-01 -0.73197000446E-01 -0.10015625380E+00  0.88948613036E+00  0.88000000000E+00 0. -1.
        -11    1    4    4    0    0 -0.19362790190E-01  0.22381539079E-01  0.29822672236E-01  0.42017898993E-01  0.51100000000E-03 0.  1.
         11    1    4    4    0    0 -0.21560360713E-01  0.67298969125E-01  0.53884704758E-01  0.88869696338E-01  0.51100000000E-03 0. -1.
</event>
<event>
 8    1  0.1101883E+005  0.1043930E+01  0.7957747E-01            NaN
         13   -1    0    0    0    0  0.00000000000E+00  0.00000000000E+00  0.74505805969E-08  0.10566000000E+00  0.10566000000E+00 0.  1.
     999900   -1    0    0    0    0 -0.00000000000E+00 -0.00000000000E+00 -0.74505805969E-08  0.93827000000E+00  0.93827000000E+00 0. -1.
     999902    2    1    2    0    0  0.22527280014E-01  0.49882180244E-02  0.14871505177E-02  0.10208091808E+01  0.10205473097E+01 0.  0.
     999903    2    3    3    0    0 -0.92969682972E-01  0.83020217663E-01  0.29184599798E-01  0.12940821035E+00  0.18947969464E-01 0.  0.
         14    1    1    2    0    0 -0.22527280014E-01 -0.49882180244E-02 -0.14871505177E-02  0.23120819201E-01  0.00000000000E+00 0. -1.
     999901    1    3    3    0    0  0.11549696299E+00 -0.78031999639E-01 -0.27697449280E-01  0.89140097045E+00  0.88000000000E+00 0. -1.
        -11    1    4    4    0    0 -0.53660532405E-01  0.59900186500E-01  0.16959569433E-01  0.82191077357E-01  0.51100000000E-03 0.  1.
         11    1    4    4    0    0 -0.39309150567E-01  0.23120031163E-01  0.12225030365E-01  0.47217132989E-01  0.51100000000E-03 0. -1.
</event>
<event>
 8    1  0.1101883E+005  0.1043930E+01  0.7957747E-01            NaN
         13   -1    0    0    0    0  0.00000000000E+00  0.00000000000E+00  0.74505805969E-08  0.10566000000E+00  0.10566000000E+00 0. -1.
     999900   -1    0    0    0    0 -0.00000000000E+00 -0.00000000000E+00 -0.74505805969E-08  0.93827000000E+00  0.93827000000E+00 0.  1.
     999902    2    1    2    0    0 -0.16390169435E-01 -0.67056883631E-02  0.14420918539E-01  0.10210921629E+01  0.10208367344E+01 0.  0.
     999903    2    3    3    0    0 -0.42044541216E-01 -0.52248596634E-01  0.11409586182E+00  0.13392397279E+00  0.20496475462E-01 0.  0.
         14    1    1    2    0    0  0.16390169435E-01  0.67056883631E-02 -0.14420918539E-01  0.22837837070E-01  0.00000000000E+00 0.  1.
     999901    1    3    3    0    0  0.25654371781E-01  0.45542908271E-01 -0.99674943280E-01  0.88716819014E+00  0.88000000000E+00 0.  1.
        -11    1    4    4    0    0 -0.69074456907E-02 -0.20390888090E-01  0.25059132597E-01  0.33041222293E-01  0.51100000000E-03 0.  1.
         11    1    4    4    0    0 -0.35137095525E-01 -0.31857708544E-01  0.89036729222E-01  0.10088275049E+00  0.51100000000E-03 0. -1.
</event>
<event>
 8    1  0.1101883E+005  0.1043930E+01  0.7957747E-01            NaN
         13   -1    0    0    0    0  0.00000000000E+00  0.00000000000E+00  0.74505805969E-08  0.10566000000E+00  0.10566000000E+00 0.  1.
     999900   -1    0    0    0    0 -0.00000000000E+00 -0.00000000000E+00 -0.74505805969E-08  0.93827000000E+00  0.93827000000E+00 0.  1.
     999902    2    1    2    0    0 -0.11247561020E-01 -0.40198734673E-02  0.20231481605E-01  0.10204357484E+01  0.10201652497E+01 0.  0.
     999903    2    3    3    0    0  0.60527932934E-01 -0.41015056420E-02 -0.11075979011E+00  0.12784937078E+00  0.19931821019E-01 0.  0.
         14    1    1    2    0    0  0.11247561020E-01  0.40198734673E-02 -0.20231481605E-01  0.23494251627E-01  0.00000000000E+00 0. -1.
     999901    1    3    3    0    0 -0.71775493954E-01  0.81632174703E-04  0.13099127172E+00  0.89258637759E+00  0.88000000000E+00 0. -1.
        -11    1    4    4    0    0  0.30371265649E-01 -0.30494988220E-02 -0.75495269479E-01  0.81434084110E-01  0.51100000000E-03 0.  1.
         11    1    4    4    0    0  0.30156667285E-01 -0.10520068200E-02 -0.35264520635E-01  0.46415286670E-01  0.51100000000E-03 0. -1.
</event>
<event>
 8    1  0.1101883E+005  0.1043930E+01  0.7957747E-01            NaN
         13   -1    0    0    0    0  0.00000000000E+00  0.00000000000E+00  0.74505805969E-08  0.10566000000E+00  0.10566000000E+00 0.  1.
     999900   -1    0    0    0    0 -0.00000000000E+00 -0.00000000000E+00 -0.74505805969E-08  0.93827000000E+00  0.93827000000E+00 0. -1.
     999902    2    1    2    0    0  0.16533772008E-03  0.19904114400E-01  0.99970051129E-02  0.10216557723E+01  0.10214129312E+01 0.  0.
     999903    2    3    3    0    0  0.76333865267E-01  0.65372418717E-01 -0.83722309161E-01  0.13224455071E+00  0.19462374643E-01 0.  0.
         14    1    1    2    0    0 -0.16533772008E-03 -0.19904114400E-01 -0.99970051129E-02  0.22274227660E-01  0.00000000000E+00 0. -1.
     999901    1    3    3    0    0 -0.76168527547E-01 -0.45468304317E-01  0.93719314274E-01  0.88941122163E+00  0.88000000000E+00 0.  1.
        -11    1    4    4    0    0  0.63743177756E-01  0.43992448244E-01 -0.65857356712E-01  0.10166602563E+00  0.51100000000E-03 0. -1.
         11    1    4    4    0    0  0.12590687512E-01  0.21379970473E-01 -0.17864952449E-01  0.30578525086E-01  0.51100000000E-03 0.  1.
</event>
<event>
 8    1  0.1101883E+005  0.1043930E+01  0.7957747E-01            NaN
         13   -1    0    0    0    0  0.00000000000E+00  0.00000000000E+00  0.74505805969E-08  0.10566000000E+00  0.10566000000E+00 0.  1.
     999900   -1    0    0    0    0 -0.00000000000E+00 -0.00000000000E+00 -0.74505805969E-08  0.93827000000E+00  0.93827000000E+00 0.  1.
     999902    2    1    2    0    0 -0.18078980058E-01  0.13202080174E-01  0.75043774518E-02  0.10203194066E+01  0.10200461908E+01 0.  0.
     999903    2    3    3    0    0 -0.98815899025E-01  0.78603765216E-01 -0.37483554419E-01  0.13306535925E+00  0.18927207222E-01 0.  0.
         14    1    1    2    0    0  0.18078980058E-01 -0.13202080174E-01 -0.75043774518E-02  0.23610593423E-01  0.00000000000E+00 0. -1.
     999901    1    3    3    0    0  0.80736918967E-01 -0.65401685042E-01  0.44987931871E-01  0.88725404733E+00  0.88000000000E+00 0. -1.
        -11    1    4    4    0    0 -0.78727948733E-01  0.62367496797E-01 -0.37556022912E-01  0.10723110811E+00  0.51100000000E-03 0. -1.
         11    1    4    4    0    0 -0.20087950292E-01  0.16236268419E-01  0.72468493493E-04  0.25834251136E-01  0.51100000000E-03 0.  1.
</event>
<event>
 8    1  0.1101883E+005  0.1043930E+01  0.7957747E-01            NaN
         13   -1    0    0    0    0  0.00000000000E+00  0.00000000000E+00  0.74505805969E-08  0.10566000000E+00  0.10566000000E+00 0. -1.
     999900   -1    0    0    0    0 -0.00000000000E+00 -0.00000000000E+00 -0.74505805969E-08  0.93827000000E+00  0.93827000000E+00 0.  1.
     999902    2    1    2    0    0  0.11752928093E-01 -0.17624384716E-01  0.91417433960E-02  0.10208579015E+01  0.10205971455E+01 0.  0.
     999903    2    3    3    0    0  0.34412082663E-01 -0.21878340009E-01 -0.12275060956E+00  0.13073031169E+00  0.18969687764E-01 0.  0.
         14    1    1    2    0    0 -0.11752928093E-01  0.17624384716E-01 -0.91417433960E-02  0.23072098468E-01  0.00000000000E+00 0. -1.
     999901    1    3    3    0    0 -0.22659154570E-01  0.42539552930E-02  0.13189235296E+00  0.89012758984E+00  0.88000000000E+00 0. -1.
        -11    1    4    4    0    0  0.11574502338E-01 -0.26819234183E-02 -0.61002064974E-01  0.62150421315E-01  0.51100000000E-03 0.  1.
         11    1    4    4    0    0  0.22837580325E-01 -0.19196416591E-01 -0.61748544585E-01  0.68579890380E-01  0.51100000000E-03 0. -1.
</event>
<event>
 8    1  0.1101883E+005  0.1043930E+01  0.7957747E-01            NaN
         13   -1    0    0    0    0  0.00000000000E+00  0.00000000000E+00  0.74505805969E-08  0.10566000000E+00  0.10566000000E+00 0. -1.
     999900   -1    0    0    0    0 -0.00000000000E+00 -0.00000000000E+00 -0.74505805969E-08  0.93827000000E+00  0.93827000000E+00 0.  1.
     999902    2    1    2    0    0 -0.14320863628E-01 -0.93388084820E-02 -0.16223290159E-01  0.10203610454E+01  0.10200888036E+01 0.  0.
     999903    2    3    3    0    0  0.12145968466E-01 -0.91187709617E-01 -0.93793900183E-01  0.13277052302E+00  0.19183147199E-01 0.  0.
         14    1    1    2    0    0  0.14320863628E-01  0.93388084820E-02  0.16223290159E-01  0.23568954633E-01  0.00000000000E+00 0. -1.
     999901    1    3    3    0    0 -0.26466832094E-01  0.81848901135E-01  0.77570610024E-01  0.88759052235E+00  0.88000000000E+00 0.  1.
        -11    1    4    4    0    0  0.86719107653E-02 -0.54753097856E-01 -0.42987915920E-01  0.70152161744E-01  0.51100000000E-03 0. -1.
         11    1    4    4    0    0  0.34740577009E-02 -0.36434611761E-01 -0.50805984263E-01  0.62618361277E-01  0.51100000000E-03 0.  1.
</event>
<event>
 8    1  0.1101883E+005  0.1043930E+01  0.7957747E-01            NaN
         13   -1    0    0    0    0  0.00000000000E+00  0.00000000000E+00  0.74505805969E-08  0.10566000000E+00  0.10566000000E+00 0.  1.
     999900   -1    0    0    0    0 -0.00000000000E+00 -0.00000000000E+00 -0.74505805969E-08  0.93827000000E+00  0.93827000000E+00 0.  1.
     999902    2    1    2    0    0 -0.10123299237E-01  0.13998594541E-01  0.16372533185E-01  0.10201287042E+01  0.10198510046E+01 0.  0.
     999903    2    3    3    0    0  0.84288404183E-01  0.90425742116E-01 -0.36375570715E-01  0.13022025890E+00  0.18782538900E-01 0.  0.
         14    1    1    2    0    0  0.10123299237E-01 -0.13998594541E-01 -0.16372533185E-01  0.23801295752E-01  0.00000000000E+00 0. -1.
     999901    1    3    3    0    0 -0.94411703419E-01 -0.76427147574E-01  0.52748103900E-01  0.88990844534E+00  0.88000000000E+00 0. -1.
        -11    1    4    4    0    0  0.19590754821E-01  0.33729593316E-01 -0.11129170452E-01  0.40566028838E-01  0.51100000000E-03 0. -1.
         11    1    4    4    0    0  0.64697649362E-01  0.56696148800E-01 -0.25246400262E-01  0.89654230067E-01  0.51100000000E-03 0.  1.
</event>
<event>
 8    1  0.1101883E+005  0.1043930E+01  0.7957747E-01            NaN
         13   -1    0    0    0    0  0.00000000000E+00  0.00000000000E+00  0.74505805969E-08  0.10566000000E+00  0.10566000000E+00 0. -1.
     999900   -1    0    0    0    0 -0.00000000000E+00 -0.00000000000E+00 -0.74505805969E-08  0.93827000000E+00  0.93827000000E+00 0.  1.
     999902    2    1    2    0    0 -0.12483782888E-01  0.16089562203E-01 -0.10238414032E-01  0.10211364928E+01  0.10208820662E+01 0.  0.
     999903    2    3    3    0    0  0.25049716303E-01  0.84145223639E-02  0.12566952554E+00  0.12987971848E+00  0.19432425166E-01 0.  0.
         14    1    1    2    0    0  0.12483782888E-01 -0.16089562203E-01  0.10238414032E-01  0.22793507167E-01  0.00000000000E+00 0. -1.
     999901    1    3    3    0    0 -0.37533499191E-01  0.76750398391E-02 -0.13590793957E+00  0.89125677436E+00  0.88000000000E+00 0.  1.
        -11    1    4    4    0    0  0.10675778471E-01  0.11716699469E-01  0.41514873100E-01  0.44440961982E-01  0.51100000000E-03 0. -1.
         11    1    4    4    0    0  0.14373937832E-01 -0.33021771055E-02  0.84154652442E-01  0.85438756493E-01  0.51100000000E-03 0.  1.
</event>
<event>
 8    1  0.1101883E+005  0.1043930E+01  0.7957747E-01            NaN
         13   -1    0    0    0    0  0.00000000000E+00  0.00000000000E+00  0.74505805969E-08  0.10566000000E+00  0.10566000000E+00 0.  1.
     999900   -1    0    0    0    0 -0.00000000000E+00 -0.00000000000E+00 -0.74505805969E-08  0.93827000000E+00  0.93827000000E+00 0. -1.
     999902    2    1    2    0    0  0.19163956507E-01 -0.98821201502E-02 -0.96275259382E-02  0.10203163856E+01  0.10200430991E+01 0.  0.
     999903    2    3    3    0    0 -0.29931673972E-01 -0.48295629185E-01 -0.11703906618E+00  0.13159639734E+00  0.19776144109E-01 0.  0.
         14    1    1    2    0    0 -0.19163956507E-01  0.98821201502E-02  0.96275259382E-02  0.23613614365E-01  0.00000000000E+00 0.  1.
     999901    1    3    3    0    0  0.49095630480E-01  0.38413509035E-01  0.10741154025E+00  0.88871998829E+00  0.88000000000E+00 0.  1.
        -11    1    4    4    0    0 -0.22403250133E-01 -0.39295100815E-01 -0.10691223549E+00  0.11608831889E+00  0.51100000000E-03 0.  1.
         11    1    4    4    0    0 -0.75284238392E-02 -0.90005283703E-02 -0.10126830697E-01  0.15508078457E-01  0.51100000000E-03 0. -1.
</event>
<event>
 8    1  0.1101883E+005  0.1043930E+01  0.7957747E-01            NaN
         13   -1    0    0    0    0  0.00000000000E+00  0.00000000000E+00  0.74505805969E-08  0.10566000000E+00  0.10566000000E+00 0.  1.
     999900   -1    0    0    0    0 -0.00000000000E+00 -0.00000000000E+00 -0.74505805969E-08  0.93827000000E+00  0.93827000000E+00 0. -1.
     999902    2    1    2    0    0 -0.10602143898E-01 -0.16421804628E-01  0.13820935370E-01  0.10199905059E+01  0.10197095335E+01 0.  0.
     999903    2    3    3    0    0  0.10515643981E+00 -0.31981190182E-01 -0.64091707711E-01  0.12886059163E+00  0.20411558480E-01 0.  0.
         14    1    1    2    0    0  0.10602143898E-01  0.16421804628E-01 -0.13820935370E-01  0.23939494084E-01  0.00000000000E+00 0.  1.
     999901    1    3    3    0    0 -0.11575858371E+00  0.15559385554E-01  0.77912643081E-01  0.89112991428E+00  0.88000000000E+00 0.  1.
        -11    1    4    4    0    0  0.97864093591E-01 -0.33940712151E-01 -0.55888256799E-01  0.11769924012E+00  0.51100000000E-03 0.  1.
         11    1    4    4    0    0  0.72923462175E-02  0.19595219684E-02 -0.82034509123E-02  0.11161351512E-01  0.51100000000E-03 0. -1.
</event>
<event>
 8    1  0.1101883E+005  0.1043930E+01  0.7957747E-01            NaN
         13   -1    0    0    0    0  0.00000000000E+00  0.00000000000E+00  0.74505805969E-08  0.10566000000E+00  0.10566000000E+00 0.  1.
     999900   -1    0    0    0    0 -0.00000000000E+00 -0.00000000000E+00 -0.74505805969E-08  0.93827000000E+00  0.93827000000E+00 0. -1.
     999902    2    1    2    0    0 -0.68648600030E-02  0.21335361799E-01  0.66938002992E-02  0.10205391700E+01  0.10202710750E+01 0.  0.
     999903    2    3    3    0    0 -0.67577042554E-01  0.75281759616E-01  0.84530612064E-01  0.13337810671E+00  0.20255738974E-01 0.  0.
         14    1    1    2    0    0  0.68648600030E-02 -0.21335361799E-01 -0.66938002992E-02  0.23390830007E-01  0.00000000000E+00 0.  1.
     999901    1    3    3    0    0  0.60712182551E-01 -0.53946397817E-01 -0.77836811765E-01  0.88716106329E+00  0.88000000000E+00 0. -1.
        -11    1    4    4    0    0 -0.48495885663E-01  0.62793324647E-01  0.73016891787E-01  0.10782662080E+00  0.51100000000E-03 0.  1.
         11    1    4    4    0    0 -0.19081156891E-01  0.12488434970E-01  0.11513720277E-01  0.25551485904E-01  0.51100000000E-03 0. -1.
</event>
<event>
 8    1  0.1101883E+005  0.1043930E+01  0.7957747E-01            NaN
         13   -1    0    0    0    0  0.00000000000E+00  0.00000000000E+00  0.74505805969E-08  0.10566000000E+00  0.10566000000E+00 0.  1.
     999900   -1    0    0    0    0 -0.00000000000E+00 -0.00000000000E+00 -0.74505805969E-08  0.93827000000E+00  0.93827000000E+00 0.  1.
     999902    2    1    2    0    0  0.75757192006E-02 -0.25735625486E-01 -0.25927193146E-01  0.10066213779E+01  0.10059297516E+01 0.  0.
     999903    2    3    3    0    0  0.44868285824E-01  0.91173684486E-01 -0.55685757067E-01  0.11760838899E+00  0.20125252900E-01 0.  0.
         14    1    1    2    0    0 -0.75757192006E-02  0.25735625486E-01  0.25927193146E-01  0.37308622127E-01  0.00000000000E+00 0.  1.
     999901    1    3    3    0    0 -0.37292566623E-01 -0.11690930997E+00  0.29758563921E-01  0.88901298889E+00  0.88000000000E+00 0.  1.
        -11    1    4    4    0    0  0.20770185476E-01  0.40442802708E-01 -0.13707651939E-01  0.47488753808E-01  0.51100000000E-03 0. -1.
         11    1    4    4    0    0  0.24098100349E-01  0.50730881778E-01 -0.41978105128E-01  0.70119635178E-01  0.51100000000E-03 0.  1.
</event>
<event>
 8    1  0.1101883E+005  0.1043930E+01  0.7957747E-01            NaN
         13   -1    0    0    0    0  0.00000000000E+00  0.00000000000E+00  0.74505805969E-08  0.10566000000E+00  0.10566000000E+00 0.  1.
     999900   -1    0    0    0    0 -0.00000000000E+00 -0.00000000000E+00 -0.74505805969E-08  0.93827000000E+00  0.93827000000E+00 0. -1.
     999902    2    1    2    0    0 -0.15218022938E-01  0.11859920745E-01  0.37540639956E-02  0.10242744934E+01  0.10240858846E+01 0.  0.
     999903    2    3    3    0    0 -0.46732448338E-02  0.92758159385E-01  0.96851872758E-01  0.13561093540E+00  0.19599112081E-01 0.  0.
         14    1    1    2    0    0  0.15218022938E-01 -0.11859920745E-01 -0.37540639956E-02  0.19655506574E-01  0.00000000000E+00 0. -1.
     999901    1    3    3    0    0 -0.10544778104E-01 -0.80898238640E-01 -0.93097808763E-01  0.88866355802E+00  0.88000000000E+00 0. -1.
        -11    1    4    4    0    0 -0.44873497347E-02  0.24933793376E-01  0.15544936797E-01  0.29727706618E-01  0.51100000000E-03 0. -1.
         11    1    4    4    0    0 -0.18589509905E-03  0.67824366010E-01  0.81306935961E-01  0.10588322879E+00  0.51100000000E-03 0.  1.
</event>
<event>
 8    1  0.1101883E+005  0.1043930E+01  0.7957747E-01            NaN
         13   -1    0    0    0    0  0.00000000000E+00  0.00000000000E+00  0.74505805969E-08  0.10566000000E+00  0.10566000000E+00 0.  1.
     999900   -1    0    0    0    0 -0.00000000000E+00 -0.00000000000E+00 -0.74505805969E-08  0.93827000000E+00  0.93827000000E+00 0.  1.
     999902    2    1    2    0    0 -0.13914151891E-01 -0.95604246829E-02 -0.12505324454E-01  0.10229207524E+01  0.10227049806E+01 0.  0.
     999903    2    3    3    0    0 -0.61870156141E-01 -0.10767365234E+00  0.47043970894E-01  0.13417326167E+00  0.19178042707E-01 0.  0.
         14    1    1    2    0    0  0.13914151891E-01  0.95604246829E-02  0.12505324454E-01  0.21009247551E-01  0.00000000000E+00 0.  1.
     999901    1    3    3    0    0  0.47956004250E-01  0.98113227654E-01 -0.59549295348E-01  0.88874749078E+00  0.88000000000E+00 0.  1.
        -11    1    4    4    0    0 -0.29578375998E-01 -0.65171367560E-01  0.19891663187E-01  0.74284095617E-01  0.51100000000E-03 0. -1.
         11    1    4    4    0    0 -0.32291780142E-01 -0.42502284777E-01  0.27152307707E-01  0.59889166056E-01  0.51100000000E-03 0.  1.
</event>
<event>
 8    1  0.1101883E+005  0.1043930E+01  0.7957747E-01            NaN
         13   -1    0    0    0    0  0.00000000000E+00  0.00000000000E+00  0.74505805969E-08  0.10566000000E+00  0.10566000000E+00 0.  1.
     999900   -1    0    0    0    0 -0.00000000000E+00 -0.00000000000E+00 -0.74505805969E-08  0.93827000000E+00  0.93827000000E+00 0.  1.
     999902    2    1    2    0    0  0.21424317590E-02  0.10798687187E-01  0.22179039712E-01  0.10191689124E+01  0.10188680780E+01 0.  0.
     999903    2    3    3    0    0  0.68113588848E-01  0.48025996098E-02  0.11216431794E+00  0.13210324571E+00  0.14418993020E-01 0.  0.
         14    1    1    2    0    0 -0.21424317590E-02 -0.10798687187E-01 -0.22179039712E-01  0.24761087644E-01  0.00000000000E+00 0. -1.
     999901    1    3    3    0    0 -0.65971157089E-01  0.59960875768E-02 -0.89985278233E-01  0.88706566664E+00  0.88000000000E+00 0.  1.
        -11    1    4    4    0    0  0.64715924927E-02 -0.38380791663E-02  0.12238602439E-01  0.14375565093E-01  0.51100000000E-03 0.  1.
         11    1    4    4    0    0  0.61641996355E-01  0.86406787761E-02  0.99925715505E-01  0.11772768062E+00  0.51100000000E-03 0. -1.
</event>
<event>
 8    1  0.1101883E+005  0.1043930E+01  0.7957747E-01            NaN
         13   -1    0    0    0    0  0.00000000000E+00  0.00000000000E+00  0.74505805969E-08  0.10566000000E+00  0.10566000000E+00 0. -1.
     999900   -1    0    0    0    0 -0.00000000000E+00 -0.00000000000E+00 -0.74505805969E-08  0.93827000000E+00  0.93827000000E+00 0. -1.
     999902    2    1    2    0    0 -0.12874454059E-01 -0.16791107129E-01  0.94771928283E-02  0.10207457375E+01  0.10204824107E+01 0.  0.
     999903    2    3    3    0    0  0.83109903974E-01  0.65552195350E-01 -0.69830981635E-01  0.12817461817E+00  0.18655301978E-01 0.  0.
         14    1    1    2    0    0  0.12874454059E-01  0.16791107129E-01 -0.94771928283E-02  0.23184262547E-01  0.00000000000E+00 0.  1.
     999901    1    3    3    0    0 -0.95984358033E-01 -0.82343302478E-01  0.79308174464E-01  0.89257111929E+00  0.88000000000E+00 0.  1.
        -11    1    4    4    0    0  0.68064733822E-01  0.60186170326E-01 -0.54081400989E-01  0.10573666414E+00  0.51100000000E-03 0. -1.
         11    1    4    4    0    0  0.15045170152E-01  0.53660250238E-02 -0.15749580647E-01  0.22437954029E-01  0.51100000000E-03 0.  1.
</event>
<event>
 8    1  0.1101883E+005  0.1043930E+01  0.7957747E-01            NaN
         13   -1    0    0    0    0  0.00000000000E+00  0.00000000000E+00  0.74505805969E-08  0.10566000000E+00  0.10566000000E+00 0.  1.
     999900   -1    0    0    0    0 -0.00000000000E+00 -0.00000000000E+00 -0.74505805969E-08  0.93827000000E+00  0.93827000000E+00 0.  1.
     999902    2    1    2    0    0  0.16555617966E-01 -0.10773343835E-02 -0.14420479102E-01  0.10219482041E+01  0.10217117658E+01 0.  0.
     999903    2    3    3    0    0 -0.41858629618E-01  0.14982548332E-01  0.12021448638E+00  0.12964964522E+00  0.19516304565E-01 0.  0.
         14    1    1    2    0    0 -0.16555617966E-01  0.10773343835E-02  0.14420479102E-01  0.21981795949E-01  0.00000000000E+00 0.  1.
     999901    1    3    3    0    0  0.58414247584E-01 -0.16059882716E-01 -0.13463496548E+00  0.89229855883E+00  0.88000000000E+00 0.  1.
        -11    1    4    4    0    0 -0.35949352314E-01  0.14725598633E-01  0.79292768905E-01  0.88299510240E-01  0.51100000000E-03 0.  1.
         11    1    4    4    0    0 -0.59092773032E-02  0.25694969978E-03  0.40921717472E-01  0.41350134985E-01  0.51100000000E-03 0. -1.
</event>
<event>
 8    1  0.1101883E+005  0.1043930E+01  0.7957747E-01            NaN
         13   -1    0    0    0    0  0.00000000000E+00  0.00000000000E+00  0.74505805969E-08  0.10566000000E+00  0.10566000000E+00 0. -1.
     999900   -1    0    0    0    0 -0.00000000000E+00 -0.00000000000E+00 -0.74505805969E-08  0.93827000000E+00  0.93827000000E+00 0.  1.
     999902    2    1    2    0    0 -0.21616193135E-02  0.23699501154E-01  0.43045320131E-03  0.10201282303E+01  0.10198505194E+01 0.  0.
     999903    2    3    3    0    0 -0.97537021189E-01  0.72551834187E-01  0.48133887029E-01  0.13234524139E+00  0.20522005040E-01 0.  0.
         14    1    1    2    0    0  0.21616193135E-02 -0.23699501154E-01 -0.43045320131E-03  0.23801769744E-01  0.00000000000E+00 0. -1.
     999901    1    3    3    0    0  0.95375401876E-01 -0.48852333033E-01 -0.47703433828E-01  0.88778298887E+00  0.88000000000E+00 0. -1.
        -11    1    4    4    0    0 -0.67171194435E-01  0.59794859595E-01  0.30375648224E-01  0.94922788212E-01  0.51100000000E-03 0.  1.
         11    1    4    4    0    0 -0.30365826754E-01  0.12756974592E-01  0.17758238805E-01  0.37422453175E-01  0.51100000000E-03 0. -1.
</event>
<event>
 8    1  0.1101883E+005  0.1043930E+01  0.7957747E-01            NaN
         13   -1    0    0    0    0  0.00000000000E+00  0.00000000000E+00  0.74505805969E-08  0.10566000000E+00  0.10566000000E+00 0. -1.
     999900   -1    0    0    0    0 -0.00000000000E+00 -0.00000000000E+00 -0.74505805969E-08  0.93827000000E+00  0.93827000000E+00 0. -1.
     999902    2    1    2    0    0  0.21621548595E-01  0.47912374892E-02  0.98752017714E-02  0.10196819706E+01  0.10193936208E+01 0.  0.
     999903    2    3    3    0    0  0.42249590978E-01 -0.66110441742E-01  0.10382185165E+00  0.13160622085E+00  0.19636752307E-01 0.  0.
         14    1    1    2    0    0 -0.21621548595E-01 -0.47912374892E-02 -0.98752017714E-02  0.24248029411E-01  0.00000000000E+00 0. -1.
     999901    1    3    3    0    0 -0.20628042384E-01  0.70901679232E-01 -0.93946649879E-01  0.88807574974E+00  0.88000000000E+00 0.  1.
        -11    1    4    4    0    0  0.42254132371E-02 -0.22675159697E-01  0.32279069686E-01  0.39676396574E-01  0.51100000000E-03 0. -1.
         11    1    4    4    0    0  0.38024177741E-01 -0.43435282046E-01  0.71542781964E-01  0.91929824276E-01  0.51100000000E-03 0.  1.
</event>
<event>
 8    1  0.1101883E+005  0.1043930E+01  0.7957747E-01            NaN
         13   -1    0    0    0    0  0.00000000000E+00  0.00000000000E+00  0.74505805969E-08  0.10566000000E+00  0.10566000000E+00 0. -1.
     999900   -1    0    0    0    0 -0.00000000000E+00 -0.00000000000E+00 -0.74505805969E-08  0.93827000000E+00  0.93827000000E+00 0.  1.
     999902    2    1    2    0    0  0.12901509918E-02 -0.53360734672E-03  0.24569191972E-01  0.10193211719E+01  0.10190240709E+01 0.  0.
     999903    2    3    3    0    0 -0.11493622685E+00 -0.27567346749E-01 -0.46105446681E-01  0.12845962344E+00  0.20146160696E-01 0.  0.
         14    1    1    2    0    0 -0.12901509918E-02  0.53360734672E-03 -0.24569191972E-01  0.24608828102E-01  0.00000000000E+00 0.  1.
     999901    1    3    3    0    0  0.11622637784E+00  0.27033739402E-01  0.70674638653E-01  0.89086154846E+00  0.88000000000E+00 0. -1.
        -11    1    4    4    0    0 -0.35126071865E-01  0.17049599781E-03 -0.96142642502E-02  0.36422042661E-01  0.51100000000E-03 0. -1.
         11    1    4    4    0    0 -0.79810154988E-01 -0.27737842746E-01 -0.36491182431E-01  0.92037580779E-01  0.51100000000E-03 0.  1.
</event>
<event>
 8    1  0.1101883E+005  0.1043930E+01  0.7957747E-01            NaN
         13   -1    0    0    0    0  0.00000000000E+00  0.00000000000E+00  0.74505805969E-08  0.10566000000E+00  0.10566000000E+00 0. -1.
     999900   -1    0    0    0    0 -0.00000000000E+00 -0.00000000000E+00 -0.74505805969E-08  0.93827000000E+00  0.93827000000E+00 0. -1.
     999902    2    1    2    0    0 -0.21754629302E-01 -0.46391160233E-02  0.92470294958E-02  0.10198407317E+01  0.10195561903E+01 0.  0.
     999903    2    3    3    0    0 -0.11106562987E+00  0.15838282155E-01  0.69263845614E-01  0.13305000278E+00  0.17843699444E-01 0.  0.
         14    1    1    2    0    0  0.21754629302E-01  0.46391160233E-02 -0.92470294958E-02  0.24089268317E-01  0.00000000000E+00 0.  1.
     999901    1    3    3    0    0  0.89311000566E-01 -0.20477398178E-01 -0.60016816118E-01  0.88679072891E+00  0.88000000000E+00 0.  1.
        -11    1    4    4    0    0 -0.11069305324E-01 -0.37531407477E-02  0.69450228835E-02  0.13605515414E-01  0.51100000000E-03 0. -1.
         11    1    4    4    0    0 -0.99996324544E-01  0.19591422903E-01  0.62318822730E-01  0.11944448736E+00  0.51100000000E-03 0.  1.
</event>
<event>
 8    1  0.1101883E+005  0.1043930E+01  0.7957747E-01            NaN
         13   -1    0    0    0    0  0.00000000000E+00  0.00000000000E+00  0.74505805969E-08  0.10566000000E+00  0.10566000000E+00 0.  1.
     999900   -1    0    0    0    0 -0.00000000000E+00 -0.00000000000E+00 -0.74505805969E-08  0.93827000000E+00  0.93827000000E+00 0.  1.
     999902    2    1    2    0    0 -0.18155017516E-01  0.29554444271E-02  0.76841360436E-02  0.10239954757E+01  0.10238014207E+01 0.  0.
     999903    2    3    3    0    0  0.12707926368E+00 -0.22940762670E-01 -0.10188107676E-01  0.13153649788E+00  0.22861209253E-01 0.  0.
         14    1    1    2    0    0  0.18155017516E-01 -0.29554444271E-02 -0.76841360436E-02  0.19934524311E-01  0.00000000000E+00 0. -1.
     999901    1    3    3    0    0 -0.14523428119E+00  0.25896207097E-01  0.17872243720E-01  0.89245897781E+00  0.88000000000E+00 0.  1.
        -11    1    4    4    0    0  0.49543688144E-01 -0.10398402217E-01  0.70719835389E-02  0.51117295271E-01  0.51100000000E-03 0. -1.
         11    1    4    4    0    0  0.77535575531E-01 -0.12542360453E-01 -0.17260091215E-01  0.80419202610E-01  0.51100000000E-03 0.  1.
</event>
<event>
 8    1  0.1101883E+005  0.1043930E+01  0.7957747E-01            NaN
         13   -1    0    0    0    0  0.00000000000E+00  0.00000000000E+00  0.74505805969E-08  0.10566000000E+00  0.10566000000E+00 0. -1.
     999900   -1    0    0    0    0 -0.00000000000E+00 -0.00000000000E+00 -0.74505805969E-08  0.93827000000E+00  0.93827000000E+00 0. -1.
     999902    2    1    2    0    0 -0.16894456516E-01 -0.18478015111E-01 -0.12807956888E-03  0.10188925060E+01  0.10185848333E+01 0.  0.
     999903    2    3    3    0    0  0.88117993262E-01  0.66650716363E-02 -0.90106888202E-01  0.12773821212E+00  0.19712828789E-01 0.  0.
         14    1    1    2    0    0  0.16894456516E-01  0.18478015111E-01  0.12807956888E-03  0.25037494040E-01  0.00000000000E+00 0.  1.
     999901    1    3    3    0    0 -0.10501244978E+00 -0.25143086747E-01  0.89978808633E-01  0.89115429384E+00  0.88000000000E+00 0. -1.
        -11    1    4    4    0    0  0.12139803107E-01 -0.14456561377E-02 -0.22954641411E-01  0.26012332161E-01  0.51100000000E-03 0. -1.
         11    1    4    4    0    0  0.75978190155E-01  0.81107277740E-02 -0.67152246791E-01  0.10172587996E+00  0.51100000000E-03 0.  1.
</event>
<event>
 8    1  0.1101883E+005  0.1043930E+01  0.7957747E-01            NaN
         13   -1    0    0    0    0  0.00000000000E+00  0.00000000000E+00  0.74505805969E-08  0.10566000000E+00  0.10566000000E+00 0.  1.
     999900   -1    0    0    0    0 -0.00000000000E+00 -0.00000000000E+00 -0.74505805969E-08  0.93827000000E+00  0.93827000000E+00 0.  1.
     999902    2    1    2    0    0 -0.53423923336E-02  0.53178431017E-02  0.24315666157E-01  0.10184727372E+01  0.10181545286E+01 0.  0.
     999903    2    3    3    0    0 -0.10686423863E+00 -0.69296885591E-01 -0.47587745216E-02  0.12902382568E+00  0.20061849539E-01 0.  0.
         14    1    1    2    0    0  0.53423923336E-02 -0.53178431017E-02 -0.24315666157E-01  0.25457262849E-01  0.00000000000E+00 0. -1.
     999901    1    3    3    0    0  0.10152184630E+00  0.74614728693E-01  0.29074440679E-01  0.88944891147E+00  0.88000000000E+00 0. -1.
        -11    1    4    4    0    0 -0.42516842144E-01 -0.17715447903E-01  0.31740531755E-02  0.46172012029E-01  0.51100000000E-03 0.  1.
         11    1    4    4    0    0 -0.64347396490E-01 -0.51581437689E-01 -0.79328276971E-02  0.82851813652E-01  0.51100000000E-03 0. -1.
</event>
<event>
 8    1  0.1101883E+005  0.1043930E+01  0.7957747E-01            NaN
         13   -1    0    0    0    0  0.00000000000E+00  0.00000000000E+00  0.74505805969E-08  0.10566000000E+00  0.10566000000E+00 0. -1.
     999900   -1    0    0    0    0 -0.00000000000E+00 -0.00000000000E+00 -0.74505805969E-08  0.93827000000E+00  0.93827000000E+00 0. -1.
     999902    2    1    2    0    0 -0.23356208760E-01  0.10768553377E-02  0.18460240827E-02  0.10204762176E+01  0.10202066608E+01 0.  0.
     999903    2    3    3    0    0  0.11421390988E+00  0.35002194031E-01 -0.42881790398E-01  0.12802059205E+00  0.16746738309E-01 0.  0.
         14    1    1    2    0    0  0.23356208760E-01 -0.10768553377E-02 -0.18460240827E-02  0.23453782423E-01  0.00000000000E+00 0.  1.
     999901    1    3    3    0    0 -0.13757011864E+00 -0.33925338693E-01  0.44727814481E-01  0.89245562553E+00  0.88000000000E+00 0.  1.
        -11    1    4    4    0    0  0.10950196758E+00  0.36825066529E-01 -0.40628859383E-01  0.12246522676E+00  0.51100000000E-03 0. -1.
         11    1    4    4    0    0  0.47119422991E-02 -0.18228724981E-02 -0.22529310156E-02  0.55553652927E-02  0.51100000000E-03 0.  1.
</event>
<event>
 8    1  0.1101883E+005  0.1043930E+01  0.7957747E-01            NaN
         13   -1    0    0    0    0  0.00000000000E+00  0.00000000000E+00  0.74505805969E-08  0.10566000000E+00  0.10566000000E+00 0.  1.
     999900   -1    0    0    0    0 -0.00000000000E+00 -0.00000000000E+00 -0.74505805969E-08  0.93827000000E+00  0.93827000000E+00 0.  1.
     999902    2    1    2    0    0 -0.22553621213E-01  0.17328730268E-02 -0.60091827200E-03  0.10213019249E+01  0.10210512191E+01 0.  0.
     999903    2    3    3    0    0  0.30720652409E-01 -0.11198603499E+00 -0.56558370050E-01  0.13062725105E+00  0.19493562443E-01 0.  0.
         14    1    1    2    0    0  0.22553621213E-01 -0.17328730268E-02  0.60091827200E-03  0.22628075073E-01  0.00000000000E+00 0. -1.
     999901    1    3    3    0    0 -0.53274273622E-01  0.11371890802E+00  0.55957451778E-01  0.89067467387E+00  0.88000000000E+00 0.  1.
        -11    1    4    4    0    0  0.95636416220E-03 -0.17531042005E-01 -0.15474259800E-01  0.23408671546E-01  0.51100000000E-03 0.  1.
         11    1    4    4    0    0  0.29764288247E-01 -0.94454992989E-01 -0.41084110250E-01  0.10721857951E+00  0.51100000000E-03 0. -1.
</event>
<event>
 8    1  0.1101883E+005  0.1043930E+01  0.7957747E-01            NaN
         13   -1    0    0    0    0  0.00000000000E+00  0.00000000000E+00  0.74505805969E-08  0.10566000000E+00  0.10566000000E+00 0. -1.
     999900   -1    0    0    0    0 -0.00000000000E+00 -0.00000000000E+00 -0.74505805969E-08  0.93827000000E+00  0.93827000000E+00 0.  1.
     999902    2    1    2    0    0  0.20999142672E-01 -0.15887604427E-01  0.10880925961E-01  0.10154383430E+01  0.10150385480E+01 0.  0.
     999903    2    3    3    0    0 -0.10751175932E+00  0.44385044887E-01 -0.34785022922E-01  0.12289522190E+00  0.19089974934E-01 0.  0.
         14    1    1    2    0    0 -0.20999142672E-01  0.15887604427E-01 -0.10880925961E-01  0.28491656974E-01  0.00000000000E+00 0. -1.
     999901    1    3    3    0    0  0.12851090199E+00 -0.60272649314E-01  0.45665948883E-01  0.89254312113E+00  0.88000000000E+00 0.  1.
        -11    1    4    4    0    0 -0.64575623446E-01  0.34243250779E-01 -0.15378421170E-01  0.74695169362E-01  0.51100000000E-03 0. -1.
         11    1    4    4    0    0 -0.42936135877E-01  0.10141794108E-01 -0.19406601752E-01  0.48200052535E-01  0.51100000000E-03 0.  1.
</event>
<event>
 8    1  0.1101883E+005  0.1043930E+01  0.7957747E-01            NaN
         13   -1    0    0    0    0  0.00000000000E+00  0.00000000000E+00  0.74505805969E-08  0.10566000000E+00  0.10566000000E+00 0.  1.
     999900   -1    0    0    0    0 -0.00000000000E+00 -0.00000000000E+00 -0.74505805969E-08  0.93827000000E+00  0.93827000000E+00 0.  1.
     999902    2    1    2    0    0 -0.64957481208E-02  0.86187252460E-02 -0.14105822079E-01  0.10261690489E+01  0.10260153339E+01 0.  0.
     999903    2    3    3    0    0  0.89059214771E-01  0.95116111653E-01  0.31312181481E-01  0.13562127147E+00  0.20834061862E-01 0.  0.
         14    1    1    2    0    0  0.64957481208E-02 -0.86187252460E-02  0.14105822079E-01  0.17760951130E-01  0.00000000000E+00 0.  1.
     999901    1    3    3    0    0 -0.95554962892E-01 -0.86497386407E-01 -0.45418003561E-01  0.89054777740E+00  0.88000000000E+00 0.  1.
        -11    1    4    4    0    0  0.69260831627E-01  0.61117543123E-01  0.18206735578E-01  0.94149685164E-01  0.51100000000E-03 0.  1.
         11    1    4    4    0    0  0.19798383144E-01  0.33998568530E-01  0.13105445903E-01  0.41471586304E-01  0.51100000000E-03 0. -1.
</event>
<event>
 8    1  0.1101883E+005  0.1043930E+01  0.7957747E-01            NaN
         13   -1    0    0    0    0  0.00000000000E+00  0.00000000000E+00  0.74505805969E-08  0.10566000000E+00  0.10566000000E+00 0. -1.
     999900   -1    0    0    0    0 -0.00000000000E+00 -0.00000000000E+00 -0.74505805969E-08  0.93827000000E+00  0.93827000000E+00 0. -1.
     999902    2    1    2    0    0  0.13259251213E-01  0.19863315676E-01 -0.39874504312E-02  0.10197172180E+01  0.10194297160E+01 0.  0.
     999903    2    3    3    0    0 -0.34457714565E-01  0.11699525097E+00  0.43955901868E-01  0.13179262281E+00  0.23705511461E-01 0.  0.
         14    1    1    2    0    0 -0.13259251213E-01 -0.19863315676E-01  0.39874504312E-02  0.24212782023E-01  0.00000000000E+00 0.  1.
     999901    1    3    3    0    0  0.47716965778E-01 -0.97131935299E-01 -0.47943352299E-01  0.88792459517E+00  0.88000000000E+00 0.  1.
        -11    1    4    4    0    0 -0.18842204246E-01  0.35414670390E-01  0.22524573854E-01  0.46009184822E-01  0.51100000000E-03 0.  1.
         11    1    4    4    0    0 -0.15615510319E-01  0.81580580585E-01  0.21431328014E-01  0.85783437985E-01  0.51100000000E-03 0. -1.
</event>
<event>
 8    1  0.1101883E+005  0.1043930E+01  0.7957747E-01            NaN
         13   -1    0    0    0    0  0.00000000000E+00  0.00000000000E+00  0.74505805969E-08  0.10566000000E+00  0.10566000000E+00 0. -1.
     999900   -1    0    0    0    0 -0.00000000000E+00 -0.00000000000E+00 -0.74505805969E-08  0.93827000000E+00  0.93827000000E+00 0.  1.
     999902    2    1    2    0    0 -0.16631526795E-01  0.13776721814E-01  0.23085142969E-02  0.10222105390E+01  0.10219797704E+01 0.  0.
     999903    2    3    3    0    0 -0.12215002135E-01 -0.12843982341E+00  0.10160734929E-01  0.13074729872E+00  0.18590886812E-01 0.  0.
         14    1    1    2    0    0  0.16631526795E-01 -0.13776721814E-01 -0.23085142969E-02  0.21719460991E-01  0.00000000000E+00 0. -1.
     999901    1    3    3    0    0 -0.44165246600E-02  0.14221654522E+00 -0.78522206319E-02  0.89146324029E+00  0.88000000000E+00 0. -1.
        -11    1    4    4    0    0  0.47631151329E-02 -0.18664456852E-01  0.13440146402E-02  0.19316229231E-01  0.51100000000E-03 0.  1.
         11    1    4    4    0    0 -0.16978117268E-01 -0.10977536656E+00  0.88167202886E-02  0.11143106948E+00  0.51100000000E-03 0. -1.
</event>
<event>
 8    1  0.1101883E+005  0.1043930E+01  0.7957747E-01            NaN
         13   -1    0    0    0    0  0.00000000000E+00  0.00000000000E+00  0.74505805969E-08  0.10566000000E+00  0.10566000000E+00 0.  1.
     999900   -1    0    0    0    0 -0.00000000000E+00 -0.00000000000E+00 -0.74505805969E-08  0.93827000000E+00  0.93827000000E+00 0. -1.
     999902    2    1    2    0    0  0.70586858875E-03  0.70615002785E-02 -0.22429869466E-01  0.10204042252E+01  0.10201329917E+01 0.  0.
     999903    2    3    3    0    0  0.97089481091E-01 -0.29970670984E-01 -0.82388816598E-01  0.13234101920E+00  0.20040454226E-01 0.  0.
         14    1    1    2    0    0 -0.70586858875E-03 -0.70615002785E-02  0.22429869466E-01  0.23525774821E-01  0.00000000000E+00 0.  1.
     999901    1    3    3    0    0 -0.96383612503E-01  0.37032171262E-01  0.59958947132E-01  0.88806320598E+00  0.88000000000E+00 0.  1.
        -11    1    4    4    0    0  0.31241525567E-01 -0.38516116038E-03 -0.21901595964E-01  0.38159170532E-01  0.51100000000E-03 0.  1.
         11    1    4    4    0    0  0.65847955524E-01 -0.29585509823E-01 -0.60487220634E-01  0.94181848671E-01  0.51100000000E-03 0. -1.
</event>
<event>
 8    1  0.1101883E+005  0.1043930E+01  0.7957747E-01            NaN
         13   -1    0    0    0    0  0.00000000000E+00  0.00000000000E+00  0.74505805969E-08  0.10566000000E+00  0.10566000000E+00 0. -1.
     999900   -1    0    0    0    0 -0.00000000000E+00 -0.00000000000E+00 -0.74505805969E-08  0.93827000000E+00  0.93827000000E+00 0.  1.
     999902    2    1    2    0    0 -0.17733402338E-01  0.10298222181E-01 -0.12219743687E-01  0.10200584882E+01  0.10197791282E+01 0.  0.
     999903    2    3    3    0    0 -0.85781371710E-03  0.11411960411E+00 -0.63430828137E-01  0.13231627339E+00  0.21450089960E-01 0.  0.
         14    1    1    2    0    0  0.17733402338E-01 -0.10298222181E-01  0.12219743687E-01  0.23871511773E-01  0.00000000000E+00 0. -1.
     999901    1    3    3    0    0 -0.16875588621E-01 -0.10382138193E+00  0.51211084450E-01  0.88774221484E+00  0.88000000000E+00 0.  1.
        -11    1    4    4    0    0 -0.86844378519E-02  0.92301315908E-01 -0.47366248489E-01  0.10410943759E+00  0.51100000000E-03 0. -1.
         11    1    4    4    0    0  0.78266241348E-02  0.21818288199E-01 -0.16064579647E-01  0.28206835794E-01  0.51100000000E-03 0.  1.
</event>
<event>
 8    1  0.1101883E+005  0.1043930E+01  0.7957747E-01            NaN
         13   -1    0    0    0    0  0.00000000000E+00  0.00000000000E+00  0.74505805969E-08  0.10566000000E+00  0.10566000000E+00 0. -1.
     999900   -1    0    0    0    0 -0.00000000000E+00 -0.00000000000E+00 -0.74505805969E-08  0.93827000000E+00  0.93827000000E+00 0.  1.
     999902    2    1    2    0    0 -0.20782705334E-01 -0.47250690933E-02 -0.89995629656E-02  0.10207947617E+01  0.10205325601E+01 0.  0.
     999903    2    3    3    0    0 -0.12043165257E+00  0.46838385976E-01 -0.27382327338E-01  0.13348048330E+00  0.19225769948E-01 0.  0.
         14    1    1    2    0    0  0.20782705334E-01  0.47250690933E-02  0.89995629656E-02  0.23135238328E-01  0.00000000000E+00 0. -1.
     999901    1    3    3    0    0  0.99648947231E-01 -0.51563455070E-01  0.18382764372E-01  0.88731427838E+00  0.88000000000E+00 0.  1.
        -11    1    4    4    0    0 -0.10824027926E+00  0.37438862023E-01 -0.19511816871E-01  0.11618346940E+00  0.51100000000E-03 0. -1.
         11    1    4    4    0    0 -0.12191373305E-01  0.93995239536E-02 -0.78705104664E-02  0.17297013893E-01  0.51100000000E-03 0.  1.
</event>
<event>
 7    1  0.1101883E+005  0.1043930E+01  0.7957747E-01            NaN
         13   -1    0    0    0    0  0.00000000000E+00  0.00000000000E+00  0.74505805969E-08  0.10566000000E+00  0.10566000000E+00 0.  1.
     999900   -1    0    0    0    0 -0.00000000000E+00 -0.00000000000E+00 -0.74505805969E-08  0.93827000000E+00  0.93827000000E+00 0. -1.
     999902    2    1    2    0    0  0.45320341307E-02  0.11926639971E-01 -0.19609592327E-01  0.10205351248E+01  0.10202669360E+01 0.  0.
         14    1    1    2    0    0 -0.45320341307E-02 -0.11926639971E-01  0.19609592327E-01  0.23394875199E-01  0.00000000000E+00 0.  1.
     999901    1    3    3    0    0 -0.69669818918E-01 -0.35652850864E-01  0.60259581550E-01  0.88552596044E+00  0.88000000000E+00 0.  1.
        -11    1    3    3    0    0  0.37817999351E-01 -0.61164077777E-02 -0.98413503257E-02  0.39556602689E-01  0.51100000000E-03 0. -1.
         11    1    3    3    0    0  0.36383853698E-01  0.53695898612E-01 -0.70027823551E-01  0.95452561673E-01  0.51100000000E-03 0.  1.
</event>
<event>
 8    1  0.1101883E+005  0.1043930E+01  0.7957747E-01            NaN
         13   -1    0    0    0    0  0.00000000000E+00  0.00000000000E+00  0.74505805969E-08  0.10566000000E+00  0.10566000000E+00 0.  1.
     999900   -1    0    0    0    0 -0.00000000000E+00 -0.00000000000E+00 -0.74505805969E-08  0.93827000000E+00  0.93827000000E+00 0.  1.
     999902    2    1    2    0    0 -0.14075153555E-01 -0.19848624010E-01  0.12356858365E-02  0.10195659949E+01  0.10192748468E+01 0.  0.
     999903    2    3    3    0    0 -0.26663542595E-01  0.12238109887E+00 -0.10996184759E-01  0.12797338604E+00  0.23836811655E-01 0.  0.
         14    1    1    2    0    0  0.14075153555E-01  0.19848624010E-01 -0.12356858365E-02  0.24364005052E-01  0.00000000000E+00 0.  1.
     999901    1    3    3    0    0  0.12588389040E-01 -0.14222972288E+00  0.12231870596E-01  0.89159260891E+00  0.88000000000E+00 0.  1.
        -11    1    4    4    0    0 -0.25058871633E-01  0.59210012662E-01 -0.47402181033E-02  0.64470950323E-01  0.51100000000E-03 0. -1.
         11    1    4    4    0    0 -0.16046709622E-02  0.63171086207E-01 -0.62559666558E-02  0.63502435712E-01  0.51100000000E-03 0.  1.
</event>
<event>
 8    1  0.1101883E+005  0.1043930E+01  0.7957747E-01            NaN
         13   -1    0    0    0    0  0.00000000000E+00  0.00000000000E+00  0.74505805969E-08  0.10566000000E+00  0.10566000000E+00 0.  1.
     999900   -1    0    0    0    0 -0.00000000000E+00 -0.00000000000E+00 -0.74505805969E-08  0.93827000000E+00  0.93827000000E+00 0. -1.
     999902    2    1    2    0    0 -0.17469299552E-01 -0.33618288835E-02 -0.17026436827E-01  0.10193052590E+01  0.10190077689E+01 0.  0.
     999903    2    3    3    0    0  0.10140623976E+00 -0.15461484230E-01 -0.76621096313E-01  0.12923261083E+00  0.17549710670E-01 0.  0.
         14    1    1    2    0    0  0.17469299552E-01  0.33618288835E-02  0.17026436827E-01  0.24624741041E-01  0.00000000000E+00 0.  1.
     999901    1    3    3    0    0 -0.11887553931E+00  0.12099655347E-01  0.59594659486E-01  0.89007264813E+00  0.88000000000E+00 0.  1.
        -11    1    4    4    0    0  0.40126461537E-01 -0.20466480254E-03 -0.37628793946E-01  0.55012380952E-01  0.51100000000E-03 0. -1.
         11    1    4    4    0    0  0.61279778226E-01 -0.15256819428E-01 -0.38992302366E-01  0.74220229879E-01  0.51100000000E-03 0.  1.
</event>
<event>
 8    1  0.1101883E+005  0.1043930E+01  0.7957747E-01            NaN
         13   -1    0    0    0    0  0.00000000000E+00  0.00000000000E+00  0.74505805969E-08  0.10566000000E+00  0.10566000000E+00 0. -1.
     999900   -1    0    0    0    0 -0.00000000000E+00 -0.00000000000E+00 -0.74505805969E-08  0.93827000000E+00  0.93827000000E+00 0. -1.
     999902    2    1    2    0    0  0.15944761841E-01  0.17884710695E-01  0.26547903598E-02  0.10198230255E+01  0.10195380607E+01 0.  0.
     999903    2    3    3    0    0 -0.14294751410E-01 -0.12525007253E+00  0.71065952813E-03  0.12774355934E+00  0.20639557408E-01 0.  0.
         14    1    1    2    0    0 -0.15944761841E-01 -0.17884710695E-01 -0.26547903598E-02  0.24106974482E-01  0.00000000000E+00 0.  1.
     999901    1    3    3    0    0  0.30239513251E-01  0.14313478322E+00  0.19441308316E-02  0.89207946618E+00  0.88000000000E+00 0.  1.
        -11    1    4    4    0    0 -0.66236864165E-02 -0.10275748669E+00  0.68301159200E-02  0.10319828437E+00  0.51100000000E-03 0.  1.
         11    1    4    4    0    0 -0.76710649936E-02 -0.22492585834E-01 -0.61194563919E-02  0.24545274967E-01  0.51100000000E-03 0. -1.
</event>
<event>
 8    1  0.1101883E+005  0.1043930E+01  0.7957747E-01            NaN
         13   -1    0    0    0    0  0.00000000000E+00  0.00000000000E+00  0.74505805969E-08  0.10566000000E+00  0.10566000000E+00 0. -1.
     999900   -1    0    0    0    0 -0.00000000000E+00 -0.00000000000E+00 -0.74505805969E-08  0.93827000000E+00  0.93827000000E+00 0. -1.
     999902    2    1    2    0    0 -0.40102511923E-02  0.22952859083E-01  0.41662515030E-02  0.10202599027E+01  0.10199852918E+01 0.  0.
     999903    2    3    3    0    0 -0.25724696163E-03  0.96623707710E-01 -0.88232735246E-01  0.13235278383E+00  0.19900672142E-01 0.  0.
         14    1    1    2    0    0  0.40102511923E-02 -0.22952859083E-01 -0.41662515030E-02  0.23670097302E-01  0.00000000000E+00 0.  1.
     999901    1    3    3    0    0 -0.37530042306E-02 -0.73670848628E-01  0.92398986749E-01  0.88790711886E+00  0.88000000000E+00 0.  1.
        -11    1    4    4    0    0 -0.38349431082E-02  0.67028432663E-01 -0.49207384177E-01  0.83241488168E-01  0.51100000000E-03 0. -1.
         11    1    4    4    0    0  0.35776961466E-02  0.29595275048E-01 -0.39025351069E-01  0.49111295665E-01  0.51100000000E-03 0.  1.
</event>
<event>
 8    1  0.1101883E+005  0.1043930E+01  0.7957747E-01            NaN
         13   -1    0    0    0    0  0.00000000000E+00  0.00000000000E+00  0.74505805969E-08  0.10566000000E+00  0.10566000000E+00 0. -1.
     999900   -1    0    0    0    0 -0.00000000000E+00 -0.00000000000E+00 -0.74505805969E-08  0.93827000000E+00  0.93827000000E+00 0.  1.
     999902    2    1    2    0    0  0.19148961835E-02 -0.30483796883E-02  0.24325010296E-01  0.10193400514E+01  0.10190434116E+01 0.  0.
     999903    2    3    3    0    0 -0.12245898653E+00  0.32003471012E-01  0.21240675732E-01  0.12989808699E+00  0.20047971434E-01 0.  0.
         14    1    1    2    0    0 -0.19148961835E-02  0.30483796883E-02 -0.24325010296E-01  0.24589948598E-01  0.00000000000E+00 0.  1.
     999901    1    3    3    0    0  0.12437388272E+00 -0.35051850701E-01  0.30843345640E-02  0.88944196441E+00  0.88000000000E+00 0.  1.
        -11    1    4    4    0    0 -0.23578988258E-01  0.31230331616E-02  0.11505523908E-01  0.26426506102E-01  0.51100000000E-03 0.  1.
         11    1    4    4    0    0 -0.98879998274E-01  0.28880437851E-01  0.97351518245E-02  0.10347158089E+00  0.51100000000E-03 0. -1.
</event>
<event>
 8    1  0.1101883E+005  0.1043930E+01  0.7957747E-01            NaN
         13   -1    0    0    0    0  0.00000000000E+00  0.00000000000E+00  0.74505805969E-08  0.10566000000E+00  0.10566000000E+00 0. -1.
     999900   -1    0    0    0    0 -0.00000000000E+00 -0.00000000000E+00 -0.74505805969E-08  0.93827000000E+00  0.93827000000E+00 0.  1.
     999902    2    1    2    0    0 -0.10301169125E-01 -0.87075071941E-02 -0.20251064768E-01  0.10195981199E+01  0.10193077482E+01 0.  0.
     999903    2    3    3    0    0  0.71064780586E-01 -0.27630615085E-01 -0.10635724634E+00  0.13145805417E+00  0.12478069822E-01 0.  0.
         14    1    1    2    0    0  0.10301169125E-01  0.87075071941E-02  0.20251064768E-01  0.24331880140E-01  0.00000000000E+00 0. -1.
     999901    1    3    3    0    0 -0.81365949712E-01  0.18923107891E-01  0.86106181573E-01  0.88814006569E+00  0.88000000000E+00 0. -1.
        -11    1    4    4    0    0  0.59620655784E-01 -0.27816796373E-01 -0.91396164989E-01  0.11261401712E+00  0.51100000000E-03 0.  1.
         11    1    4    4    0    0  0.11444124802E-01  0.18618128789E-03 -0.14961081352E-01  0.18844037046E-01  0.51100000000E-03 0. -1.
</event>
<event>
 8    1  0.1101883E+005  0.1043930E+01  0.7957747E-01            NaN
         13   -1    0    0    0    0  0.00000000000E+00  0.00000000000E+00  0.74505805969E-08  0.10566000000E+00  0.10566000000E+00 0. -1.
     999900   -1    0    0    0    0 -0.00000000000E+00 -0.00000000000E+00 -0.74505805969E-08  0.93827000000E+00  0.93827000000E+00 0.  1.
     999902    2    1    2    0    0 -0.68556427088E-02 -0.13384226827E-01 -0.17455008741E-01  0.10208905839E+01  0.10206305745E+01 0.  0.
     999903    2    3    3    0    0  0.90607445809E-01 -0.26181751149E-01  0.86221710949E-01  0.12936846276E+00  0.20169838588E-01 0.  0.
         14    1    1    2    0    0  0.68556427088E-02  0.13384226827E-01  0.17455008741E-01  0.23039416113E-01  0.00000000000E+00 0. -1.
     999901    1    3    3    0    0 -0.97463088518E-01  0.12797524322E-01 -0.10367671969E+00  0.89152212113E+00  0.88000000000E+00 0.  1.
        -11    1    4    4    0    0  0.63691854887E-01 -0.11883642759E-01  0.67657048579E-01  0.93678229529E-01  0.51100000000E-03 0.  1.
         11    1    4    4    0    0  0.26915590921E-01 -0.14298108390E-01  0.18564662370E-01  0.35690233231E-01  0.51100000000E-03 0. -1.
</event>
<event>
 8    1  0.1101883E+005  0.1043930E+01  0.7957747E-01            NaN
         13   -1    0    0    0    0  0.00000000000E+00  0.00000000000E+00  0.74505805969E-08  0.10566000000E+00  0.10566000000E+00 0. -1.
     999900   -1    0    0    0    0 -0.00000000000E+00 -0.00000000000E+00 -0.74505805969E-08  0.93827000000E+00  0.93827000000E+00 0.  1.
     999902    2    1    2    0    0  0.15250200335E-01 -0.69353669040E-02 -0.16303098102E-01  0.10205535389E+01  0.10202857771E+01 0.  0.
     999903    2    3    3    0    0 -0.10688591859E+00 -0.66488250872E-01 -0.24994487403E-01  0.13008213693E+00  0.21245019415E-01 0.  0.
         14    1    1    2    0    0 -0.15250200335E-01  0.69353669040E-02  0.16303098102E-01  0.23376461068E-01  0.00000000000E+00 0.  1.
     999901    1    3    3    0    0  0.12213611893E+00  0.59552883968E-01  0.86913893007E-02  0.89047140200E+00  0.88000000000E+00 0. -1.
        -11    1    4    4    0    0 -0.54139230226E-01 -0.39879183194E-01 -0.39277764903E-02  0.67357954622E-01  0.51100000000E-03 0. -1.
         11    1    4    4    0    0 -0.52746688368E-01 -0.26609067677E-01 -0.21066710913E-01  0.62724182307E-01  0.51100000000E-03 0.  1.
</event>
<event>
 8    1  0.1101883E+005  0.1043930E+01  0.7957747E-01            NaN
         13   -1    0    0    0    0  0.00000000000E+00  0.00000000000E+00  0.74505805969E-08  0.10566000000E+00  0.10566000000E+00 0.  1.
     999900   -1    0    0    0    0 -0.00000000000E+00 -0.00000000000E+00 -0.74505805969E-08  0.93827000000E+00  0.93827000000E+00 0.  1.
     999902    2    1    2    0    0 -0.73794836126E-02  0.12554333079E-01 -0.18123818600E-01  0.10206804654E+01  0.10204156367E+01 0.  0.
     999903    2    3    3    0    0  0.11449547130E+00 -0.27023534488E-01 -0.53183357077E-01  0.13070907067E+00  0.20418308504E-01 0.  0.
         14    1    1    2    0    0  0.73794836126E-02 -0.12554333079E-01  0.18123818600E-01  0.23249534578E-01  0.00000000000E+00 0.  1.
     999901    1    3    3    0    0 -0.12187495491E+00  0.39577867567E-01  0.35059538477E-01  0.88997139475E+00  0.88000000000E+00 0. -1.
        -11    1    4    4    0    0  0.74548993680E-01 -0.11257165278E-01 -0.42100226743E-01  0.86353728591E-01  0.51100000000E-03 0. -1.
         11    1    4    4    0    0  0.39946477617E-01 -0.15766369211E-01 -0.11083130334E-01  0.44355342081E-01  0.51100000000E-03 0.  1.
</event>
<event>
 8    1  0.1101883E+005  0.1043930E+01  0.7957747E-01            NaN
         13   -1    0    0    0    0  0.00000000000E+00  0.00000000000E+00  0.74505805969E-08  0.10566000000E+00  0.10566000000E+00 0. -1.
     999900   -1    0    0    0    0 -0.00000000000E+00 -0.00000000000E+00 -0.74505805969E-08  0.93827000000E+00  0.93827000000E+00 0.  1.
     999902    2    1    2    0    0  0.14652058355E-01  0.93081098585E-02  0.15774069026E-01  0.10204748305E+01  0.10202052415E+01 0.  0.
     999903    2    3    3    0    0  0.10524205604E+00  0.29735206549E-01  0.73964390122E-01  0.13367726203E+00  0.20947708913E-01 0.  0.
         14    1    1    2    0    0 -0.14652058355E-01 -0.93081098585E-02 -0.15774069026E-01  0.23455169512E-01  0.00000000000E+00 0.  1.
     999901    1    3    3    0    0 -0.90589997686E-01 -0.20427096691E-01 -0.58190321095E-01  0.88679756846E+00  0.88000000000E+00 0.  1.
        -11    1    4    4    0    0  0.41175255513E-01  0.11002111099E-01  0.16872639310E-01  0.45840977231E-01  0.51100000000E-03 0.  1.
         11    1    4    4    0    0  0.64066800528E-01  0.18733095450E-01  0.57091750812E-01  0.87836284796E-01  0.51100000000E-03 0. -1.
</event>
<event>
 8    1  0.1101883E+005  0.1043930E+01  0.7957747E-01            NaN
         13   -1    0    0    0    0  0.00000000000E+00  0.00000000000E+00  0.74505805969E-08  0.10566000000E+00  0.10566000000E+00 0. -1.
     999900   -1    0    0    0    0 -0.00000000000E+00 -0.00000000000E+00 -0.74505805969E-08  0.93827000000E+00  0.93827000000E+00 0.  1.
     999902    2    1    2    0    0  0.19082572394E-01  0.69684483696E-02 -0.11062241981E-01  0.10207982677E+01  0.10205361465E+01 0.  0.
     999903    2    3    3    0    0 -0.51236841260E-02 -0.50070847992E-01 -0.12019716192E+00  0.13189452997E+00  0.20383016132E-01 0.  0.
         14    1    1    2    0    0 -0.19082572394E-01 -0.69684483696E-02  0.11062241981E-01  0.23131732306E-01  0.00000000000E+00 0. -1.
     999901    1    3    3    0    0  0.24206256520E-01  0.57039296362E-01  0.10913491993E+00  0.88890373772E+00  0.88000000000E+00 0. -1.
        -11    1    4    4    0    0  0.65672141981E-02 -0.13801933619E-01 -0.24416639396E-01  0.28810676395E-01  0.51100000000E-03 0.  1.
         11    1    4    4    0    0 -0.11690898324E-01 -0.36268914374E-01 -0.95780522519E-01  0.10308385358E+00  0.51100000000E-03 0. -1.
</event>
<event>
 8    1  0.1101883E+005  0.1043930E+01  0.7957747E-01            NaN
         13   -1    0    0    0    0  0.00000000000E+00  0.00000000000E+00  0.74505805969E-08  0.10566000000E+00  0.10566000000E+00 0.  1.
     999900   -1    0    0    0    0 -0.00000000000E+00 -0.00000000000E+00 -0.74505805969E-08  0.93827000000E+00  0.93827000000E+00 0. -1.
     999902    2    1    2    0    0  0.19783009862E-01 -0.12225570660E-01  0.65993765590E-02  0.10197559679E+01  0.10194693964E+01 0.  0.
     999903    2    3    3    0    0  0.12280807085E-01 -0.83654644656E-01  0.99581576761E-01  0.13194738199E+00  0.18566189388E-01 0.  0.
         14    1    1    2    0    0 -0.19783009862E-01  0.12225570660E-01 -0.65993765590E-02  0.24174032103E-01  0.00000000000E+00 0.  1.
     999901    1    3    3    0    0  0.75022027769E-02  0.71429073996E-01 -0.92982200202E-01  0.88780858591E+00  0.88000000000E+00 0. -1.
        -11    1    4    4    0    0  0.17104419115E-01 -0.63247691584E-01  0.73142668687E-01  0.98198486483E-01  0.51100000000E-03 0.  1.
         11    1    4    4    0    0 -0.48236120306E-02 -0.20406953071E-01  0.26438908074E-01  0.33748895505E-01  0.51100000000E-03 0. -1.
</event>
<event>
 8    1  0.1101883E+005  0.1043930E+01  0.7957747E-01            NaN
         13   -1    0    0    0    0  0.00000000000E+00  0.00000000000E+00  0.74505805969E-08  0.10566000000E+00  0.10566000000E+00 0. -1.
     999900   -1    0    0    0    0 -0.00000000000E+00 -0.00000000000E+00 -0.74505805969E-08  0.93827000000E+00  0.93827000000E+00 0.  1.
     999902    2    1    2    0    0 -0.64381660102E-02 -0.15532889717E-01 -0.17742341980E-01  0.10194859548E+01  0.10191928673E+01 0.  0.
     999903    2    3    3    0    0 -0.10784294985E+00 -0.22613860055E-01  0.65372173548E-01  0.12974380511E+00  0.20455937803E-01 0.  0.
         14    1    1    2    0    0  0.64381660102E-02  0.15532889717E-01  0.17742341980E-01  0.24444045154E-01  0.00000000000E+00 0. -1.
     999901    1    3    3    0    0  0.10140478384E+00  0.70809703380E-02 -0.83114515528E-01  0.88974214974E+00  0.88000000000E+00 0.  1.
        -11    1    4    4    0    0 -0.70518932409E-01 -0.10539621248E-01  0.52165616982E-01  0.88348832251E-01  0.51100000000E-03 0.  1.
         11    1    4    4    0    0 -0.37324017440E-01 -0.12074238807E-01  0.13206556567E-01  0.41394972858E-01  0.51100000000E-03 0. -1.
</event>
<event>
 8    1  0.1101883E+005  0.1043930E+01  0.7957747E-01            NaN
         13   -1    0    0    0    0  0.00000000000E+00  0.00000000000E+00  0.74505805969E-08  0.10566000000E+00  0.10566000000E+00 0. -1.
     999900   -1    0    0    0    0 -0.00000000000E+00 -0.00000000000E+00 -0.74505805969E-08  0.93827000000E+00  0.93827000000E+00 0.  1.
     999902    2    1    2    0    0  0.69869912660E-02 -0.22846463380E-01 -0.31515836081E-02  0.10198320454E+01  0.10195472963E+01 0.  0.
     999903    2    3    3    0    0 -0.12262465253E+00  0.33876945916E-02  0.35190282817E-01  0.12912586043E+00  0.19668501285E-01 0.  0.
         14    1    1    2    0    0 -0.69869912660E-02  0.22846463380E-01  0.31515836081E-02  0.24097954584E-01  0.00000000000E+00 0.  1.
     999901    1    3    3    0    0  0.12961164380E+00 -0.26234157971E-01 -0.38341866425E-01  0.89070618499E+00  0.88000000000E+00 0. -1.
        -11    1    4    4    0    0 -0.24107517850E-01 -0.49304188103E-02  0.12849347371E-01  0.27764154866E-01  0.51100000000E-03 0.  1.
         11    1    4    4    0    0 -0.98517134684E-01  0.83181134020E-02  0.22340935446E-01  0.10136170556E+00  0.51100000000E-03 0. -1.
</event>
<event>
 8    1  0.1101883E+005  0.1043930E+01  0.7957747E-01            NaN
         13   -1    0    0    0    0  0.00000000000E+00  0.00000000000E+00  0.74505805969E-08  0.10566000000E+00  0.10566000000E+00 0. -1.
     999900   -1    0    0    0    0 -0.00000000000E+00 -0.00000000000E+00 -0.74505805969E-08  0.93827000000E+00  0.93827000000E+00 0.  1.
     999902    2    1    2    0    0  0.18943200841E-01 -0.14013487449E-01 -0.43773356555E-02  0.10199636954E+01  0.10196820858E+01 0.  0.
     999903    2    3    3    0    0 -0.88316012538E-02 -0.11903692398E+00  0.51638514921E-01  0.13151609573E+00  0.19548932478E-01 0.  0.
         14    1    1    2    0    0 -0.18943200841E-01  0.14013487449E-01  0.43773356555E-02  0.23966304597E-01  0.00000000000E+00 0. -1.
     999901    1    3    3    0    0  0.27774802095E-01  0.10502343653E+00 -0.56015850576E-01  0.88844759967E+00  0.88000000000E+00 0. -1.
        -11    1    4    4    0    0 -0.46672960385E-02 -0.11313631732E+00  0.51175880040E-01  0.12426118368E+00  0.51100000000E-03 0. -1.
         11    1    4    4    0    0 -0.41643052153E-02 -0.59006066563E-02  0.46263488051E-03  0.72549120513E-02  0.51100000000E-03 0.  1.
</event>
<event>
 8    1  0.1101883E+005  0.1043930E+01  0.7957747E-01            NaN
         13   -1    0    0    0    0  0.00000000000E+00  0.00000000000E+00  0.74505805969E-08  0.10566000000E+00  0.10566000000E+00 0. -1.
     999900   -1    0    0    0    0 -0.00000000000E+00 -0.00000000000E+00 -0.74505805969E-08  0.93827000000E+00  0.93827000000E+00 0. -1.
     999902    2    1    2    0    0 -0.14149170190E-01 -0.35579820910E-02  0.18251140788E-01  0.10205641618E+01  0.10202966461E+01 0.  0.
     999903    2    3    3    0    0  0.35996847987E-01 -0.81693648764E-01  0.95542195380E-01  0.13231098133E+00  0.20205429167E-01 0.  0.
         14    1    1    2    0    0  0.14149170190E-01  0.35579820910E-02 -0.18251140788E-01  0.23365838176E-01  0.00000000000E+00 0.  1.
     999901    1    3    3    0    0 -0.50146018177E-01  0.78135666673E-01 -0.77291054592E-01  0.88825318050E+00  0.88000000000E+00 0. -1.
        -11    1    4    4    0    0  0.46481945915E-02 -0.14808880657E-01  0.70929093900E-02  0.17072760289E-01  0.51100000000E-03 0. -1.
         11    1    4    4    0    0  0.31348653396E-01 -0.66884768107E-01  0.88449285990E-01  0.11523822104E+00  0.51100000000E-03 0.  1.
</event>
<event>
 8    1  0.1101883E+005  0.1043930E+01  0.7957747E-01            NaN
         13   -1    0    0    0    0  0.00000000000E+00  0.00000000000E+00  0.74505805969E-08  0.10566000000E+00  0.10566000000E+00 0.  1.
     999900   -1    0    0    0    0 -0.00000000000E+00 -0.00000000000E+00 -0.74505805969E-08  0.93827000000E+00  0.93827000000E+00 0.  1.
     999902    2    1    2    0    0 -0.10442796685E-01  0.20726829840E-01  0.96131492772E-02  0.10188089706E+01  0.10184992158E+01 0.  0.
     999903    2    3    3    0    0  0.40497506712E-01  0.31124096221E-01  0.11850961163E+00  0.13057394701E+00  0.19906535980E-01 0.  0.
         14    1    1    2    0    0  0.10442796685E-01 -0.20726829840E-01 -0.96131492772E-02  0.25121029375E-01  0.00000000000E+00 0. -1.
     999901    1    3    3    0    0 -0.50940303397E-01 -0.10397266381E-01 -0.10889646235E+00  0.88823502361E+00  0.88000000000E+00 0.  1.
        -11    1    4    4    0    0  0.25262136431E-01  0.12005676182E-01  0.81931505313E-01  0.86575657557E-01  0.51100000000E-03 0.  1.
         11    1    4    4    0    0  0.15235370281E-01  0.19118420039E-01  0.36578106316E-01  0.43998289456E-01  0.51100000000E-03 0. -1.
</event>
<event>
 8    1  0.1101883E+005  0.1043930E+01  0.7957747E-01            NaN
         13   -1    0    0    0    0  0.00000000000E+00  0.00000000000E+00  0.74505805969E-08  0.10566000000E+00  0.10566000000E+00 0.  1.
     999900   -1    0    0    0    0 -0.00000000000E+00 -0.00000000000E+00 -0.74505805969E-08  0.93827000000E+00  0.93827000000E+00 0.  1.
     999902    2    1    2    0    0 -0.16509606693E-01  0.21987039263E-01 -0.13102928999E-01  0.10134720986E+01  0.10130143192E+01 0.  0.
     999903    2    3    3    0    0 -0.52561690973E-01  0.51985643226E-01  0.98944644965E-01  0.12512851201E+00  0.20046528161E-01 0.  0.
         14    1    1    2    0    0  0.16509606693E-01 -0.21987039263E-01  0.13102928999E-01  0.30457901390E-01  0.00000000000E+00 0. -1.
     999901    1    3    3    0    0  0.36052084279E-01 -0.29998603963E-01 -0.11204757396E+00  0.88834358660E+00  0.88000000000E+00 0.  1.
        -11    1    4    4    0    0 -0.35388001110E-01  0.46429149829E-01  0.72031179735E-01  0.92718544809E-01  0.51100000000E-03 0.  1.
         11    1    4    4    0    0 -0.17173689863E-01  0.55564933966E-02  0.26913465229E-01  0.32409967202E-01  0.51100000000E-03 0. -1.
</event>
<event>
 8    1  0.1101883E+005  0.1043930E+01  0.7957747E-01            NaN
         13   -1    0    0    0    0  0.00000000000E+00  0.00000000000E+00  0.74505805969E-08  0.10566000000E+00  0.10566000000E+00 0. -1.
     999900   -1    0    0    0    0 -0.00000000000E+00 -0.00000000000E+00 -0.74505805969E-08  0.93827000000E+00  0.93827000000E+00 0.  1.
     999902    2    1    2    0    0  0.12587608459E-01 -0.60463811059E-02  0.20444499009E-01  0.10191714833E+01  0.10188707122E+01 0.  0.
     999903    2    3    3    0    0 -0.62860960140E-01 -0.10752246496E+00  0.31564972246E-01  0.13006319570E+00  0.20186793204E-01 0.  0.
         14    1    1    2    0    0 -0.12587608459E-01  0.60463811059E-02 -0.20444499009E-01  0.24758516735E-01  0.00000000000E+00 0.  1.
     999901    1    3    3    0    0  0.75448568599E-01  0.10147608386E+00 -0.11120473237E-01  0.88910828757E+00  0.88000000000E+00 0. -1.
        -11    1    4    4    0    0 -0.28615264646E-01 -0.66626588021E-01  0.22736080107E-01  0.75994250189E-01  0.51100000000E-03 0.  1.
         11    1    4    4    0    0 -0.34245695493E-01 -0.40895876944E-01  0.88288921395E-02  0.54068945507E-01  0.51100000000E-03 0. -1.
</event>
<event>
 8    1  0.1101883E+005  0.1043930E+01  0.7957747E-01            NaN
         13   -1    0    0    0    0  0.00000000000E+00  0.00000000000E+00  0.74505805969E-08  0.10566000000E+00  0.10566000000E+00 0.  1.
     999900   -1    0    0    0    0 -0.00000000000E+00 -0.00000000000E+00 -0.74505805969E-08  0.93827000000E+00  0.93827000000E+00 0. -1.
     999902    2    1    2    0    0 -0.58569130184E-02  0.12541589737E-01  0.19192862002E-01  0.10202665080E+01  0.10199920521E+01 0.  0.
     999903    2    3    3    0    0  0.43296513899E-02  0.65651536916E-01 -0.10952748812E+00  0.12925957134E+00  0.19567727232E-01 0.  0.
         14    1    1    2    0    0  0.58569130184E-02 -0.12541589737E-01 -0.19192862002E-01  0.23663492030E-01  0.00000000000E+00 0. -1.
     999901    1    3    3    0    0 -0.10186564408E-01 -0.53109947179E-01  0.12872035012E+00  0.89100693663E+00  0.88000000000E+00 0.  1.
        -11    1    4    4    0    0  0.30334648630E-02  0.20822410581E-01 -0.19567049736E-01  0.28738567255E-01  0.51100000000E-03 0.  1.
         11    1    4    4    0    0  0.12961865269E-02  0.44829126335E-01 -0.89960438385E-01  0.10052100409E+00  0.51100000000E-03 0. -1.
</event>
<event>
 8    1  0.1101883E+005  0.1043930E+01  0.7957747E-01            NaN
         13   -1    0    0    0    0  0.00000000000E+00  0.00000000000E+00  0.74505805969E-08  0.10566000000E+00  0.10566000000E+00 0.  1.
     999900   -1    0    0    0    0 -0.00000000000E+00 -0.00000000000E+00 -0.74505805969E-08  0.93827000000E+00  0.93827000000E+00 0. -1.
     999902    2    1    2    0    0  0.97576200900E-02  0.70865418166E-02 -0.18260245885E-01  0.10220469745E+01  0.10218126792E+01 0.  0.
     999903    2    3    3    0    0  0.36599447692E-01  0.10918460469E+00 -0.66444789902E-01  0.13442867342E+00  0.19883678244E-01 0.  0.
         14    1    1    2    0    0 -0.97576200900E-02 -0.70865418166E-02  0.18260245885E-01  0.21883025488E-01  0.00000000000E+00 0.  1.
     999901    1    3    3    0    0 -0.26841827602E-01 -0.10209806287E+00  0.48184544017E-01  0.88761830109E+00  0.88000000000E+00 0.  1.
        -11    1    4    4    0    0  0.24458098699E-01  0.69700610931E-01 -0.31442569458E-01  0.80282439246E-01  0.51100000000E-03 0.  1.
         11    1    4    4    0    0  0.12141348993E-01  0.39483993755E-01 -0.35002220444E-01  0.54146234174E-01  0.51100000000E-03 0. -1.
</event>
<event>
 8    1  0.1101883E+005  0.1043930E+01  0.7957747E-01            NaN
         13   -1    0    0    0    0  0.00000000000E+00  0.00000000000E+00  0.74505805969E-08  0.10566000000E+00  0.10566000000E+00 0.  1.
     999900   -1    0    0    0    0 -0.00000000000E+00 -0.00000000000E+00 -0.74505805969E-08  0.93827000000E+00  0.93827000000E+00 0. -1.
     999902    2    1    2    0    0  0.92420859572E-02 -0.13228276012E-01  0.16647621839E-01  0.10207449455E+01  0.10204816005E+01 0.  0.
     999903    2    3    3    0    0  0.69278120478E-01 -0.89575613888E-01 -0.64495281310E-01  0.13169072209E+00  0.18961972278E-01 0.  0.
         14    1    1    2    0    0 -0.92420859572E-02  0.13228276012E-01 -0.16647621839E-01  0.23185054496E-01  0.00000000000E+00 0.  1.
     999901    1    3    3    0    0 -0.60036034520E-01  0.76347337877E-01  0.81142903148E-01  0.88905422342E+00  0.88000000000E+00 0.  1.
        -11    1    4    4    0    0  0.47329846162E-01 -0.55611991395E-01 -0.31649548515E-01  0.79591224182E-01  0.51100000000E-03 0.  1.
         11    1    4    4    0    0  0.21948274316E-01 -0.33963622494E-01 -0.32845732794E-01  0.52099497907E-01  0.51100000000E-03 0. -1.
</event>
<event>
 8    1  0.1101883E+005  0.1043930E+01  0.7957747E-01            NaN
         13   -1    0    0    0    0  0.00000000000E+00  0.00000000000E+00  0.74505805969E-08  0.10566000000E+00  0.10566000000E+00 0.  1.
     999900   -1    0    0    0    0 -0.00000000000E+00 -0.00000000000E+00 -0.74505805969E-08  0.93827000000E+00  0.93827000000E+00 0. -1.
     999902    2    1    2    0    0  0.14470954405E-01  0.99456524603E-02 -0.15506452708E-01  0.10205040614E+01  0.10202351517E+01 0.  0.
     999903    2    3    3    0    0  0.94505935142E-01  0.50052824683E-02 -0.92061971668E-01  0.13354817022E+00  0.20081895121E-01 0.  0.
         14    1    1    2    0    0 -0.14470954405E-01 -0.99456524603E-02  0.15506452708E-01  0.23425938612E-01  0.00000000000E+00 0.  1.
     999901    1    3    3    0    0 -0.80034980736E-01  0.49403699920E-02  0.76555518960E-01  0.88695589117E+00  0.88000000000E+00 0.  1.
        -11    1    4    4    0    0  0.64884654817E-01  0.55083419246E-02 -0.50016887752E-01  0.82111573136E-01  0.51100000000E-03 0. -1.
         11    1    4    4    0    0  0.29621280325E-01 -0.50305945629E-03 -0.42045083917E-01  0.51436597083E-01  0.51100000000E-03 0.  1.
</event>
<event>
 8    1  0.1101883E+005  0.1043930E+01  0.7957747E-01            NaN
         13   -1    0    0    0    0  0.00000000000E+00  0.00000000000E+00  0.74505805969E-08  0.10566000000E+00  0.10566000000E+00 0. -1.
     999900   -1    0    0    0    0 -0.00000000000E+00 -0.00000000000E+00 -0.74505805969E-08  0.93827000000E+00  0.93827000000E+00 0.  1.
     999902    2    1    2    0    0  0.22539453794E-02 -0.35872946350E-02  0.23527403670E-01  0.10200241916E+01  0.10197440187E+01 0.  0.
     999903    2    3    3    0    0 -0.26237683136E-01 -0.77228542723E-01  0.10300550675E+00  0.13292128031E+00  0.20131281935E-01 0.  0.
         14    1    1    2    0    0 -0.22539453794E-02  0.35872946350E-02 -0.23527403670E-01  0.23905808416E-01  0.00000000000E+00 0.  1.
     999901    1    3    3    0    0  0.28491628516E-01  0.73641248088E-01 -0.79478103079E-01  0.88710291127E+00  0.88000000000E+00 0.  1.
        -11    1    4    4    0    0 -0.23281705162E-01 -0.66205274842E-01  0.97778552399E-01  0.12035814323E+00  0.51100000000E-03 0. -1.
         11    1    4    4    0    0 -0.29559779741E-02 -0.11023267881E-01  0.52269543501E-02  0.12563137082E-01  0.51100000000E-03 0.  1.
</event>
<event>
 8    1  0.1101883E+005  0.1043930E+01  0.7957747E-01            NaN
         13   -1    0    0    0    0  0.00000000000E+00  0.00000000000E+00  0.74505805969E-08  0.10566000000E+00  0.10566000000E+00 0.  1.
     999900   -1    0    0    0    0 -0.00000000000E+00 -0.00000000000E+00 -0.74505805969E-08  0.93827000000E+00  0.93827000000E+00 0. -1.
     999902    2    1    2    0    0  0.66400287565E-02 -0.11210014983E-02 -0.23610700531E-01  0.10193777739E+01  0.10190820547E+01 0.  0.
     999903    2    3    3    0    0 -0.11258355606E+00 -0.47702218439E-01  0.33246434959E-01  0.12830156684E+00  0.20134743033E-01 0.  0.
         14    1    1    2    0    0 -0.66400287565E-02  0.11210014983E-02  0.23610700531E-01  0.24552226087E-01  0.00000000000E+00 0.  1.
     999901    1    3    3    0    0  0.11922358482E+00  0.46581216941E-01 -0.56857135491E-01  0.89107620707E+00  0.88000000000E+00 0. -1.
        -11    1    4    4    0    0 -0.72170018592E-01 -0.22039282032E-01  0.14255406256E-01  0.76796609720E-01  0.51100000000E-03 0.  1.
         11    1    4    4    0    0 -0.40413537472E-01 -0.25662936407E-01  0.18991028704E-01  0.51504957123E-01  0.51100000000E-03 0. -1.
</event>
<event>
 8    1  0.1101883E+005  0.1043930E+01  0.7957747E-01            NaN
         13   -1    0    0    0    0  0.00000000000E+00  0.00000000000E+00  0.74505805969E-08  0.10566000000E+00  0.10566000000E+00 0. -1.
     999900   -1    0    0    0    0 -0.00000000000E+00 -0.00000000000E+00 -0.74505805969E-08  0.93827000000E+00  0.93827000000E+00 0. -1.
     999902    2    1    2    0    0 -0.19549171914E-01  0.61363055325E-02  0.10901642018E-01  0.10207207310E+01  0.10204568293E+01 0.  0.
     999903    2    3    3    0    0  0.26199091000E-01 -0.27967638091E-01  0.12408845131E+00  0.13163848717E+00  0.21498055825E-01 0.  0.
         14    1    1    2    0    0  0.19549171914E-01 -0.61363055325E-02 -0.10901642018E-01  0.23209268985E-01  0.00000000000E+00 0. -1.
     999901    1    3    3    0    0 -0.45748262914E-01  0.34103943623E-01 -0.11318680930E+00  0.88908224385E+00  0.88000000000E+00 0. -1.
        -11    1    4    4    0    0  0.25292334464E-02 -0.17312848562E-01  0.40770753430E-01  0.44369439971E-01  0.51100000000E-03 0.  1.
         11    1    4    4    0    0  0.23669857553E-01 -0.10654789529E-01  0.83317697884E-01  0.87269047194E-01  0.51100000000E-03 0. -1.
</event>
<event>
 8    1  0.1101883E+005  0.1043930E+01  0.7957747E-01            NaN
         13   -1    0    0    0    0  0.00000000000E+00  0.00000000000E+00  0.74505805969E-08  0.10566000000E+00  0.10566000000E+00 0.  1.
     999900   -1    0    0    0    0 -0.00000000000E+00 -0.00000000000E+00 -0.74505805969E-08  0.93827000000E+00  0.93827000000E+00 0. -1.
     999902    2    1    2    0    0 -0.15624500522E-01  0.15796105971E-01 -0.96715313256E-02  0.10196981924E+01  0.10194102330E+01 0.  0.
     999903    2    3    3    0    0 -0.95134401253E-01 -0.57240462963E-01 -0.67174916318E-01  0.13123727375E+00  0.19588969789E-01 0.  0.
         14    1    1    2    0    0  0.15624500522E-01 -0.15796105971E-01  0.96715313256E-02  0.24231807580E-01  0.00000000000E+00 0.  1.
     999901    1    3    3    0    0  0.79509900731E-01  0.73036568935E-01  0.57503384992E-01  0.88846091867E+00  0.88000000000E+00 0.  1.
        -11    1    4    4    0    0 -0.33582757579E-01 -0.13531738944E-01 -0.13664800913E-01  0.38702680404E-01  0.51100000000E-03 0.  1.
         11    1    4    4    0    0 -0.61551643674E-01 -0.43708724019E-01 -0.53510115405E-01  0.92534593348E-01  0.51100000000E-03 0. -1.
</event>
<event>
 8    1  0.1101883E+005  0.1043930E+01  0.7957747E-01            NaN
         13   -1    0    0    0    0  0.00000000000E+00  0.00000000000E+00  0.74505805969E-08  0.10566000000E+00  0.10566000000E+00 0.  1.
     999900   -1    0    0    0    0 -0.00000000000E+00 -0.00000000000E+00 -0.74505805969E-08  0.93827000000E+00  0.93827000000E+00 0. -1.
     999902    2    1    2    0    0 -0.14350159624E-02 -0.22651774635E-01  0.57277737131E-02  0.10205212504E+01  0.10202527398E+01 0.  0.
     999903    2    3    3    0    0 -0.90430768948E-01  0.80211664505E-01 -0.40179346164E-01  0.12888870570E+00  0.19654096353E-01 0.  0.
         14    1    1    2    0    0  0.14350159624E-02  0.22651774635E-01 -0.57277737131E-02  0.23408749574E-01  0.00000000000E+00 0.  1.
     999901    1    3    3    0    0  0.88995752985E-01 -0.10286343914E+00  0.45907119877E-01  0.89163254473E+00  0.88000000000E+00 0. -1.
        -11    1    4    4    0    0 -0.96832999609E-02  0.18300454943E-01 -0.64282397153E-02  0.21685394534E-01  0.51100000000E-03 0.  1.
         11    1    4    4    0    0 -0.80747468987E-01  0.61911209561E-01 -0.33751106448E-01  0.10720331116E+00  0.51100000000E-03 0. -1.
</event>
<event>
 8    1  0.1101883E+005  0.1043930E+01  0.7957747E-01            NaN
         13   -1    0    0    0    0  0.00000000000E+00  0.00000000000E+00  0.74505805969E-08  0.10566000000E+00  0.10566000000E+00 0. -1.
     999900   -1    0    0    0    0 -0.00000000000E+00 -0.00000000000E+00 -0.74505805969E-08  0.93827000000E+00  0.93827000000E+00 0. -1.
     999902    2    1    2    0    0  0.87588251841E-02  0.12427750653E-01 -0.17312084441E-01  0.10208892910E+01  0.10206292521E+01 0.  0.
     999903    2    3    3    0    0  0.60355181110E-01 -0.41514038120E-01 -0.10920047989E+00  0.13296171637E+00  0.19695429998E-01 0.  0.
         14    1    1    2    0    0 -0.87588251841E-02 -0.12427750653E-01  0.17312084441E-01  0.23040709030E-01  0.00000000000E+00 0. -1.
     999901    1    3    3    0    0 -0.51596355926E-01  0.53941788773E-01  0.91888395452E-01  0.88792757460E+00  0.88000000000E+00 0.  1.
        -11    1    4    4    0    0  0.58371833549E-03 -0.64817799503E-02 -0.10734716261E-01  0.12563815210E-01  0.51100000000E-03 0. -1.
         11    1    4    4    0    0  0.59771462774E-01 -0.35032258170E-01 -0.98465763632E-01  0.12039790116E+00  0.51100000000E-03 0.  1.
</event>
<event>
 8    1  0.1101883E+005  0.1043930E+01  0.7957747E-01            NaN
         13   -1    0    0    0    0  0.00000000000E+00  0.00000000000E+00  0.74505805969E-08  0.10566000000E+00  0.10566000000E+00 0. -1.
     999900   -1    0    0    0    0 -0.00000000000E+00 -0.00000000000E+00 -0.74505805969E-08  0.93827000000E+00  0.93827000000E+00 0. -1.
     999902    2    1    2    0    0  0.16043684405E-01  0.16895035687E-01  0.43385639013E-02  0.10202305237E+01  0.10199552227E+01 0.  0.
     999903    2    3    3    0    0  0.10096367329E+00  0.65363376070E-01  0.54559742996E-01  0.13339189612E+00  0.18724266085E-01 0.  0.
         14    1    1    2    0    0 -0.16043684405E-01 -0.16895035687E-01 -0.43385639013E-02  0.23699476300E-01  0.00000000000E+00 0.  1.
     999901    1    3    3    0    0 -0.84919988884E-01 -0.48468340382E-01 -0.50221179095E-01  0.88683862758E+00  0.88000000000E+00 0. -1.
        -11    1    4    4    0    0  0.23984230084E-01  0.13314255000E-01  0.21150819433E-01  0.34642906382E-01  0.51100000000E-03 0. -1.
         11    1    4    4    0    0  0.76979443206E-01  0.52049121070E-01  0.33408923563E-01  0.98748989742E-01  0.51100000000E-03 0.  1.
</event>
<event>
 8    1  0.1101883E+005  0.1043930E+01  0.7957747E-01            NaN
         13   -1    0    0    0    0  0.00000000000E+00  0.00000000000E+00  0.74505805969E-08  0.10566000000E+00  0.10566000000E+00 0. -1.
     999900   -1    0    0    0    0 -0.00000000000E+00 -0.00000000000E+00 -0.74505805969E-08  0.93827000000E+00  0.93827000000E+00 0. -1.
     999902    2    1    2    0    0 -0.19389091283E-01  0.29612946399E-03  0.58319229767E-02  0.10236806573E+01  0.10234803624E+01 0.  0.
     999903    2    3    3    0    0 -0.27091145258E-01  0.10038424260E+00 -0.81230823016E-01  0.13370488587E+00  0.21624605996E-01 0.  0.
         14    1    1    2    0    0  0.19389091283E-01 -0.29612946399E-03 -0.58319229767E-02  0.20249342681E-01  0.00000000000E+00 0.  1.
     999901    1    3    3    0    0  0.77020539754E-02 -0.10008811313E+00  0.87062745993E-01  0.88997577145E+00  0.88000000000E+00 0.  1.
        -11    1    4    4    0    0 -0.11147921816E-01  0.16429487576E-01 -0.22501925508E-01  0.30013363613E-01  0.51100000000E-03 0. -1.
         11    1    4    4    0    0 -0.15943223442E-01  0.83954755021E-01 -0.58728897507E-01  0.10369152226E+00  0.51100000000E-03 0.  1.
</event>
<event>
 8    1  0.1101883E+005  0.1043930E+01  0.7957747E-01            NaN
         13   -1    0    0    0    0  0.00000000000E+00  0.00000000000E+00  0.74505805969E-08  0.10566000000E+00  0.10566000000E+00 0. -1.
     999900   -1    0    0    0    0 -0.00000000000E+00 -0.00000000000E+00 -0.74505805969E-08  0.93827000000E+00  0.93827000000E+00 0.  1.
     999902    2    1    2    0    0 -0.38387834346E-02 -0.20921061793E-01  0.16913482621E-01  0.10167547727E+01  0.10163915460E+01 0.  0.
     999903    2    3    3    0    0 -0.11580114537E+00 -0.24232306884E-01  0.47919844540E-01  0.12911299286E+00  0.19409880404E-01 0.  0.
         14    1    1    2    0    0  0.38387834346E-02  0.20921061793E-01 -0.16913482621E-01  0.27175227306E-01  0.00000000000E+00 0.  1.
     999901    1    3    3    0    0  0.11196236194E+00  0.33112450915E-02 -0.31006361919E-01  0.88764177984E+00  0.88000000000E+00 0.  1.
        -11    1    4    4    0    0 -0.62467997095E-01 -0.21801081077E-01  0.31301412576E-01  0.73195473544E-01  0.51100000000E-03 0.  1.
         11    1    4    4    0    0 -0.53333148276E-01 -0.24312258071E-02  0.16618431964E-01  0.55917519311E-01  0.51100000000E-03 0. -1.
</event>
<event>
 8    1  0.1101883E+005  0.1043930E+01  0.7957747E-01            NaN
         13   -1    0    0    0    0  0.00000000000E+00  0.00000000000E+00  0.74505805969E-08  0.10566000000E+00  0.10566000000E+00 0. -1.
     999900   -1    0    0    0    0 -0.00000000000E+00 -0.00000000000E+00 -0.74505805969E-08  0.93827000000E+00  0.93827000000E+00 0. -1.
     999902    2    1    2    0    0 -0.11074441443E-01  0.12901084015E-01  0.15577921850E-01  0.10208702326E+01  0.10206097584E+01 0.  0.
     999903    2    3    3    0    0  0.12424629888E-01  0.33397365199E-01 -0.12359351298E+00  0.12938776383E+00  0.14002912166E-01 0.  0.
         14    1    1    2    0    0  0.11074441443E-01 -0.12901084015E-01 -0.15577921850E-01  0.23059767371E-01  0.00000000000E+00 0.  1.
     999901    1    3    3    0    0 -0.23499071331E-01 -0.20496281183E-01  0.13917143483E+00  0.89148246879E+00  0.88000000000E+00 0.  1.
        -11    1    4    4    0    0 -0.14141090918E-02  0.12810794495E-01 -0.53490129286E-01  0.55023369691E-01  0.51100000000E-03 0. -1.
         11    1    4    4    0    0  0.13838738980E-01  0.20586570704E-01 -0.70103383694E-01  0.74364394143E-01  0.51100000000E-03 0.  1.
</event>
<event>
 8    1  0.1101883E+005  0.1043930E+01  0.7957747E-01            NaN
         13   -1    0    0    0    0  0.00000000000E+00  0.00000000000E+00  0.74505805969E-08  0.10566000000E+00  0.10566000000E+00 0.  1.
     999900   -1    0    0    0    0 -0.00000000000E+00 -0.00000000000E+00 -0.74505805969E-08  0.93827000000E+00  0.93827000000E+00 0.  1.
     999902    2    1    2    0    0 -0.12159150864E-01  0.18843594398E-01  0.59719092161E-02  0.10207224646E+01  0.10204586028E+01 0.  0.
     999903    2    3    3    0    0  0.61750969273E-01 -0.81923586089E-01  0.75920714570E-01  0.12914545397E+00  0.19746827985E-01 0.  0.
         14    1    1    2    0    0  0.12159150864E-01 -0.18843594398E-01 -0.59719092161E-02  0.23207535398E-01  0.00000000000E+00 0.  1.
     999901    1    3    3    0    0 -0.73910120138E-01  0.10076718049E+00 -0.69948805354E-01  0.89157701063E+00  0.88000000000E+00 0. -1.
        -11    1    4    4    0    0  0.56399660783E-01 -0.62437188592E-01  0.63592216449E-01  0.10546826712E+00  0.51100000000E-03 0. -1.
         11    1    4    4    0    0  0.53513084910E-02 -0.19486397497E-01  0.12328498121E-01  0.23677186845E-01  0.51100000000E-03 0.  1.
</event>
<event>
 8    1  0.1101883E+005  0.1043930E+01  0.7957747E-01            NaN
         13   -1    0    0    0    0  0.00000000000E+00  0.00000000000E+00  0.74505805969E-08  0.10566000000E+00  0.10566000000E+00 0. -1.
     999900   -1    0    0    0    0 -0.00000000000E+00 -0.00000000000E+00 -0.74505805969E-08  0.93827000000E+00  0.93827000000E+00 0. -1.
     999902    2    1    2    0    0  0.20387440489E-01 -0.10821050795E-01 -0.50877305011E-02  0.10202946902E+01  0.10200208953E+01 0.  0.
     999903    2    3    3    0    0 -0.12089778578E+00  0.34601019627E-01 -0.95480830643E-02  0.12785725571E+00  0.21042974642E-01 0.  0.
         14    1    1    2    0    0 -0.20387440489E-01  0.10821050795E-01  0.50877305011E-02  0.23635309849E-01  0.00000000000E+00 0.  1.
     999901    1    3    3    0    0  0.14128522627E+00 -0.45422070422E-01  0.44603525632E-02  0.89243743444E+00  0.88000000000E+00 0. -1.
        -11    1    4    4    0    0 -0.42307207352E-01  0.11693233074E-01 -0.13423117637E-01  0.45902861585E-01  0.51100000000E-03 0. -1.
         11    1    4    4    0    0 -0.78590578429E-01  0.22907786553E-01  0.38750345722E-02  0.81954394126E-01  0.51100000000E-03 0.  1.
</event>
<event>
 8    1  0.1101883E+005  0.1043930E+01  0.7957747E-01            NaN
         13   -1    0    0    0    0  0.00000000000E+00  0.00000000000E+00  0.74505805969E-08  0.10566000000E+00  0.10566000000E+00 0. -1.
     999900   -1    0    0    0    0 -0.00000000000E+00 -0.00000000000E+00 -0.74505805969E-08  0.93827000000E+00  0.93827000000E+00 0. -1.
     999902    2    1    2    0    0 -0.18741156794E-01  0.22442459154E-02 -0.14747258923E-01  0.10199769367E+01  0.10196956419E+01 0.  0.
     999903    2    3    3    0    0 -0.11937578183E+00 -0.47769602382E-01  0.22412536396E-01  0.13205263630E+00  0.20076472966E-01 0.  0.
         14    1    1    2    0    0  0.18741156794E-01 -0.22442459154E-02  0.14747258923E-01  0.23953063341E-01  0.00000000000E+00 0. -1.
     999901    1    3    3    0    0  0.10063462504E+00  0.50013848298E-01 -0.37159795318E-01  0.88792430036E+00  0.88000000000E+00 0. -1.
        -11    1    4    4    0    0 -0.95397218486E-01 -0.32550622257E-01  0.10838398468E-01  0.10137999954E+00  0.51100000000E-03 0.  1.
         11    1    4    4    0    0 -0.23978563345E-01 -0.15218980126E-01  0.11574137927E-01  0.30672636762E-01  0.51100000000E-03 0. -1.
</event>
<event>
 7    1  0.1101883E+005  0.1043930E+01  0.7957747E-01            NaN
         13   -1    0    0    0    0  0.00000000000E+00  0.00000000000E+00  0.74505805969E-08  0.10566000000E+00  0.10566000000E+00 0.  1.
     999900   -1    0    0    0    0 -0.00000000000E+00 -0.00000000000E+00 -0.74505805969E-08  0.93827000000E+00  0.93827000000E+00 0. -1.
     999903    2    1    2    0    0 -0.75345764301E-01 -0.19321155923E-01  0.20839153436E-01  0.82835361679E-01  0.19419978483E-01 0.  0.
         14    1    1    2    0    0 -0.63560721697E-01  0.26441138832E-01 -0.13434722711E-01  0.70139795692E-01  0.00000000000E+00 0.  1.
     999901    1    1    2    0    0  0.13890648600E+00 -0.71199829097E-02 -0.74044307256E-02  0.89095484263E+00  0.88000000000E+00 0.  1.
        -11    1    3    3    0    0 -0.20021957321E-01 -0.11205088372E-01  0.12983744048E-01  0.26368001648E-01  0.51100000000E-03 0.  1.
         11    1    3    3    0    0 -0.55323806980E-01 -0.81160675507E-02  0.78554093879E-02  0.56467360031E-01  0.51100000000E-03 0. -1.
</event>
<event>
 8    1  0.1101883E+005  0.1043930E+01  0.7957747E-01            NaN
         13   -1    0    0    0    0  0.00000000000E+00  0.00000000000E+00  0.74505805969E-08  0.10566000000E+00  0.10566000000E+00 0. -1.
     999900   -1    0    0    0    0 -0.00000000000E+00 -0.00000000000E+00 -0.74505805969E-08  0.93827000000E+00  0.93827000000E+00 0.  1.
     999902    2    1    2    0    0  0.52771955456E-02  0.77067205794E-03 -0.22701068092E-01  0.10206108829E+01  0.10203444483E+01 0.  0.
     999903    2    3    3    0    0  0.85357921496E-02  0.11842344648E-01 -0.13134289441E+00  0.13385485853E+00  0.21285355667E-01 0.  0.
         14    1    1    2    0    0 -0.52771955456E-02 -0.77067205794E-03  0.22701068092E-01  0.23319117067E-01  0.00000000000E+00 0. -1.
     999901    1    3    3    0    0 -0.32585966041E-02 -0.11071672590E-01  0.10864182632E+00  0.88675602440E+00  0.88000000000E+00 0. -1.
        -11    1    4    4    0    0  0.41432625274E-02 -0.53397031156E-02 -0.58086478716E-01  0.58480588099E-01  0.51100000000E-03 0. -1.
         11    1    4    4    0    0  0.43925296222E-02  0.17182047763E-01 -0.73256415695E-01  0.75374270433E-01  0.51100000000E-03 0.  1.
</event>
<event>
 8    1  0.1101883E+005  0.1043930E+01  0.7957747E-01            NaN
         13   -1    0    0    0    0  0.00000000000E+00  0.00000000000E+00  0.74505805969E-08  0.10566000000E+00  0.10566000000E+00 0. -1.
     999900   -1    0    0    0    0 -0.00000000000E+00 -0.00000000000E+00 -0.74505805969E-08  0.93827000000E+00  0.93827000000E+00 0. -1.
     999902    2    1    2    0    0  0.17997188682E-01 -0.81220208567E-02  0.12801286099E-01  0.10203983416E+01  0.10201269708E+01 0.  0.
     999903    2    3    3    0    0 -0.10544893310E+00  0.61741329110E-01 -0.31916438849E-01  0.12791892579E+00  0.20325434617E-01 0.  0.
         14    1    1    2    0    0 -0.17997188682E-01  0.81220208567E-02 -0.12801286099E-01  0.23531658442E-01  0.00000000000E+00 0.  1.
     999901    1    3    3    0    0  0.12344612179E+00 -0.69863349967E-01  0.44717724947E-01  0.89247941577E+00  0.88000000000E+00 0. -1.
        -11    1    4    4    0    0 -0.49982060685E-01  0.30097257344E-01 -0.25702032729E-01  0.63756622380E-01  0.51100000000E-03 0.  1.
         11    1    4    4    0    0 -0.55466872418E-01  0.31644071766E-01 -0.62144061197E-02  0.64162303405E-01  0.51100000000E-03 0. -1.
</event>
<event>
 8    1  0.1101883E+005  0.1043930E+01  0.7957747E-01            NaN
         13   -1    0    0    0    0  0.00000000000E+00  0.00000000000E+00  0.74505805969E-08  0.10566000000E+00  0.10566000000E+00 0.  1.
     999900   -1    0    0    0    0 -0.00000000000E+00 -0.00000000000E+00 -0.74505805969E-08  0.93827000000E+00  0.93827000000E+00 0.  1.
     999902    2    1    2    0    0 -0.32276338490E-02  0.18935626357E-01 -0.13924470923E-01  0.10202051932E+01  0.10199292965E+01 0.  0.
     999903    2    3    3    0    0  0.93245526541E-02  0.78992209268E-01  0.10157411265E+00  0.13053993408E+00  0.19916265235E-01 0.  0.
         14    1    1    2    0    0  0.32276338490E-02 -0.18935626357E-01  0.13924470923E-01  0.23724806770E-01  0.00000000000E+00 0. -1.
     999901    1    3    3    0    0 -0.12552186503E-01 -0.60056582910E-01 -0.11549858357E+00  0.88966525915E+00  0.88000000000E+00 0.  1.
        -11    1    4    4    0    0  0.13362181698E-01  0.44418889335E-01  0.48904870093E-01  0.67405734691E-01  0.51100000000E-03 0.  1.
         11    1    4    4    0    0 -0.40376290441E-02  0.34573319933E-01  0.52669242557E-01  0.63134199386E-01  0.51100000000E-03 0. -1.
</event>
<event>
 8    1  0.1101883E+005  0.1043930E+01  0.7957747E-01            NaN
         13   -1    0    0    0    0  0.00000000000E+00  0.00000000000E+00  0.74505805969E-08  0.10566000000E+00  0.10566000000E+00 0. -1.
     999900   -1    0    0    0    0 -0.00000000000E+00 -0.00000000000E+00 -0.74505805969E-08  0.93827000000E+00  0.93827000000E+00 0.  1.
     999902    2    1    2    0    0  0.21617549560E-01 -0.91869234035E-02 -0.46313387764E-02  0.10199890871E+01  0.10197080810E+01 0.  0.
     999903    2    3    3    0    0  0.93358827290E-02  0.10483241467E+00 -0.73666889650E-01  0.12986709768E+00  0.19017322597E-01 0.  0.
         14    1    1    2    0    0 -0.21617549560E-01  0.91869234035E-02  0.46313387764E-02  0.23940912879E-01  0.00000000000E+00 0. -1.
     999901    1    3    3    0    0  0.12281666831E-01 -0.11401933807E+00  0.69035550873E-01  0.89012198944E+00  0.88000000000E+00 0. -1.
        -11    1    4    4    0    0  0.14823610725E-01  0.74273384850E-01 -0.48978520251E-01  0.90196627980E-01  0.51100000000E-03 0.  1.
         11    1    4    4    0    0 -0.54877279956E-02  0.30559029819E-01 -0.24688369399E-01  0.39670469705E-01  0.51100000000E-03 0. -1.
</event>
<event>
 8    1  0.1101883E+005  0.1043930E+01  0.7957747E-01            NaN
         13   -1    0    0    0    0  0.00000000000E+00  0.00000000000E+00  0.74505805969E-08  0.10566000000E+00  0.10566000000E+00 0. -1.
     999900   -1    0    0    0    0 -0.00000000000E+00 -0.00000000000E+00 -0.74505805969E-08  0.93827000000E+00  0.93827000000E+00 0.  1.
     999902    2    1    2    0    0 -0.39588957158E-02  0.53147916023E-02 -0.23545041579E-01  0.10194700563E+01  0.10191765827E+01 0.  0.
     999903    2    3    3    0    0 -0.11153840835E+00 -0.31288174057E-01  0.52349461626E-01  0.12892353627E+00  0.21471974763E-01 0.  0.
         14    1    1    2    0    0  0.39588957158E-02 -0.53147916023E-02  0.23545041579E-01  0.24459943745E-01  0.00000000000E+00 0. -1.
     999901    1    3    3    0    0  0.10757951263E+00  0.36602965659E-01 -0.75894503205E-01  0.89054651998E+00  0.88000000000E+00 0.  1.
        -11    1    4    4    0    0 -0.26303492520E-01 -0.14479385467E-01  0.20642936594E-01  0.36440612981E-01  0.51100000000E-03 0. -1.
         11    1    4    4    0    0 -0.85234915828E-01 -0.16808788590E-01  0.31706525032E-01  0.92482923293E-01  0.51100000000E-03 0.  1.
</event>
<event>
 7    1  0.1101883E+005  0.1043930E+01  0.7957747E-01            NaN
         13   -1    0    0    0    0  0.00000000000E+00  0.00000000000E+00  0.74505805969E-08  0.10566000000E+00  0.10566000000E+00 0. -1.
     999900   -1    0    0    0    0 -0.00000000000E+00 -0.00000000000E+00 -0.74505805969E-08  0.93827000000E+00  0.93827000000E+00 0. -1.
     999903    2    1    2    0    0 -0.31543332118E-02  0.10771300920E+00  0.22326191482E-01  0.11287314982E+00  0.25096751907E-01 0.  0.
         14    1    1    2    0    0  0.30126196056E-01 -0.13263615688E-01  0.29327695083E-01  0.44086561317E-01  0.00000000000E+00 0. -1.
     999901    1    1    2    0    0 -0.26971862844E-01 -0.94449393512E-01 -0.51653886564E-01  0.88697028886E+00  0.88000000000E+00 0. -1.
        -11    1    3    3    0    0 -0.79804458563E-02  0.79387551365E-01  0.64708231961E-02  0.80051255466E-01  0.51100000000E-03 0.  1.
         11    1    3    3    0    0  0.48261126444E-02  0.28325457835E-01  0.15855368285E-01  0.32821894358E-01  0.51100000000E-03 0. -1.
</event>
<event>
 8    1  0.1101883E+005  0.1043930E+01  0.7957747E-01            NaN
         13   -1    0    0    0    0  0.00000000000E+00  0.00000000000E+00  0.74505805969E-08  0.10566000000E+00  0.10566000000E+00 0.  1.
     999900   -1    0    0    0    0 -0.00000000000E+00 -0.00000000000E+00 -0.74505805969E-08  0.93827000000E+00  0.93827000000E+00 0.  1.
     999902    2    1    2    0    0 -0.85588261543E-02  0.16083545003E-01 -0.14668757754E-01  0.10205396948E+01  0.10202716120E+01 0.  0.
     999903    2    3    3    0    0 -0.60127618690E-01 -0.10756292217E+00  0.33831323910E-01  0.12908019084E+00  0.18221537704E-01 0.  0.
         14    1    1    2    0    0  0.85588261543E-02 -0.16083545003E-01  0.14668757754E-01  0.23390305236E-01  0.00000000000E+00 0.  1.
     999901    1    3    3    0    0  0.51568792536E-01  0.12364646717E+00 -0.48500081664E-01  0.89145950392E+00  0.88000000000E+00 0.  1.
        -11    1    4    4    0    0 -0.23219196826E-01 -0.30788854299E-01  0.37907430108E-02  0.38751974193E-01  0.51100000000E-03 0.  1.
         11    1    4    4    0    0 -0.36908421864E-01 -0.76774067868E-01  0.30040580900E-01  0.90328216651E-01  0.51100000000E-03 0. -1.
</event>
<event>
 8    1  0.1101883E+005  0.1043930E+01  0.7957747E-01            NaN
         13   -1    0    0    0    0  0.00000000000E+00  0.00000000000E+00  0.74505805969E-08  0.10566000000E+00  0.10566000000E+00 0.  1.
     999900   -1    0    0    0    0 -0.00000000000E+00 -0.00000000000E+00 -0.74505805969E-08  0.93827000000E+00  0.93827000000E+00 0.  1.
     999902    2    1    2    0    0  0.14299688496E-01  0.17910079641E-01  0.61326677339E-02  0.10202052944E+01  0.10199294000E+01 0.  0.
     999903    2    3    3    0    0 -0.85798102387E-02  0.28554319978E-01  0.12685808390E+00  0.13160448555E+00  0.18379467728E-01 0.  0.
         14    1    1    2    0    0 -0.14299688496E-01 -0.17910079641E-01 -0.61326677339E-02  0.23724705633E-01  0.00000000000E+00 0. -1.
     999901    1    3    3    0    0  0.22879498735E-01 -0.10644240337E-01 -0.12072541617E+00  0.88860080881E+00  0.88000000000E+00 0.  1.
        -11    1    4    4    0    0 -0.67899805398E-02  0.13282672509E-01  0.95679775548E-01  0.96837047635E-01  0.51100000000E-03 0. -1.
         11    1    4    4    0    0 -0.17898296989E-02  0.15271647469E-01  0.31178308353E-01  0.34767437919E-01  0.51100000000E-03 0.  1.
</event>
<event>
 8    1  0.1101883E+005  0.1043930E+01  0.7957747E-01            NaN
         13   -1    0    0    0    0  0.00000000000E+00  0.00000000000E+00  0.74505805969E-08  0.10566000000E+00  0.10566000000E+00 0.  1.
     999900   -1    0    0    0    0 -0.00000000000E+00 -0.00000000000E+00 -0.74505805969E-08  0.93827000000E+00  0.93827000000E+00 0. -1.
     999902    2    1    2    0    0  0.19240554073E-01  0.10746140491E-01  0.20273270627E-02  0.10217988339E+01  0.10215591361E+01 0.  0.
     999903    2    3    3    0    0 -0.11043517833E-01  0.38300150372E-01  0.12460014453E+00  0.13236055948E+00  0.20131092514E-01 0.  0.
         14    1    1    2    0    0 -0.19240554073E-01 -0.10746140491E-01 -0.20273270627E-02  0.22131166068E-01  0.00000000000E+00 0.  1.
     999901    1    3    3    0    0  0.30284071906E-01 -0.27554009882E-01 -0.12257281747E+00  0.88943827445E+00  0.88000000000E+00 0. -1.
        -11    1    4    4    0    0 -0.38750634651E-02  0.29369987867E-01  0.61954637816E-01  0.68674963211E-01  0.51100000000E-03 0.  1.
         11    1    4    4    0    0 -0.71684543679E-02  0.89301625059E-02  0.62645506713E-01  0.63685596273E-01  0.51100000000E-03 0. -1.
</event>
<event>
 8    1  0.1101883E+005  0.1043930E+01  0.7957747E-01            NaN
         13   -1    0    0    0    0  0.00000000000E+00  0.00000000000E+00  0.74505805969E-08  0.10566000000E+00  0.10566000000E+00 0. -1.
     999900   -1    0    0    0    0 -0.00000000000E+00 -0.00000000000E+00 -0.74505805969E-08  0.93827000000E+00  0.93827000000E+00 0. -1.
     999902    2    1    2    0    0 -0.11007704298E-01 -0.18336418661E-01 -0.12495157401E-01  0.10191606084E+01  0.10188595698E+01 0.  0.
     999903    2    3    3    0    0 -0.11716870993E+00 -0.52727160029E-01  0.19511850670E-01  0.13153606456E+00  0.20306746950E-01 0.  0.
         14    1    1    2    0    0  0.11007704298E-01  0.18336418661E-01  0.12495157401E-01  0.24769391630E-01  0.00000000000E+00 0.  1.
     999901    1    3    3    0    0  0.10616100563E+00  0.34390741368E-01 -0.32007008072E-01  0.88762454381E+00  0.88000000000E+00 0. -1.
        -11    1    4    4    0    0 -0.81342614711E-01 -0.44950443432E-01  0.88763782382E-02  0.93360669151E-01  0.51100000000E-03 0. -1.
         11    1    4    4    0    0 -0.35826095220E-01 -0.77767165969E-02  0.10635472432E-01  0.38175395409E-01  0.51100000000E-03 0.  1.
</event>
<event>
 8    1  0.1101883E+005  0.1043930E+01  0.7957747E-01            NaN
         13   -1    0    0    0    0  0.00000000000E+00  0.00000000000E+00  0.74505805969E-08  0.10566000000E+00  0.10566000000E+00 0.  1.
     999900   -1    0    0    0    0 -0.00000000000E+00 -0.00000000000E+00 -0.74505805969E-08  0.93827000000E+00  0.93827000000E+00 0.  1.
     999902    2    1    2    0    0 -0.88807288682E-05 -0.49042693463E-02  0.23262582313E-01  0.10201560716E+01  0.10198790177E+01 0.  0.
     999903    2    3    3    0    0 -0.48841599974E-01  0.16355237582E-01 -0.11510451293E+00  0.12775366563E+00  0.20468378064E-01 0.  0.
         14    1    1    2    0    0  0.88807288682E-05  0.49042693463E-02 -0.23262582313E-01  0.23773928421E-01  0.00000000000E+00 0. -1.
     999901    1    3    3    0    0  0.48832719245E-01 -0.21259506928E-01  0.13836709524E+00  0.89240240595E+00  0.88000000000E+00 0. -1.
        -11    1    4    4    0    0 -0.14158808488E-01  0.47459959081E-02 -0.14984019403E-01  0.21160772515E-01  0.51100000000E-03 0. -1.
         11    1    4    4    0    0 -0.34682791486E-01  0.11609241674E-01 -0.10012049352E+00  0.10659289311E+00  0.51100000000E-03 0.  1.
</event>
<event>
 8    1  0.1101883E+005  0.1043930E+01  0.7957747E-01            NaN
         13   -1    0    0    0    0  0.00000000000E+00  0.00000000000E+00  0.74505805969E-08  0.10566000000E+00  0.10566000000E+00 0.  1.
     999900   -1    0    0    0    0 -0.00000000000E+00 -0.00000000000E+00 -0.74505805969E-08  0.93827000000E+00  0.93827000000E+00 0.  1.
     999902    2    1    2    0    0 -0.13298899479E-01 -0.15086787594E-01  0.10383560654E-01  0.10212961709E+01  0.10210453362E+01 0.  0.
     999903    2    3    3    0    0  0.74996241191E-01 -0.52133185300E-01  0.93847540361E-01  0.13217598592E+00  0.17911594588E-01 0.  0.
         14    1    1    2    0    0  0.13298899479E-01  0.15086787594E-01 -0.10383560654E-01  0.22633829086E-01  0.00000000000E+00 0. -1.
     999901    1    3    3    0    0 -0.88295140670E-01  0.37046397706E-01 -0.83463979707E-01  0.88912018499E+00  0.88000000000E+00 0.  1.
        -11    1    4    4    0    0  0.38216669933E-01 -0.24012796392E-01  0.34005354451E-01  0.56513303776E-01  0.51100000000E-03 0.  1.
         11    1    4    4    0    0  0.36779571258E-01 -0.28120388907E-01  0.59842185910E-01  0.75662682147E-01  0.51100000000E-03 0. -1.
</event>
<event>
 8    1  0.1101883E+005  0.1043930E+01  0.7957747E-01            NaN
         13   -1    0    0    0    0  0.00000000000E+00  0.00000000000E+00  0.74505805969E-08  0.10566000000E+00  0.10566000000E+00 0.  1.
     999900   -1    0    0    0    0 -0.00000000000E+00 -0.00000000000E+00 -0.74505805969E-08  0.93827000000E+00  0.93827000000E+00 0. -1.
     999902    2    1    2    0    0  0.12260173653E-01 -0.13020958356E-01 -0.16429578083E-01  0.10196444436E+01  0.10193551899E+01 0.  0.
     999903    2    3    3    0    0 -0.10012407040E+00 -0.21606939366E-01  0.73853059151E-01  0.12787379371E+00  0.20143075008E-01 0.  0.
         14    1    1    2    0    0 -0.12260173653E-01  0.13020958356E-01  0.16429578083E-01  0.24285556418E-01  0.00000000000E+00 0.  1.
     999901    1    3    3    0    0  0.11238424405E+00  0.85859810100E-02 -0.90282637234E-01  0.89177064987E+00  0.88000000000E+00 0. -1.
        -11    1    4    4    0    0 -0.31123699365E-01  0.23521398268E-02  0.25079449844E-01  0.40043191049E-01  0.51100000000E-03 0.  1.
         11    1    4    4    0    0 -0.69000371034E-01 -0.23959079193E-01  0.48773609307E-01  0.87830602665E-01  0.51100000000E-03 0. -1.
</event>
<event>
 8    1  0.1101883E+005  0.1043930E+01  0.7957747E-01            NaN
         13   -1    0    0    0    0  0.00000000000E+00  0.00000000000E+00  0.74505805969E-08  0.10566000000E+00  0.10566000000E+00 0.  1.
     999900   -1    0    0    0    0 -0.00000000000E+00 -0.00000000000E+00 -0.74505805969E-08  0.93827000000E+00  0.93827000000E+00 0.  1.
     999902    2    1    2    0    0  0.93390376561E-02 -0.44487901195E-03  0.22267878838E-01  0.10197789344E+01  0.10194929137E+01 0.  0.
     999903    2    3    3    0    0 -0.16653540548E-01  0.10013997421E+00 -0.75793596467E-01  0.12825833466E+00  0.20004406945E-01 0.  0.
         14    1    1    2    0    0 -0.93390376561E-02  0.44487901195E-03 -0.22267878838E-01  0.24151065600E-01  0.00000000000E+00 0. -1.
     999901    1    3    3    0    0  0.25992578204E-01 -0.10058485322E+00  0.98061475305E-01  0.89152059974E+00  0.88000000000E+00 0.  1.
        -11    1    4    4    0    0 -0.38935254818E-02  0.65021994631E-01 -0.39582145078E-01  0.76223530858E-01  0.51100000000E-03 0. -1.
         11    1    4    4    0    0 -0.12760015066E-01  0.35117979579E-01 -0.36211451389E-01  0.52034803804E-01  0.51100000000E-03 0.  1.
</event>
<event>
 8    1  0.1101883E+005  0.1043930E+01  0.7957747E-01            NaN
         13   -1    0    0    0    0  0.00000000000E+00  0.00000000000E+00  0.74505805969E-08  0.10566000000E+00  0.10566000000E+00 0.  1.
     999900   -1    0    0    0    0 -0.00000000000E+00 -0.00000000000E+00 -0.74505805969E-08  0.93827000000E+00  0.93827000000E+00 0.  1.
     999902    2    1    2    0    0 -0.15197742037E-01  0.10855827877E-01  0.14037622788E-01  0.10205660274E+01  0.10202985549E+01 0.  0.
     999903    2    3    3    0    0  0.92924260857E-02 -0.41878824279E-01 -0.11959092304E+00  0.12858099382E+00  0.19771140429E-01 0.  0.
         14    1    1    2    0    0  0.15197742037E-01 -0.10855827877E-01 -0.14037622788E-01  0.23363972596E-01  0.00000000000E+00 0. -1.
     999901    1    3    3    0    0 -0.24490168123E-01  0.52734652155E-01  0.13362854583E+00  0.89198503358E+00  0.88000000000E+00 0. -1.
        -11    1    4    4    0    0  0.54977240166E-02 -0.69473308380E-02 -0.48199311298E-01  0.49009438945E-01  0.51100000000E-03 0. -1.
         11    1    4    4    0    0  0.37947020691E-02 -0.34931493441E-01 -0.71391611741E-01  0.79571554878E-01  0.51100000000E-03 0.  1.
</event>
<event>
 8    1  0.1101883E+005  0.1043930E+01  0.7957747E-01            NaN
         13   -1    0    0    0    0  0.00000000000E+00  0.00000000000E+00  0.74505805969E-08  0.10566000000E+00  0.10566000000E+00 0. -1.
     999900   -1    0    0    0    0 -0.00000000000E+00 -0.00000000000E+00 -0.74505805969E-08  0.93827000000E+00  0.93827000000E+00 0. -1.
     999902    2    1    2    0    0  0.11428944665E-01  0.21106002893E-01  0.89700237452E-03  0.10199114916E+01  0.10196286392E+01 0.  0.
     999903    2    3    3    0    0  0.35842963120E-01  0.88294341294E-01 -0.89272042530E-01  0.13242021061E+00  0.22022849266E-01 0.  0.
         14    1    1    2    0    0 -0.11428944665E-01 -0.21106002893E-01 -0.89700237452E-03  0.24018508437E-01  0.00000000000E+00 0. -1.
     999901    1    3    3    0    0 -0.24414018456E-01 -0.67188338401E-01  0.90169044905E-01  0.88749128096E+00  0.88000000000E+00 0.  1.
        -11    1    4    4    0    0  0.13851613918E-01  0.40736884625E-01 -0.26028509861E-01  0.50290212006E-01  0.51100000000E-03 0.  1.
         11    1    4    4    0    0  0.21991349203E-01  0.47557456670E-01 -0.63243532669E-01  0.82129998601E-01  0.51100000000E-03 0. -1.
</event>
<event>
 8    1  0.1101883E+005  0.1043930E+01  0.7957747E-01            NaN
         13   -1    0    0    0    0  0.00000000000E+00  0.00000000000E+00  0.74505805969E-08  0.10566000000E+00  0.10566000000E+00 0.  1.
     999900   -1    0    0    0    0 -0.00000000000E+00 -0.00000000000E+00 -0.74505805969E-08  0.93827000000E+00  0.93827000000E+00 0.  1.
     999902    2    1    2    0    0 -0.20408257137E-01  0.15029326906E-01 -0.95805873911E-02  0.10168345155E+01  0.10164734461E+01 0.  0.
     999903    2    3    3    0    0  0.61366372477E-03  0.39307520448E-02  0.12467105448E+00  0.12633544032E+00  0.20048547606E-01 0.  0.
         14    1    1    2    0    0  0.20408257137E-01 -0.15029326906E-01  0.95805873911E-02  0.27095484520E-01  0.00000000000E+00 0.  1.
     999901    1    3    3    0    0 -0.21021920861E-01  0.11098574862E-01 -0.13425164187E+00  0.89049907516E+00  0.88000000000E+00 0.  1.
        -11    1    4    4    0    0  0.35517791533E-03  0.12151569210E-01  0.77718492489E-01  0.78665189133E-01  0.51100000000E-03 0.  1.
         11    1    4    4    0    0  0.25848580945E-03 -0.82208171648E-02  0.46952561988E-01  0.47670251185E-01  0.51100000000E-03 0. -1.
</event>
<event>
 8    1  0.1101883E+005  0.1043930E+01  0.7957747E-01            NaN
         13   -1    0    0    0    0  0.00000000000E+00  0.00000000000E+00  0.74505805969E-08  0.10566000000E+00  0.10566000000E+00 0.  1.
     999900   -1    0    0    0    0 -0.00000000000E+00 -0.00000000000E+00 -0.74505805969E-08  0.93827000000E+00  0.93827000000E+00 0.  1.
     999902    2    1    2    0    0 -0.16266185256E-01  0.48522264715E-03  0.16769272189E-01  0.10205626571E+01  0.10202951065E+01 0.  0.
     999903    2    3    3    0    0  0.79923542663E-01 -0.95927842583E-01 -0.25624210446E-01  0.12907785619E+00  0.20360971092E-01 0.  0.
         14    1    1    2    0    0  0.16266185256E-01 -0.48522264715E-03 -0.16769272189E-01  0.23367342886E-01  0.00000000000E+00 0.  1.
     999901    1    3    3    0    0 -0.96189727919E-01  0.96413065230E-01  0.42393482636E-01  0.89148480092E+00  0.88000000000E+00 0. -1.
        -11    1    4    4    0    0  0.60416013913E-01 -0.81855385181E-01 -0.26030105651E-01  0.10501536241E+00  0.51100000000E-03 0.  1.
         11    1    4    4    0    0  0.19507528750E-01 -0.14072457403E-01  0.40589520443E-03  0.24062493786E-01  0.51100000000E-03 0. -1.
</event>
<event>
 8    1  0.1308875E+005  0.1043930E+01  0.7957747E-01            NaN
         13   -1    0    0    0    0  0.00000000000E+00  0.00000000000E+00  0.74505805969E-08  0.10566000000E+00  0.10566000000E+00 0. -1.
     999900   -1    0    0    0    0 -0.00000000000E+00 -0.00000000000E+00 -0.74505805969E-08  0.93827000000E+00  0.93827000000E+00 0.  1.
     999902    2    1    2    0    0 -0.26805048530E-01 -0.11190541614E-01 -0.12072818791E-01  0.10124738114E+01  0.10119850428E+01 0.  0.
     999903    2    3    3    0    0  0.90245799466E-01  0.39852263262E-01  0.65317038031E-01  0.11989582663E+00  0.19395529814E-01 0.  0.
         14    1    1    2    0    0  0.26805048530E-01  0.11190541614E-01  0.12072818791E-01  0.31456188610E-01  0.00000000000E+00 0.  1.
     999901    1    3    3    0    0 -0.11705084800E+00 -0.51042804876E-01 -0.77389856822E-01  0.89257798476E+00  0.88000000000E+00 0. -1.
        -11    1    4    4    0    0  0.41891214827E-01  0.87765603679E-02  0.32138159047E-01  0.53525921567E-01  0.51100000000E-03 0. -1.
         11    1    4    4    0    0  0.48354584639E-01  0.31075702894E-01  0.33178878984E-01  0.66369905059E-01  0.51100000000E-03 0.  1.
</event>
<event>
 8    1  0.1101883E+005  0.1043930E+01  0.7957747E-01            NaN
         13   -1    0    0    0    0  0.00000000000E+00  0.00000000000E+00  0.74505805969E-08  0.10566000000E+00  0.10566000000E+00 0. -1.
     999900   -1    0    0    0    0 -0.00000000000E+00 -0.00000000000E+00 -0.74505805969E-08  0.93827000000E+00  0.93827000000E+00 0.  1.
     999902    2    1    2    0    0 -0.37765178480E-02  0.23342383625E-01  0.36277924277E-02  0.10200074199E+01  0.10197268491E+01 0.  0.
     999903    2    3    3    0    0  0.11072826366E+00  0.23019374211E-01  0.62141482037E-01  0.13066198579E+00  0.20502457834E-01 0.  0.
         14    1    1    2    0    0  0.37765178480E-02 -0.23342383625E-01 -0.36277924277E-02  0.23922580092E-01  0.00000000000E+00 0.  1.
     999901    1    3    3    0    0 -0.11450478151E+00  0.32300941440E-03 -0.58513689610E-01  0.88934543412E+00  0.88000000000E+00 0.  1.
        -11    1    4    4    0    0  0.16471145274E-01  0.10544449620E-01  0.14234199370E-01  0.24194164527E-01  0.51100000000E-03 0. -1.
         11    1    4    4    0    0  0.94257118386E-01  0.12474924591E-01  0.47907282667E-01  0.10646782126E+00  0.51100000000E-03 0.  1.
</event>
<event>
 8    1  0.1101883E+005  0.1043930E+01  0.7957747E-01            NaN
         13   -1    0    0    0    0  0.00000000000E+00  0.00000000000E+00  0.74505805969E-08  0.10566000000E+00  0.10566000000E+00 0. -1.
     999900   -1    0    0    0    0 -0.00000000000E+00 -0.00000000000E+00 -0.74505805969E-08  0.93827000000E+00  0.93827000000E+00 0.  1.
     999902    2    1    2    0    0 -0.57923269142E-02  0.10663132911E-01 -0.20495019156E-01  0.10201119551E+01  0.10198338598E+01 0.  0.
     999903    2    3    3    0    0 -0.48297731250E-01  0.10833811432E+00 -0.57068987387E-01  0.13293397599E+00  0.18567573688E-01 0.  0.
         14    1    1    2    0    0  0.57923269142E-02 -0.10663132911E-01  0.20495019156E-01  0.23818044940E-01  0.00000000000E+00 0. -1.
     999901    1    3    3    0    0  0.42505404336E-01 -0.97674981412E-01  0.36573968231E-01  0.88717797907E+00  0.88000000000E+00 0. -1.
        -11    1    4    4    0    0 -0.20298639395E-01  0.35028477772E-01 -0.28089966639E-01  0.49278153000E-01  0.51100000000E-03 0. -1.
         11    1    4    4    0    0 -0.27999091854E-01  0.73309636551E-01 -0.28979020749E-01  0.83655822992E-01  0.51100000000E-03 0.  1.
</event>
<event>
 8    1  0.1101883E+005  0.1043930E+01  0.7957747E-01            NaN
         13   -1    0    0    0    0  0.00000000000E+00  0.00000000000E+00  0.74505805969E-08  0.10566000000E+00  0.10566000000E+00 0.  1.
     999900   -1    0    0    0    0 -0.00000000000E+00 -0.00000000000E+00 -0.74505805969E-08  0.93827000000E+00  0.93827000000E+00 0.  1.
     999902    2    1    2    0    0  0.20383944667E-01  0.63276596408E-02  0.99308076592E-02  0.10203892817E+01  0.10201176995E+01 0.  0.
     999903    2    3    3    0    0  0.61007994308E-01  0.99113681606E-01 -0.58512008561E-01  0.13193895762E+00  0.20946029265E-01 0.  0.
         14    1    1    2    0    0 -0.20383944667E-01 -0.63276596408E-02 -0.99308076592E-02  0.23540718288E-01  0.00000000000E+00 0. -1.
     999901    1    3    3    0    0 -0.40624049641E-01 -0.92786021965E-01  0.68442816220E-01  0.88845032409E+00  0.88000000000E+00 0. -1.
        -11    1    4    4    0    0  0.22542748997E-01  0.40217532053E-01 -0.12123528338E-01  0.47674589428E-01  0.51100000000E-03 0.  1.
         11    1    4    4    0    0  0.38465245311E-01  0.58896149553E-01 -0.46388480223E-01  0.84264368196E-01  0.51100000000E-03 0. -1.
</event>
<event>
 8    1  0.1101883E+005  0.1043930E+01  0.7957747E-01            NaN
         13   -1    0    0    0    0  0.00000000000E+00  0.00000000000E+00  0.74505805969E-08  0.10566000000E+00  0.10566000000E+00 0.  1.
     999900   -1    0    0    0    0 -0.00000000000E+00 -0.00000000000E+00 -0.74505805969E-08  0.93827000000E+00  0.93827000000E+00 0.  1.
     999902    2    1    2    0    0  0.11159263727E-01  0.14124438601E-01  0.15372932844E-01  0.10202581603E+01  0.10199835085E+01 0.  0.
     999903    2    3    3    0    0 -0.96620617781E-01  0.81298612772E-01  0.27405427977E-01  0.13105983959E+00  0.21922952619E-01 0.  0.
         14    1    1    2    0    0 -0.11159263727E-01 -0.14124438601E-01 -0.15372932844E-01  0.23671839746E-01  0.00000000000E+00 0. -1.
     999901    1    3    3    0    0  0.10777988151E+00 -0.67174174172E-01 -0.12032495133E-01  0.88919832066E+00  0.88000000000E+00 0.  1.
        -11    1    4    4    0    0 -0.32135634541E-01  0.30215985418E-01 -0.71432128392E-03  0.44118886637E-01  0.51100000000E-03 0.  1.
         11    1    4    4    0    0 -0.64484983241E-01  0.51082627354E-01  0.28119749261E-01  0.86940952953E-01  0.51100000000E-03 0. -1.
</event>
<event>
 8    1  0.1101883E+005  0.1043930E+01  0.7957747E-01            NaN
         13   -1    0    0    0    0  0.00000000000E+00  0.00000000000E+00  0.74505805969E-08  0.10566000000E+00  0.10566000000E+00 0.  1.
     999900   -1    0    0    0    0 -0.00000000000E+00 -0.00000000000E+00 -0.74505805969E-08  0.93827000000E+00  0.93827000000E+00 0.  1.
     999902    2    1    2    0    0  0.13342802805E-01  0.16688133120E-01 -0.61898730775E-02  0.10216850297E+01  0.10214428331E+01 0.  0.
     999903    2    3    3    0    0  0.20722275724E-01 -0.58848498158E-01 -0.11433446430E+00  0.13182240443E+00  0.20303155819E-01 0.  0.
         14    1    1    2    0    0 -0.13342802805E-01 -0.16688133120E-01  0.61898730775E-02  0.22244970273E-01  0.00000000000E+00 0.  1.
     999901    1    3    3    0    0 -0.73794729189E-02  0.75536631278E-01  0.10814459123E+00  0.88986262529E+00  0.88000000000E+00 0. -1.
        -11    1    4    4    0    0  0.22698229465E-01 -0.41231382306E-01 -0.91629209117E-01  0.10301169638E+00  0.51100000000E-03 0. -1.
         11    1    4    4    0    0 -0.19759537402E-02 -0.17617115852E-01 -0.22705255186E-01  0.28810708048E-01  0.51100000000E-03 0.  1.
</event>
<event>
 8    1  0.1101883E+005  0.1043930E+01  0.7957747E-01            NaN
         13   -1    0    0    0    0  0.00000000000E+00  0.00000000000E+00  0.74505805969E-08  0.10566000000E+00  0.10566000000E+00 0.  1.
     999900   -1    0    0    0    0 -0.00000000000E+00 -0.00000000000E+00 -0.74505805969E-08  0.93827000000E+00  0.93827000000E+00 0. -1.
     999902    2    1    2    0    0  0.18177188510E-01 -0.53812392436E-02 -0.13258465056E-01  0.10207965866E+01  0.10205344269E+01 0.  0.
     999903    2    3    3    0    0  0.31195176695E-01 -0.12618827790E+00 -0.14931109891E-01  0.13244608918E+00  0.20552565924E-01 0.  0.
         14    1    1    2    0    0 -0.18177188510E-01  0.53812392436E-02  0.13258465056E-01  0.23133413357E-01  0.00000000000E+00 0.  1.
     999901    1    3    3    0    0 -0.13017988185E-01  0.12080703866E+00  0.16726448355E-02  0.88835049747E+00  0.88000000000E+00 0. -1.
        -11    1    4    4    0    0  0.19051708554E-01 -0.61565740259E-01 -0.17018699017E-01  0.66657371758E-01  0.51100000000E-03 0. -1.
         11    1    4    4    0    0  0.12143468141E-01 -0.64622537646E-01  0.20875891253E-02  0.65788717419E-01  0.51100000000E-03 0.  1.
</event>
<event>
 8    1  0.1101883E+005  0.1043930E+01  0.7957747E-01            NaN
         13   -1    0    0    0    0  0.00000000000E+00  0.00000000000E+00  0.74505805969E-08  0.10566000000E+00  0.10566000000E+00 0. -1.
     999900   -1    0    0    0    0 -0.00000000000E+00 -0.00000000000E+00 -0.74505805969E-08  0.93827000000E+00  0.93827000000E+00 0.  1.
     999902    2    1    2    0    0 -0.33644446216E-02  0.20747294620E-01 -0.11327840492E-01  0.10200534489E+01  0.10197739695E+01 0.  0.
     999903    2    3    3    0    0  0.73428039340E-01 -0.10249083232E+00  0.49748014712E-02  0.12800496499E+00  0.21551676078E-01 0.  0.
         14    1    1    2    0    0  0.33644446216E-02 -0.20747294620E-01  0.11327840492E-01  0.23876551089E-01  0.00000000000E+00 0. -1.
     999901    1    3    3    0    0 -0.76792483962E-01  0.12323812694E+00 -0.16302641963E-01  0.89204848392E+00  0.88000000000E+00 0. -1.
        -11    1    4    4    0    0  0.50494354062E-01 -0.74477717171E-01  0.13006591117E-01  0.90917779783E-01  0.51100000000E-03 0. -1.
         11    1    4    4    0    0  0.22933685278E-01 -0.28013115152E-01 -0.80317896456E-02  0.37087185211E-01  0.51100000000E-03 0.  1.
</event>
<event>
 8    1  0.1101883E+005  0.1043930E+01  0.7957747E-01            NaN
         13   -1    0    0    0    0  0.00000000000E+00  0.00000000000E+00  0.74505805969E-08  0.10566000000E+00  0.10566000000E+00 0.  1.
     999900   -1    0    0    0    0 -0.00000000000E+00 -0.00000000000E+00 -0.74505805969E-08  0.93827000000E+00  0.93827000000E+00 0. -1.
     999902    2    1    2    0    0 -0.17015043409E-01  0.18912689733E-01 -0.63350589823E-02  0.10177129348E+01  0.10173751929E+01 0.  0.
     999903    2    3    3    0    0  0.32598143540E-01  0.11728559268E+00  0.39542721780E-01  0.12965693031E+00  0.20706122750E-01 0.  0.
         14    1    1    2    0    0  0.17015043409E-01 -0.18912689733E-01  0.63350589823E-02  0.26217065195E-01  0.00000000000E+00 0.  1.
     999901    1    3    3    0    0 -0.49613186949E-01 -0.98372902945E-01 -0.45877780762E-01  0.88805600450E+00  0.88000000000E+00 0. -1.
        -11    1    4    4    0    0  0.66379121942E-02  0.60617823892E-01  0.22899147712E-01  0.65139961150E-01  0.51100000000E-03 0.  1.
         11    1    4    4    0    0  0.25960231346E-01  0.56667768786E-01  0.16643574068E-01  0.64516969159E-01  0.51100000000E-03 0. -1.
</event>
<event>
 8    1  0.1101883E+005  0.1043930E+01  0.7957747E-01            NaN
         13   -1    0    0    0    0  0.00000000000E+00  0.00000000000E+00  0.74505805969E-08  0.10566000000E+00  0.10566000000E+00 0.  1.
     999900   -1    0    0    0    0 -0.00000000000E+00 -0.00000000000E+00 -0.74505805969E-08  0.93827000000E+00  0.93827000000E+00 0.  1.
     999902    2    1    2    0    0  0.18018110535E-01  0.14122097105E-01 -0.45134725981E-02  0.10205963897E+01  0.10203296199E+01 0.  0.
     999903    2    3    3    0    0 -0.90011036777E-01 -0.88681420409E-01  0.43060829939E-02  0.12800653741E+00  0.20018746253E-01 0.  0.
         14    1    1    2    0    0 -0.18018110535E-01 -0.14122097105E-01  0.45134725981E-02  0.23333610282E-01  0.00000000000E+00 0.  1.
     999901    1    3    3    0    0  0.10802914731E+00  0.10280351751E+00 -0.88195555921E-02  0.89258985231E+00  0.88000000000E+00 0. -1.
        -11    1    4    4    0    0 -0.79812563300E-01 -0.68318006826E-01  0.54113067455E-02  0.10519951844E+00  0.51100000000E-03 0. -1.
         11    1    4    4    0    0 -0.10198473477E-01 -0.20363413582E-01 -0.11052237516E-02  0.22807018975E-01  0.51100000000E-03 0.  1.
</event>
<event>
 8    1  0.1101883E+005  0.1043930E+01  0.7957747E-01            NaN
         13   -1    0    0    0    0  0.00000000000E+00  0.00000000000E+00  0.74505805969E-08  0.10566000000E+00  0.10566000000E+00 0.  1.
     999900   -1    0    0    0    0 -0.00000000000E+00 -0.00000000000E+00 -0.74505805969E-08  0.93827000000E+00  0.93827000000E+00 0. -1.
     999902    2    1    2    0    0  0.20732001389E-01 -0.80182236754E-02  0.82099421348E-02  0.10202337779E+01  0.10199585534E+01 0.  0.
     999903    2    3    3    0    0 -0.20409946169E-01 -0.12634599886E+00 -0.17584242598E-01  0.13098720792E+00  0.21646378952E-01 0.  0.
         14    1    1    2    0    0 -0.20732001389E-01  0.80182236754E-02 -0.82099421348E-02  0.23696222111E-01  0.00000000000E+00 0.  1.
     999901    1    3    3    0    0  0.41141947558E-01  0.11832777518E+00  0.25794184733E-01  0.88924656997E+00  0.88000000000E+00 0. -1.
        -11    1    4    4    0    0 -0.13921165443E-01 -0.84372342968E-01 -0.13796105271E-02  0.85525759579E-01  0.51100000000E-03 0.  1.
         11    1    4    4    0    0 -0.64887807260E-02 -0.41973655890E-01 -0.16204632071E-01  0.45461448345E-01  0.51100000000E-03 0. -1.
</event>
<event>
 8    1  0.1101883E+005  0.1043930E+01  0.7957747E-01            NaN
         13   -1    0    0    0    0  0.00000000000E+00  0.00000000000E+00  0.74505805969E-08  0.10566000000E+00  0.10566000000E+00 0.  1.
     999900   -1    0    0    0    0 -0.00000000000E+00 -0.00000000000E+00 -0.74505805969E-08  0.93827000000E+00  0.93827000000E+00 0.  1.
     999902    2    1    2    0    0  0.20284785460E-01 -0.59268927835E-02 -0.10797619372E-01  0.10201983932E+01  0.10199223364E+01 0.  0.
     999903    2    3    3    0    0  0.92852025201E-01  0.61490722731E-01  0.66460864101E-01  0.13127769229E+00  0.20351375126E-01 0.  0.
         14    1    1    2    0    0 -0.20284785460E-01  0.59268927835E-02  0.10797619372E-01  0.23731606842E-01  0.00000000000E+00 0. -1.
     999901    1    3    3    0    0 -0.72567239741E-01 -0.67417615515E-01 -0.77258483473E-01  0.88892070087E+00  0.88000000000E+00 0.  1.
        -11    1    4    4    0    0  0.70350891597E-01  0.36006686121E-01  0.43035654977E-01  0.89989211099E-01  0.51100000000E-03 0.  1.
         11    1    4    4    0    0  0.22501133604E-01  0.25484036611E-01  0.23425209124E-01  0.41288481190E-01  0.51100000000E-03 0. -1.
</event>
<event>
 8    1  0.1101883E+005  0.1043930E+01  0.7957747E-01            NaN
         13   -1    0    0    0    0  0.00000000000E+00  0.00000000000E+00  0.74505805969E-08  0.10566000000E+00  0.10566000000E+00 0. -1.
     999900   -1    0    0    0    0 -0.00000000000E+00 -0.00000000000E+00 -0.74505805969E-08  0.93827000000E+00  0.93827000000E+00 0.  1.
     999902    2    1    2    0    0  0.20673442162E-01 -0.16136852889E-02  0.72188034161E-02  0.10219730805E+01  0.10217371829E+01 0.  0.
     999903    2    3    3    0    0 -0.75842976835E-01 -0.82581837072E-01 -0.63187985395E-01  0.13021729743E+00  0.19796618436E-01 0.  0.
         14    1    1    2    0    0 -0.20673442162E-01  0.16136852889E-02 -0.72188034161E-02  0.21956919497E-01  0.00000000000E+00 0. -1.
     999901    1    3    3    0    0  0.96516418997E-01  0.80968151783E-01  0.70406788812E-01  0.89175578308E+00  0.88000000000E+00 0.  1.
        -11    1    4    4    0    0 -0.38838153364E-01 -0.55404801038E-01 -0.33134645905E-01  0.75340958416E-01  0.51100000000E-03 0.  1.
         11    1    4    4    0    0 -0.37004823471E-01 -0.27177036033E-01 -0.30053339491E-01  0.54876339011E-01  0.51100000000E-03 0. -1.
</event>
<event>
 8    1  0.1101883E+005  0.1043930E+01  0.7957747E-01            NaN
         13   -1    0    0    0    0  0.00000000000E+00  0.00000000000E+00  0.74505805969E-08  0.10566000000E+00  0.10566000000E+00 0. -1.
     999900   -1    0    0    0    0 -0.00000000000E+00 -0.00000000000E+00 -0.74505805969E-08  0.93827000000E+00  0.93827000000E+00 0. -1.
     999902    2    1    2    0    0  0.79726345308E-02 -0.21264225356E-01 -0.11370230504E-01  0.10185329072E+01  0.10182162200E+01 0.  0.
     999903    2    3    3    0    0 -0.26319121459E-01 -0.12435934094E+00  0.27847377187E-01  0.13098428985E+00  0.14948777212E-01 0.  0.
         14    1    1    2    0    0 -0.79726345308E-02  0.21264225356E-01  0.11370230504E-01  0.25397092808E-01  0.00000000000E+00 0. -1.
     999901    1    3    3    0    0  0.34291755990E-01  0.10309511558E+00 -0.39217607691E-01  0.88754861734E+00  0.88000000000E+00 0.  1.
        -11    1    4    4    0    0 -0.84438864135E-02 -0.65862519735E-01  0.19770406183E-01  0.69284203143E-01  0.51100000000E-03 0. -1.
         11    1    4    4    0    0 -0.17875235046E-01 -0.58496821201E-01  0.80769710042E-02  0.61700086711E-01  0.51100000000E-03 0.  1.
</event>
<event>
 8    1  0.1101883E+005  0.1043930E+01  0.7957747E-01            NaN
         13   -1    0    0    0    0  0.00000000000E+00  0.00000000000E+00  0.74505805969E-08  0.10566000000E+00  0.10566000000E+00 0. -1.
     999900   -1    0    0    0    0 -0.00000000000E+00 -0.00000000000E+00 -0.74505805969E-08  0.93827000000E+00  0.93827000000E+00 0.  1.
     999902    2    1    2    0    0  0.35248860845E-02  0.16896512104E-01  0.16542963686E-01  0.10200221228E+01  0.10197419009E+01 0.  0.
     999903    2    3    3    0    0 -0.21879506817E-01 -0.53845331963E-01 -0.11187137150E+00  0.12753120794E+00  0.19260650184E-01 0.  0.
         14    1    1    2    0    0 -0.35248860845E-02 -0.16896512104E-01 -0.16542963686E-01  0.23907877168E-01  0.00000000000E+00 0.  1.
     999901    1    3    3    0    0  0.25404392901E-01  0.70741844067E-01  0.12841433518E+00  0.89249091489E+00  0.88000000000E+00 0. -1.
        -11    1    4    4    0    0 -0.58714570372E-02 -0.38609574755E-01 -0.74269247061E-01  0.83912784786E-01  0.51100000000E-03 0. -1.
         11    1    4    4    0    0 -0.16008049779E-01 -0.15235757208E-01 -0.37602124437E-01  0.43618423156E-01  0.51100000000E-03 0.  1.
</event>
<event>
 8    1  0.1101883E+005  0.1043930E+01  0.7957747E-01            NaN
         13   -1    0    0    0    0  0.00000000000E+00  0.00000000000E+00  0.74505805969E-08  0.10566000000E+00  0.10566000000E+00 0.  1.
     999900   -1    0    0    0    0 -0.00000000000E+00 -0.00000000000E+00 -0.74505805969E-08  0.93827000000E+00  0.93827000000E+00 0. -1.
     999902    2    1    2    0    0 -0.75533846329E-02  0.84758298937E-02 -0.19165478584E-01  0.10216542535E+01  0.10214113789E+01 0.  0.
     999903    2    3    3    0    0 -0.72997777356E-01 -0.10109252776E+00  0.34277678089E-01  0.13084318234E+00  0.19914931166E-01 0.  0.
         14    1    1    2    0    0  0.75533846329E-02 -0.84758298937E-02  0.19165478584E-01  0.22275746478E-01  0.00000000000E+00 0.  1.
     999901    1    3    3    0    0  0.65444392723E-01  0.10956835765E+00 -0.53443156673E-01  0.89081107118E+00  0.88000000000E+00 0. -1.
        -11    1    4    4    0    0 -0.34017358703E-01 -0.48977365974E-01  0.26640528662E-01  0.65314178853E-01  0.51100000000E-03 0.  1.
         11    1    4    4    0    0 -0.38980418653E-01 -0.52115161785E-01  0.76371494272E-02  0.65529003492E-01  0.51100000000E-03 0. -1.
</event>
<event>
 8    1  0.1101883E+005  0.1043930E+01  0.7957747E-01            NaN
         13   -1    0    0    0    0  0.00000000000E+00  0.00000000000E+00  0.74505805969E-08  0.10566000000E+00  0.10566000000E+00 0.  1.
     999900   -1    0    0    0    0 -0.00000000000E+00 -0.00000000000E+00 -0.74505805969E-08  0.93827000000E+00  0.93827000000E+00 0. -1.
     999902    2    1    2    0    0  0.30590992594E-01  0.10109234099E-01  0.35199177080E-02  0.10115201980E+01  0.10110008486E+01 0.  0.
     999903    2    3    3    0    0 -0.29838580248E-02  0.11230648769E+00  0.48390261332E-01  0.12383506413E+00  0.19283545574E-01 0.  0.
         14    1    1    2    0    0 -0.30590992594E-01 -0.10109234099E-01 -0.35199177080E-02  0.32409801953E-01  0.00000000000E+00 0.  1.
     999901    1    3    3    0    0  0.33574850619E-01 -0.10219725359E+00 -0.44870343624E-01  0.88768513391E+00  0.88000000000E+00 0.  1.
        -11    1    4    4    0    0 -0.10767695622E-01  0.48628023409E-01  0.22464303200E-01  0.54640039979E-01  0.51100000000E-03 0.  1.
         11    1    4    4    0    0  0.77838375971E-02  0.63678464285E-01  0.25925958132E-01  0.69195024153E-01  0.51100000000E-03 0. -1.
</event>
<event>
 8    1  0.1101883E+005  0.1043930E+01  0.7957747E-01            NaN
         13   -1    0    0    0    0  0.00000000000E+00  0.00000000000E+00  0.74505805969E-08  0.10566000000E+00  0.10566000000E+00 0.  1.
     999900   -1    0    0    0    0 -0.00000000000E+00 -0.00000000000E+00 -0.74505805969E-08  0.93827000000E+00  0.93827000000E+00 0. -1.
     999902    2    1    2    0    0  0.98800161444E-02 -0.20204656703E-01  0.79312535716E-02  0.10200815691E+01  0.10198027555E+01 0.  0.
     999903    2    3    3    0    0  0.39051106748E-01  0.11408418519E+00  0.40743789223E-01  0.12881218894E+00  0.19807407936E-01 0.  0.
         14    1    1    2    0    0 -0.98800161444E-02  0.20204656703E-01 -0.79312535716E-02  0.23848430865E-01  0.00000000000E+00 0. -1.
     999901    1    3    3    0    0 -0.29171090603E-01 -0.13428884189E+00 -0.32812535652E-01  0.89126938020E+00  0.88000000000E+00 0. -1.
        -11    1    4    4    0    0  0.97808645462E-02  0.58854066642E-01  0.21232408762E-01  0.63328846305E-01  0.51100000000E-03 0. -1.
         11    1    4    4    0    0  0.29270242202E-01  0.55230118551E-01  0.19511380461E-01  0.65483342631E-01  0.51100000000E-03 0.  1.
</event>
<event>
 8    1  0.1101883E+005  0.1043930E+01  0.7957747E-01            NaN
         13   -1    0    0    0    0  0.00000000000E+00  0.00000000000E+00  0.74505805969E-08  0.10566000000E+00  0.10566000000E+00 0.  1.
     999900   -1    0    0    0    0 -0.00000000000E+00 -0.00000000000E+00 -0.74505805969E-08  0.93827000000E+00  0.93827000000E+00 0.  1.
     999902    2    1    2    0    0 -0.15059053154E-01  0.51011690479E-03  0.15438555993E-01  0.10223572322E+01  0.10221296032E+01 0.  0.
     999903    2    3    3    0    0 -0.27091267796E-01 -0.65490631839E-01  0.11236908404E+00  0.13449665736E+00  0.20966166632E-01 0.  0.
         14    1    1    2    0    0  0.15059053154E-01 -0.51011690479E-03 -0.15438555993E-01  0.21572767841E-01  0.00000000000E+00 0.  1.
     999901    1    3    3    0    0  0.12032214642E-01  0.66000748743E-01 -0.96930528043E-01  0.88786057480E+00  0.88000000000E+00 0.  1.
        -11    1    4    4    0    0 -0.68288151071E-02 -0.25569609088E-01  0.25431292115E-01  0.36707619976E-01  0.51100000000E-03 0. -1.
         11    1    4    4    0    0 -0.20262452689E-01 -0.39921022751E-01  0.86937791921E-01  0.97789037380E-01  0.51100000000E-03 0.  1.
</event>
<event>
 8    1  0.1101883E+005  0.1043930E+01  0.7957747E-01            NaN
         13   -1    0    0    0    0  0.00000000000E+00  0.00000000000E+00  0.74505805969E-08  0.10566000000E+00  0.10566000000E+00 0.  1.
     999900   -1    0    0    0    0 -0.00000000000E+00 -0.00000000000E+00 -0.74505805969E-08  0.93827000000E+00  0.93827000000E+00 0.  1.
     999902    2    1    2    0    0 -0.17844976876E-01  0.24451687282E-03  0.16085656253E-01  0.10199039449E+01  0.10196209126E+01 0.  0.
     999903    2    3    3    0    0 -0.56829090908E-01 -0.66818465656E-01 -0.93680726876E-01  0.12969842723E+00  0.18744346101E-01 0.  0.
         14    1    1    2    0    0  0.17844976876E-01 -0.24451687282E-03 -0.16085656253E-01  0.24026055134E-01  0.00000000000E+00 0. -1.
     999901    1    3    3    0    0  0.38984114032E-01  0.67062982529E-01  0.10976638313E+00  0.89020551764E+00  0.88000000000E+00 0. -1.
        -11    1    4    4    0    0 -0.35000503800E-01 -0.50446303229E-01 -0.73406448490E-01  0.95700744912E-01  0.51100000000E-03 0.  1.
         11    1    4    4    0    0 -0.21828587107E-01 -0.16372162427E-01 -0.20274278386E-01  0.33997682314E-01  0.51100000000E-03 0. -1.
</event>
<event>
 8    1  0.1101883E+005  0.1043930E+01  0.7957747E-01            NaN
         13   -1    0    0    0    0  0.00000000000E+00  0.00000000000E+00  0.74505805969E-08  0.10566000000E+00  0.10566000000E+00 0. -1.
     999900   -1    0    0    0    0 -0.00000000000E+00 -0.00000000000E+00 -0.74505805969E-08  0.93827000000E+00  0.93827000000E+00 0.  1.
     999902    2    1    2    0    0  0.13468483815E-02  0.18859601701E-01 -0.13224868962E-01  0.10208562977E+01  0.10205955050E+01 0.  0.
     999903    2    3    3    0    0  0.10828893587E+00  0.68490741445E-01  0.24099441612E-01  0.13220959389E+00  0.21934409824E-01 0.  0.
         14    1    1    2    0    0 -0.13468483815E-02 -0.18859601701E-01  0.13224868962E-01  0.23073702259E-01  0.00000000000E+00 0. -1.
     999901    1    3    3    0    0 -0.10694208749E+00 -0.49631139744E-01 -0.37324310574E-01  0.88864670385E+00  0.88000000000E+00 0. -1.
        -11    1    4    4    0    0  0.39902568962E-01  0.30169840172E-01  0.19463194757E-01  0.53679710664E-01  0.51100000000E-03 0. -1.
         11    1    4    4    0    0  0.68386366908E-01  0.38320901273E-01  0.46362468547E-02  0.78529883224E-01  0.51100000000E-03 0.  1.
</event>
<event>
 7    1  0.1101883E+005  0.1043930E+01  0.7957747E-01            NaN
         13   -1    0    0    0    0  0.00000000000E+00  0.00000000000E+00  0.74505805969E-08  0.10566000000E+00  0.10566000000E+00 0.  1.
     999900   -1    0    0    0    0 -0.00000000000E+00 -0.00000000000E+00 -0.74505805969E-08  0.93827000000E+00  0.93827000000E+00 0. -1.
     999903    2    1    2    0    0  0.62832885135E-01  0.78264665676E-01  0.46369350493E-01  0.11203878812E+00  0.18145082802E-01 0.  0.
         14    1    1    2    0    0  0.21432019610E-02  0.27045543167E-02 -0.45658058648E-01  0.45788276318E-01  0.00000000000E+00 0. -1.
     999901    1    1    2    0    0 -0.64976087096E-01 -0.80969219992E-01 -0.71129184502E-03  0.88610293556E+00  0.88000000000E+00 0.  1.
        -11    1    3    3    0    0  0.53964702144E-01  0.61188562753E-01  0.43854888368E-01  0.92626894820E-01  0.51100000000E-03 0.  1.
         11    1    3    3    0    0  0.88681829917E-02  0.17076102923E-01  0.25144621245E-02  0.19411893297E-01  0.51100000000E-03 0. -1.
</event>
<event>
 8    1  0.1101883E+005  0.1043930E+01  0.7957747E-01            NaN
         13   -1    0    0    0    0  0.00000000000E+00  0.00000000000E+00  0.74505805969E-08  0.10566000000E+00  0.10566000000E+00 0. -1.
     999900   -1    0    0    0    0 -0.00000000000E+00 -0.00000000000E+00 -0.74505805969E-08  0.93827000000E+00  0.93827000000E+00 0.  1.
     999902    2    1    2    0    0  0.21161188786E-01 -0.14785315304E-02 -0.76009300553E-02  0.10213965559E+01  0.10211479659E+01 0.  0.
     999903    2    3    3    0    0  0.66562206540E-01 -0.28551346542E-01 -0.11064264803E+00  0.13380893464E+00  0.20428624452E-01 0.  0.
         14    1    1    2    0    0 -0.21161188786E-01  0.14785315304E-02  0.76009300553E-02  0.22533444123E-01  0.00000000000E+00 0. -1.
     999901    1    3    3    0    0 -0.45401017754E-01  0.27072815012E-01  0.10304171798E+00  0.88758762124E+00  0.88000000000E+00 0. -1.
        -11    1    4    4    0    0  0.27247716097E-01 -0.18077625208E-01 -0.64299403301E-01  0.72138151844E-01  0.51100000000E-03 0. -1.
         11    1    4    4    0    0  0.39314490444E-01 -0.10473721334E-01 -0.46343244734E-01  0.61670782798E-01  0.51100000000E-03 0.  1.
</event>
<event>
 8    1  0.1101883E+005  0.1043930E+01  0.7957747E-01            NaN
         13   -1    0    0    0    0  0.00000000000E+00  0.00000000000E+00  0.74505805969E-08  0.10566000000E+00  0.10566000000E+00 0. -1.
     999900   -1    0    0    0    0 -0.00000000000E+00 -0.00000000000E+00 -0.74505805969E-08  0.93827000000E+00  0.93827000000E+00 0. -1.
     999902    2    1    2    0    0 -0.50966004403E-02  0.23464563632E-01 -0.53238086290E-02  0.10193352034E+01  0.10190384452E+01 0.  0.
     999903    2    3    3    0    0  0.12021395121E+00  0.19896869196E-01  0.36840910708E-01  0.12945131974E+00  0.23518333551E-01 0.  0.
         14    1    1    2    0    0  0.50966004403E-02 -0.23464563632E-01  0.53238086290E-02  0.24594796620E-01  0.00000000000E+00 0. -1.
     999901    1    3    3    0    0 -0.12531055165E+00  0.35676944361E-02 -0.42164719337E-01  0.88988388364E+00  0.88000000000E+00 0.  1.
        -11    1    4    4    0    0  0.64925470541E-01  0.19517624147E-01  0.12068292555E-01  0.68863337005E-01  0.51100000000E-03 0. -1.
         11    1    4    4    0    0  0.55288480666E-01  0.37924504884E-03  0.24772618153E-01  0.60587982739E-01  0.51100000000E-03 0.  1.
</event>
<event>
 8    1  0.1101883E+005  0.1043930E+01  0.7957747E-01            NaN
         13   -1    0    0    0    0  0.00000000000E+00  0.00000000000E+00  0.74505805969E-08  0.10566000000E+00  0.10566000000E+00 0.  1.
     999900   -1    0    0    0    0 -0.00000000000E+00 -0.00000000000E+00 -0.74505805969E-08  0.93827000000E+00  0.93827000000E+00 0. -1.
     999902    2    1    2    0    0 -0.19853395271E-01  0.56191063549E-02  0.10222267714E-01  0.10209033542E+01  0.10206436362E+01 0.  0.
     999903    2    3    3    0    0  0.10381374005E-01 -0.10706414738E+00  0.72082078838E-01  0.13105039264E+00  0.20195909021E-01 0.  0.
         14    1    1    2    0    0  0.19853395271E-01 -0.56191063549E-02 -0.10222267714E-01  0.23026645809E-01  0.00000000000E+00 0. -1.
     999901    1    3    3    0    0 -0.30234769276E-01  0.11268325374E+00 -0.61859811124E-01  0.88985296155E+00  0.88000000000E+00 0. -1.
        -11    1    4    4    0    0 -0.26622055727E-02 -0.23508254969E-01  0.24287617203E-01  0.33909804786E-01  0.51100000000E-03 0. -1.
         11    1    4    4    0    0  0.13043579578E-01 -0.83555892412E-01  0.47794461635E-01  0.97140587856E-01  0.51100000000E-03 0.  1.
</event>
<event>
 8    1  0.1123245E+005  0.1043930E+01  0.7957747E-01            NaN
         13   -1    0    0    0    0  0.00000000000E+00  0.00000000000E+00  0.74505805969E-08  0.10566000000E+00  0.10566000000E+00 0.  1.
     999900   -1    0    0    0    0 -0.00000000000E+00 -0.00000000000E+00 -0.74505805969E-08  0.93827000000E+00  0.93827000000E+00 0. -1.
     999902    2    1    2    0    0 -0.20211793666E-01  0.10977885550E-01  0.65712917466E-02  0.10200090374E+01  0.10197285051E+01 0.  0.
     999903    2    3    3    0    0  0.11068226628E+00 -0.55521519011E-01  0.25263467510E-01  0.12764990393E+00  0.17973648486E-01 0.  0.
         14    1    1    2    0    0  0.20211793666E-01 -0.10977885550E-01 -0.65712917466E-02  0.23920962555E-01  0.00000000000E+00 0. -1.
     999901    1    3    3    0    0 -0.13089405995E+00  0.66499404561E-01 -0.18692175763E-01  0.89235913352E+00  0.88000000000E+00 0.  1.
        -11    1    4    4    0    0  0.50505142538E-01 -0.28850963127E-01  0.20420692057E-01  0.61647492092E-01  0.51100000000E-03 0.  1.
         11    1    4    4    0    0  0.60177123743E-01 -0.26670555885E-01  0.48427754527E-02  0.66002411837E-01  0.51100000000E-03 0. -1.
</event>
<event>
 8    1  0.1101883E+005  0.1043930E+01  0.7957747E-01            NaN
         13   -1    0    0    0    0  0.00000000000E+00  0.00000000000E+00  0.74505805969E-08  0.10566000000E+00  0.10566000000E+00 0. -1.
     999900   -1    0    0    0    0 -0.00000000000E+00 -0.00000000000E+00 -0.74505805969E-08  0.93827000000E+00  0.93827000000E+00 0.  1.
     999902    2    1    2    0    0 -0.72304185144E-02 -0.20247939951E-01  0.99069132262E-02  0.10202571262E+01  0.10199824501E+01 0.  0.
     999903    2    3    3    0    0  0.19900835307E-01  0.11487017568E+00  0.50400803697E-01  0.12861102753E+00  0.20232520420E-01 0.  0.
         14    1    1    2    0    0  0.72304185144E-02  0.20247939951E-01 -0.99069132262E-02  0.23672873797E-01  0.00000000000E+00 0.  1.
     999901    1    3    3    0    0 -0.27131253821E-01 -0.13511811563E+00 -0.40493890471E-01  0.89164609867E+00  0.88000000000E+00 0.  1.
        -11    1    4    4    0    0  0.19498936926E-01  0.55500848667E-01  0.22160772898E-01  0.62864248349E-01  0.51100000000E-03 0.  1.
         11    1    4    4    0    0  0.40189838075E-03  0.59369327016E-01  0.28240030799E-01  0.65746779185E-01  0.51100000000E-03 0. -1.
</event>
<event>
 8    1  0.1101883E+005  0.1043930E+01  0.7957747E-01            NaN
         13   -1    0    0    0    0  0.00000000000E+00  0.00000000000E+00  0.74505805969E-08  0.10566000000E+00  0.10566000000E+00 0. -1.
     999900   -1    0    0    0    0 -0.00000000000E+00 -0.00000000000E+00 -0.74505805969E-08  0.93827000000E+00  0.93827000000E+00 0.  1.
     999902    2    1    2    0    0  0.33108526795E-02 -0.21433201439E-01 -0.76749900850E-02  0.10209245802E+01  0.10206653462E+01 0.  0.
     999903    2    3    3    0    0  0.81823345055E-01 -0.59795357728E-01 -0.82485875057E-01  0.13343794082E+00  0.27041077346E-01 0.  0.
         14    1    1    2    0    0 -0.33108526795E-02  0.21433201439E-01  0.76749900850E-02  0.23005419844E-01  0.00000000000E+00 0. -1.
     999901    1    3    3    0    0 -0.78512492375E-01  0.38362156289E-01  0.74810884972E-01  0.88748663934E+00  0.88000000000E+00 0.  1.
        -11    1    4    4    0    0  0.56541785462E-01 -0.34839858403E-01 -0.68052985844E-01  0.95090794718E-01  0.51100000000E-03 0. -1.
         11    1    4    4    0    0  0.25281559592E-01 -0.24955499325E-01 -0.14432889213E-01  0.38347146100E-01  0.51100000000E-03 0.  1.
</event>
<event>
 8    1  0.1101883E+005  0.1043930E+01  0.7957747E-01            NaN
         13   -1    0    0    0    0  0.00000000000E+00  0.00000000000E+00  0.74505805969E-08  0.10566000000E+00  0.10566000000E+00 0.  1.
     999900   -1    0    0    0    0 -0.00000000000E+00 -0.00000000000E+00 -0.74505805969E-08  0.93827000000E+00  0.93827000000E+00 0.  1.
     999902    2    1    2    0    0  0.71507544851E-02  0.22072605251E-01 -0.36259783737E-02  0.10204463693E+01  0.10201761180E+01 0.  0.
     999903    2    3    3    0    0  0.52266601583E-01  0.14697745616E-01  0.11760363563E+00  0.13095974908E+00  0.19287804440E-01 0.  0.
         14    1    1    2    0    0 -0.71507544851E-02 -0.22072605251E-01  0.36259783737E-02  0.23483630712E-01  0.00000000000E+00 0.  1.
     999901    1    3    3    0    0 -0.45115847098E-01  0.73748596343E-02 -0.12122961400E+00  0.88948662021E+00  0.88000000000E+00 0.  1.
        -11    1    4    4    0    0  0.25634161147E-01 -0.86712289211E-03  0.40845891563E-01  0.48233910254E-01  0.51100000000E-03 0. -1.
         11    1    4    4    0    0  0.26632440436E-01  0.15564868508E-01  0.76757744063E-01  0.82725838828E-01  0.51100000000E-03 0.  1.
</event>
<event>
 8    1  0.1101883E+005  0.1043930E+01  0.7957747E-01            NaN
         13   -1    0    0    0    0  0.00000000000E+00  0.00000000000E+00  0.74505805969E-08  0.10566000000E+00  0.10566000000E+00 0.  1.
     999900   -1    0    0    0    0 -0.00000000000E+00 -0.00000000000E+00 -0.74505805969E-08  0.93827000000E+00  0.93827000000E+00 0. -1.
     999902    2    1    2    0    0 -0.79813309432E-02 -0.18544830034E-01 -0.88708985967E-02  0.10218776712E+01  0.10216396966E+01 0.  0.
     999903    2    3    3    0    0  0.24379050673E-02  0.12622731122E+00 -0.22661927877E-01  0.12988118808E+00  0.20403003794E-01 0.  0.
         14    1    1    2    0    0  0.79813309432E-02  0.18544830034E-01  0.88708985967E-02  0.22052328823E-01  0.00000000000E+00 0.  1.
     999901    1    3    3    0    0 -0.10419236011E-01 -0.14477214125E+00  0.13791029281E-01  0.89199648309E+00  0.88000000000E+00 0. -1.
        -11    1    4    4    0    0  0.40830830148E-02  0.11413919410E+00 -0.14352224679E-01  0.11511157488E+00  0.51100000000E-03 0. -1.
         11    1    4    4    0    0 -0.16451779474E-02  0.12088117121E-01 -0.83097031981E-02  0.14769613206E-01  0.51100000000E-03 0.  1.
</event>
<event>
 8    1  0.1101883E+005  0.1043930E+01  0.7957747E-01            NaN
         13   -1    0    0    0    0  0.00000000000E+00  0.00000000000E+00  0.74505805969E-08  0.10566000000E+00  0.10566000000E+00 0. -1.
     999900   -1    0    0    0    0 -0.00000000000E+00 -0.00000000000E+00 -0.74505805969E-08  0.93827000000E+00  0.93827000000E+00 0. -1.
     999902    2    1    2    0    0  0.17545708823E-01  0.99482457352E-02  0.10911487348E-01  0.10209979254E+01  0.10207403605E+01 0.  0.
     999903    2    3    3    0    0  0.14184776551E-01 -0.80315616355E-01 -0.98708917989E-01  0.12960828332E+00  0.20076117610E-01 0.  0.
         14    1    1    2    0    0 -0.17545708823E-01 -0.99482457352E-02 -0.10911487348E-01  0.22932074643E-01  0.00000000000E+00 0.  1.
     999901    1    3    3    0    0  0.33609322715E-02  0.90263862090E-01  0.10962040534E+00  0.89138964204E+00  0.88000000000E+00 0.  1.
        -11    1    4    4    0    0  0.19879160788E-02 -0.51677109749E-01 -0.50954099921E-01  0.72602044751E-01  0.51100000000E-03 0. -1.
         11    1    4    4    0    0  0.12196860473E-01 -0.28638506606E-01 -0.47754818068E-01  0.57006238569E-01  0.51100000000E-03 0.  1.
</event>
<event>
 8    1  0.1333880E+005  0.1043930E+01  0.7957747E-01            NaN
         13   -1    0    0    0    0  0.00000000000E+00  0.00000000000E+00  0.74505805969E-08  0.10566000000E+00  0.10566000000E+00 0.  1.
     999900   -1    0    0    0    0 -0.00000000000E+00 -0.00000000000E+00 -0.74505805969E-08  0.93827000000E+00  0.93827000000E+00 0.  1.
     999902    2    1    2    0    0 -0.13381378737E-01  0.19471418100E-01  0.18975435610E-02  0.10202277197E+01  0.10199523528E+01 0.  0.
     999903    2    3    3    0    0  0.11182944277E+00  0.59084185058E-02  0.61131466959E-01  0.12928980803E+00  0.20929991097E-01 0.  0.
         14    1    1    2    0    0  0.13381378737E-01 -0.19471418100E-01 -0.18975435610E-02  0.23702280297E-01  0.00000000000E+00 0. -1.
     999901    1    3    3    0    0 -0.12521082151E+00  0.13562999594E-01 -0.59233923398E-01  0.89093791168E+00  0.88000000000E+00 0.  1.
        -11    1    4    4    0    0  0.42377036203E-01 -0.78214156077E-02  0.24582924543E-01  0.49614201994E-01  0.51100000000E-03 0.  1.
         11    1    4    4    0    0  0.69452406568E-01  0.13729834113E-01  0.36548542416E-01  0.79675606032E-01  0.51100000000E-03 0. -1.
</event>
<event>
 8    1  0.1101883E+005  0.1043930E+01  0.7957747E-01            NaN
         13   -1    0    0    0    0  0.00000000000E+00  0.00000000000E+00  0.74505805969E-08  0.10566000000E+00  0.10566000000E+00 0. -1.
     999900   -1    0    0    0    0 -0.00000000000E+00 -0.00000000000E+00 -0.74505805969E-08  0.93827000000E+00  0.93827000000E+00 0.  1.
     999902    2    1    2    0    0 -0.42126383812E-02 -0.33261606436E-01  0.13326117745E-01  0.10078513886E+01  0.10072054186E+01 0.  0.
     999903    2    3    3    0    0 -0.84186997900E-01 -0.23318171240E-01  0.82322917261E-01  0.12147938521E+00  0.18681290104E-01 0.  0.
         14    1    1    2    0    0  0.42126383812E-02  0.33261606436E-01 -0.13326117745E-01  0.36078611378E-01  0.00000000000E+00 0. -1.
     999901    1    3    3    0    0  0.79974359518E-01 -0.99434351963E-02 -0.68996799516E-01  0.88637200341E+00  0.88000000000E+00 0.  1.
        -11    1    4    4    0    0 -0.46564626787E-01 -0.21669767480E-01  0.52427795021E-01  0.73394673527E-01  0.51100000000E-03 0. -1.
         11    1    4    4    0    0 -0.37622371113E-01 -0.16484037598E-02  0.29895122240E-01  0.48084711685E-01  0.51100000000E-03 0.  1.
</event>
<event>
 8    1  0.1101883E+005  0.1043930E+01  0.7957747E-01            NaN
         13   -1    0    0    0    0  0.00000000000E+00  0.00000000000E+00  0.74505805969E-08  0.10566000000E+00  0.10566000000E+00 0. -1.
     999900   -1    0    0    0    0 -0.00000000000E+00 -0.00000000000E+00 -0.74505805969E-08  0.93827000000E+00  0.93827000000E+00 0.  1.
     999902    2    1    2    0    0 -0.58631444597E-02 -0.67609707677E-03 -0.17295668684E-01  0.10256550520E+01  0.10254922291E+01 0.  0.
     999903    2    3    3    0    0 -0.68275343531E-01  0.80630504494E-01  0.80706431121E-01  0.13430189098E+00  0.18991290270E-01 0.  0.
         14    1    1    2    0    0  0.58631444597E-02  0.67609707677E-03  0.17295668684E-01  0.18274948028E-01  0.00000000000E+00 0. -1.
     999901    1    3    3    0    0  0.62412199071E-01 -0.81306601571E-01 -0.98002099805E-01  0.89135316100E+00  0.88000000000E+00 0.  1.
        -11    1    4    4    0    0 -0.41843388157E-01  0.57702992296E-01  0.62774047160E-01  0.94980769476E-01  0.51100000000E-03 0.  1.
         11    1    4    4    0    0 -0.26431955374E-01  0.22927512198E-01  0.17932383961E-01  0.39321121499E-01  0.51100000000E-03 0. -1.
</event>
<event>
 8    1  0.1101883E+005  0.1043930E+01  0.7957747E-01            NaN
         13   -1    0    0    0    0  0.00000000000E+00  0.00000000000E+00  0.74505805969E-08  0.10566000000E+00  0.10566000000E+00 0.  1.
     999900   -1    0    0    0    0 -0.00000000000E+00 -0.00000000000E+00 -0.74505805969E-08  0.93827000000E+00  0.93827000000E+00 0.  1.
     999902    2    1    2    0    0 -0.70202140563E-02  0.18451238363E-01 -0.89505882790E-03  0.10241680990E+01  0.10239774227E+01 0.  0.
     999903    2    3    3    0    0  0.24388422318E-01  0.37593477077E-01 -0.12533548375E+00  0.13465230534E+00  0.20351785797E-01 0.  0.
         14    1    1    2    0    0  0.70202140563E-02 -0.18451238363E-01  0.89505882790E-03  0.19761901043E-01  0.00000000000E+00 0.  1.
     999901    1    3    3    0    0 -0.31408636375E-01 -0.19142238715E-01  0.12444042492E+00  0.88951579362E+00  0.88000000000E+00 0. -1.
        -11    1    4    4    0    0  0.67073346511E-02  0.42366259516E-02 -0.75513916154E-02  0.10964578145E-01  0.51100000000E-03 0. -1.
         11    1    4    4    0    0  0.17681087667E-01  0.33356851126E-01 -0.11778409213E+00  0.12368772719E+00  0.51100000000E-03 0.  1.
</event>
<event>
 8    1  0.1101883E+005  0.1043930E+01  0.7957747E-01            NaN
         13   -1    0    0    0    0  0.00000000000E+00  0.00000000000E+00  0.74505805969E-08  0.10566000000E+00  0.10566000000E+00 0. -1.
     999900   -1    0    0    0    0 -0.00000000000E+00 -0.00000000000E+00 -0.74505805969E-08  0.93827000000E+00  0.93827000000E+00 0. -1.
     999902    2    1    2    0    0  0.27122404023E-02  0.18600394291E-01  0.14198553201E-01  0.10203730514E+01  0.10201010902E+01 0.  0.
     999903    2    3    3    0    0 -0.76134865258E-01  0.87870588056E-02 -0.10240806213E+00  0.12913219146E+00  0.17719525179E-01 0.  0.
         14    1    1    2    0    0 -0.27122404023E-02 -0.18600394291E-01 -0.14198553201E-01  0.23556948630E-01  0.00000000000E+00 0.  1.
     999901    1    3    3    0    0  0.78847105660E-01  0.98133354854E-02  0.11660661533E+00  0.89124085990E+00  0.88000000000E+00 0.  1.
        -11    1    4    4    0    0 -0.61596962394E-01  0.12894838933E-01 -0.75706239773E-01  0.98448760829E-01  0.51100000000E-03 0.  1.
         11    1    4    4    0    0 -0.14537902864E-01 -0.41077801274E-02 -0.26701822360E-01  0.30683430636E-01  0.51100000000E-03 0. -1.
</event>
<event>
 8    1  0.1101883E+005  0.1043930E+01  0.7957747E-01            NaN
         13   -1    0    0    0    0  0.00000000000E+00  0.00000000000E+00  0.74505805969E-08  0.10566000000E+00  0.10566000000E+00 0.  1.
     999900   -1    0    0    0    0 -0.00000000000E+00 -0.00000000000E+00 -0.74505805969E-08  0.93827000000E+00  0.93827000000E+00 0.  1.
     999902    2    1    2    0    0 -0.44590300416E-02  0.60816851960E-03 -0.23713186939E-01  0.10197935534E+01  0.10195078830E+01 0.  0.
     999903    2    3    3    0    0 -0.96304622256E-01 -0.78088389589E-01  0.32498549638E-01  0.12974382427E+00  0.20122806725E-01 0.  0.
         14    1    1    2    0    0  0.44590300416E-02 -0.60816851960E-03  0.23713186939E-01  0.24136446562E-01  0.00000000000E+00 0.  1.
     999901    1    3    3    0    0  0.91845592215E-01  0.78696558108E-01 -0.56211736577E-01  0.89004972917E+00  0.88000000000E+00 0. -1.
        -11    1    4    4    0    0 -0.54340402477E-01 -0.53507254443E-01  0.26511161114E-01  0.80740376541E-01  0.51100000000E-03 0.  1.
         11    1    4    4    0    0 -0.41964219779E-01 -0.24581135146E-01  0.59873885238E-02  0.49003447726E-01  0.51100000000E-03 0. -1.
</event>
<event>
 8    1  0.1101883E+005  0.1043930E+01  0.7957747E-01            NaN
         13   -1    0    0    0    0  0.00000000000E+00  0.00000000000E+00  0.74505805969E-08  0.10566000000E+00  0.10566000000E+00 0. -1.
     999900   -1    0    0    0    0 -0.00000000000E+00 -0.00000000000E+00 -0.74505805969E-08  0.93827000000E+00  0.93827000000E+00 0. -1.
     999902    2    1    2    0    0  0.15169089876E-01  0.17614507444E-01  0.68941752978E-02  0.10196833134E+01  0.10193949959E+01 0.  0.
     999903    2    3    3    0    0 -0.82351461654E-01  0.89334692381E-01  0.43827100153E-01  0.13062871220E+00  0.19508850398E-01 0.  0.
         14    1    1    2    0    0 -0.15169089876E-01 -0.17614507444E-01 -0.68941752978E-02  0.24246686644E-01  0.00000000000E+00 0. -1.
     999901    1    3    3    0    0  0.97520551530E-01 -0.71720184937E-01 -0.36932924855E-01  0.88905460116E+00  0.88000000000E+00 0.  1.
        -11    1    4    4    0    0 -0.57090201319E-01  0.62977297639E-01  0.39911938842E-01  0.93907694508E-01  0.51100000000E-03 0.  1.
         11    1    4    4    0    0 -0.25261260335E-01  0.26357394742E-01  0.39151613109E-02  0.36721017693E-01  0.51100000000E-03 0. -1.
</event>
<event>
 8    1  0.1101883E+005  0.1043930E+01  0.7957747E-01            NaN
         13   -1    0    0    0    0  0.00000000000E+00  0.00000000000E+00  0.74505805969E-08  0.10566000000E+00  0.10566000000E+00 0. -1.
     999900   -1    0    0    0    0 -0.00000000000E+00 -0.00000000000E+00 -0.74505805969E-08  0.93827000000E+00  0.93827000000E+00 0. -1.
     999902    2    1    2    0    0  0.18115240040E-01 -0.27196878670E-02 -0.14597447604E-01  0.10205068469E+01  0.10202380019E+01 0.  0.
     999903    2    3    3    0    0 -0.13129498113E-01  0.11605843960E+00  0.52076814205E-01  0.12947938695E+00  0.20272442946E-01 0.  0.
         14    1    1    2    0    0 -0.18115240040E-01  0.27196878670E-02  0.14597447604E-01  0.23423153083E-01  0.00000000000E+00 0.  1.
     999901    1    3    3    0    0  0.31244738153E-01 -0.11877812747E+00 -0.66674261809E-01  0.89102745997E+00  0.88000000000E+00 0. -1.
        -11    1    4    4    0    0 -0.19668755638E-02  0.76306559590E-01  0.25990253806E-01  0.80636927334E-01  0.51100000000E-03 0. -1.
         11    1    4    4    0    0 -0.11162622549E-01  0.39751880015E-01  0.26086560399E-01  0.48842459616E-01  0.51100000000E-03 0.  1.
</event>
<event>
 8    1  0.1101883E+005  0.1043930E+01  0.7957747E-01            NaN
         13   -1    0    0    0    0  0.00000000000E+00  0.00000000000E+00  0.74505805969E-08  0.10566000000E+00  0.10566000000E+00 0. -1.
     999900   -1    0    0    0    0 -0.00000000000E+00 -0.00000000000E+00 -0.74505805969E-08  0.93827000000E+00  0.93827000000E+00 0.  1.
     999902    2    1    2    0    0  0.70625469494E-02  0.15014792992E-01 -0.17428047200E-01  0.10198663260E+01  0.10195823961E+01 0.  0.
     999903    2    3    3    0    0 -0.36169459729E-01  0.37968837016E-01 -0.12011950111E+00  0.13254370751E+00  0.19730115377E-01 0.  0.
         14    1    1    2    0    0 -0.70625469494E-02 -0.15014792992E-01  0.17428047200E-01  0.24063674018E-01  0.00000000000E+00 0. -1.
     999901    1    3    3    0    0  0.43232006679E-01 -0.22954044024E-01  0.10269145391E+00  0.88732261847E+00  0.88000000000E+00 0. -1.
        -11    1    4    4    0    0 -0.16381768894E-01  0.30860550998E-01 -0.77758026697E-01  0.85248506127E-01  0.51100000000E-03 0. -1.
         11    1    4    4    0    0 -0.19787690835E-01  0.71082860184E-02 -0.42361474415E-01  0.47295201387E-01  0.51100000000E-03 0.  1.
</event>
<event>
 7    1  0.1101883E+005  0.1043930E+01  0.7957747E-01            NaN
         13   -1    0    0    0    0  0.00000000000E+00  0.00000000000E+00  0.74505805969E-08  0.10566000000E+00  0.10566000000E+00 0. -1.
     999900   -1    0    0    0    0 -0.00000000000E+00 -0.00000000000E+00 -0.74505805969E-08  0.93827000000E+00  0.93827000000E+00 0. -1.
     999903    2    1    2    0    0 -0.11197675210E-02  0.76294933615E-02  0.11133048711E+00  0.11336226628E+00  0.19926439892E-01 0.  0.
         14    1    1    2    0    0 -0.17818433546E-01 -0.11760785899E-01 -0.42629966955E-01  0.47677318943E-01  0.00000000000E+00 0.  1.
     999901    1    1    2    0    0  0.18938201067E-01  0.41312925371E-02 -0.68700520158E-01  0.88289041478E+00  0.88000000000E+00 0. -1.
        -11    1    3    3    0    0  0.33575129787E-02  0.12727519068E-01  0.51986068327E-01  0.53629050487E-01  0.51100000000E-03 0. -1.
         11    1    3    3    0    0 -0.44772804996E-02 -0.50980257065E-02  0.59344418786E-01  0.59733215792E-01  0.51100000000E-03 0.  1.
</event>
<event>
 8    1  0.1101883E+005  0.1043930E+01  0.7957747E-01            NaN
         13   -1    0    0    0    0  0.00000000000E+00  0.00000000000E+00  0.74505805969E-08  0.10566000000E+00  0.10566000000E+00 0. -1.
     999900   -1    0    0    0    0 -0.00000000000E+00 -0.00000000000E+00 -0.74505805969E-08  0.93827000000E+00  0.93827000000E+00 0.  1.
     999902    2    1    2    0    0  0.96693696147E-02 -0.10768817196E-01  0.18028347298E-01  0.10208110589E+01  0.10205492308E+01 0.  0.
     999903    2    3    3    0    0 -0.97613389854E-01 -0.74452297487E-01  0.43226119499E-01  0.13165409643E+00  0.19818809733E-01 0.  0.
         14    1    1    2    0    0 -0.96693696147E-02  0.10768817196E-01 -0.18028347298E-01  0.23118941127E-01  0.00000000000E+00 0.  1.
     999901    1    3    3    0    0  0.10728275947E+00  0.63683480291E-01 -0.25197772201E-01  0.88915696245E+00  0.88000000000E+00 0.  1.
        -11    1    4    4    0    0 -0.24818415831E-01 -0.29419290918E-01  0.17400809530E-01  0.42243315871E-01  0.51100000000E-03 0. -1.
         11    1    4    4    0    0 -0.72794974023E-01 -0.45033006568E-01  0.25825309969E-01  0.89410780556E-01  0.51100000000E-03 0.  1.
</event>
<event>
 8    1  0.1101883E+005  0.1043930E+01  0.7957747E-01            NaN
         13   -1    0    0    0    0  0.00000000000E+00  0.00000000000E+00  0.74505805969E-08  0.10566000000E+00  0.10566000000E+00 0. -1.
     999900   -1    0    0    0    0 -0.00000000000E+00 -0.00000000000E+00 -0.74505805969E-08  0.93827000000E+00  0.93827000000E+00 0. -1.
     999902    2    1    2    0    0  0.86870484542E-02  0.17038783780E-02 -0.21613965408E-01  0.10205733840E+01  0.10203060818E+01 0.  0.
     999903    2    3    3    0    0  0.27795214990E-01 -0.11927489209E+00 -0.44129063675E-01  0.13180574583E+00  0.20647191403E-01 0.  0.
         14    1    1    2    0    0 -0.86870484542E-02 -0.17038783780E-02  0.21613965408E-01  0.23356616044E-01  0.00000000000E+00 0. -1.
     999901    1    3    3    0    0 -0.19108166535E-01  0.12097877047E+00  0.22515098267E-01  0.88876763813E+00  0.88000000000E+00 0.  1.
        -11    1    4    4    0    0 -0.16958638533E-02 -0.29479763379E-01 -0.77683552631E-02  0.30537532114E-01  0.51100000000E-03 0.  1.
         11    1    4    4    0    0  0.29491078843E-01 -0.89795128711E-01 -0.36360708412E-01  0.10126821371E+00  0.51100000000E-03 0. -1.
</event>
<event>
 8    1  0.1101883E+005  0.1043930E+01  0.7957747E-01            NaN
         13   -1    0    0    0    0  0.00000000000E+00  0.00000000000E+00  0.74505805969E-08  0.10566000000E+00  0.10566000000E+00 0.  1.
     999900   -1    0    0    0    0 -0.00000000000E+00 -0.00000000000E+00 -0.74505805969E-08  0.93827000000E+00  0.93827000000E+00 0.  1.
     999902    2    1    2    0    0 -0.21361449087E-01 -0.75126204021E-02  0.38705027268E-02  0.10209575869E+01  0.10206991048E+01 0.  0.
     999903    2    3    3    0    0  0.10893273268E+00 -0.50875027590E-01 -0.41765213832E-01  0.12913950523E+00  0.21864812889E-01 0.  0.
         14    1    1    2    0    0  0.21361449087E-01  0.75126204021E-02 -0.38705027268E-02  0.22972413103E-01  0.00000000000E+00 0.  1.
     999901    1    3    3    0    0 -0.13029418177E+00  0.43362407188E-01  0.45635716559E-01  0.89181808167E+00  0.88000000000E+00 0. -1.
        -11    1    4    4    0    0  0.74569872107E-01 -0.26100026314E-01 -0.34253000234E-01  0.86112753676E-01  0.51100000000E-03 0.  1.
         11    1    4    4    0    0  0.34362860576E-01 -0.24775001276E-01 -0.75122135988E-02  0.43026751555E-01  0.51100000000E-03 0. -1.
</event>
<event>
 8    1  0.1101883E+005  0.1043930E+01  0.7957747E-01            NaN
         13   -1    0    0    0    0  0.00000000000E+00  0.00000000000E+00  0.74505805969E-08  0.10566000000E+00  0.10566000000E+00 0.  1.
     999900   -1    0    0    0    0 -0.00000000000E+00 -0.00000000000E+00 -0.74505805969E-08  0.93827000000E+00  0.93827000000E+00 0.  1.
     999902    2    1    2    0    0  0.29660213461E-02  0.56369676929E-02 -0.24479719707E-01  0.10186351514E+01  0.10183210409E+01 0.  0.
     999903    2    3    3    0    0  0.37844441365E-01  0.12165141317E+00  0.11722688416E-01  0.12959832986E+00  0.20664888350E-01 0.  0.
         14    1    1    2    0    0 -0.29660213461E-02 -0.56369676929E-02  0.24479719707E-01  0.25294848573E-01  0.00000000000E+00 0.  1.
     999901    1    3    3    0    0 -0.34878420018E-01 -0.11601444548E+00 -0.36202408123E-01  0.88903682156E+00  0.88000000000E+00 0. -1.
        -11    1    4    4    0    0  0.38678067791E-01  0.10673279803E+00  0.14313998394E-01  0.11442479965E+00  0.51100000000E-03 0. -1.
         11    1    4    4    0    0 -0.83362642690E-03  0.14918615145E-01 -0.25913099777E-02  0.15173530218E-01  0.51100000000E-03 0.  1.
</event>
<event>
 8    1  0.1101883E+005  0.1043930E+01  0.7957747E-01            NaN
         13   -1    0    0    0    0  0.00000000000E+00  0.00000000000E+00  0.74505805969E-08  0.10566000000E+00  0.10566000000E+00 0.  1.
     999900   -1    0    0    0    0 -0.00000000000E+00 -0.00000000000E+00 -0.74505805969E-08  0.93827000000E+00  0.93827000000E+00 0. -1.
     999902    2    1    2    0    0  0.24647049355E-01  0.42119473029E-02  0.54766295877E-02  0.10183329101E+01  0.10180111516E+01 0.  0.
     999903    2    3    3    0    0  0.10422758553E+00  0.76261641170E-01 -0.13951086532E-01  0.13159638984E+00  0.21065362658E-01 0.  0.
         14    1    1    2    0    0 -0.24647049355E-01 -0.42119473029E-02 -0.54766295877E-02  0.25597089945E-01  0.00000000000E+00 0. -1.
     999901    1    3    3    0    0 -0.79580536179E-01 -0.72049693867E-01  0.19427716119E-01  0.88673652021E+00  0.88000000000E+00 0.  1.
        -11    1    4    4    0    0  0.78483482804E-01  0.63002147857E-01 -0.18345647196E-01  0.10230225608E+00  0.51100000000E-03 0. -1.
         11    1    4    4    0    0  0.25744102730E-01  0.13259493314E-01  0.43945606640E-02  0.29294133759E-01  0.51100000000E-03 0.  1.
</event>
<event>
 8    1  0.1101883E+005  0.1043930E+01  0.7957747E-01            NaN
         13   -1    0    0    0    0  0.00000000000E+00  0.00000000000E+00  0.74505805969E-08  0.10566000000E+00  0.10566000000E+00 0. -1.
     999900   -1    0    0    0    0 -0.00000000000E+00 -0.00000000000E+00 -0.74505805969E-08  0.93827000000E+00  0.93827000000E+00 0. -1.
     999902    2    1    2    0    0 -0.49022806604E-02 -0.57424827444E-02 -0.22998520830E-01  0.10197237937E+01  0.10194364497E+01 0.  0.
     999903    2    3    3    0    0  0.51209422940E-01  0.10889941983E+00 -0.46459348386E-01  0.13020611565E+00  0.17710812027E-01 0.  0.
         14    1    1    2    0    0  0.49022806604E-02  0.57424827444E-02  0.22998520830E-01  0.24206206313E-01  0.00000000000E+00 0. -1.
     999901    1    3    3    0    0 -0.56111703600E-01 -0.11464190258E+00  0.23460827556E-01  0.88951767804E+00  0.88000000000E+00 0.  1.
        -11    1    4    4    0    0  0.15490360448E-01  0.48185122565E-01 -0.25699753724E-01  0.56767030624E-01  0.51100000000E-03 0.  1.
         11    1    4    4    0    0  0.35719062492E-01  0.60714297269E-01 -0.20759594662E-01  0.73439085027E-01  0.51100000000E-03 0. -1.
</event>
<event>
 8    1  0.1101883E+005  0.1043930E+01  0.7957747E-01            NaN
         13   -1    0    0    0    0  0.00000000000E+00  0.00000000000E+00  0.74505805969E-08  0.10566000000E+00  0.10566000000E+00 0.  1.
     999900   -1    0    0    0    0 -0.00000000000E+00 -0.00000000000E+00 -0.74505805969E-08  0.93827000000E+00  0.93827000000E+00 0.  1.
     999902    2    1    2    0    0 -0.15517162057E-01 -0.17226488932E-01 -0.82251944578E-02  0.10193294296E+01  0.10190325304E+01 0.  0.
     999903    2    3    3    0    0 -0.68280590632E-01 -0.55578817267E-01 -0.96848546664E-01  0.13247601499E+00  0.20469723266E-01 0.  0.
         14    1    1    2    0    0  0.15517162057E-01  0.17226488932E-01  0.82251944578E-02  0.24600570382E-01  0.00000000000E+00 0.  1.
     999901    1    3    3    0    0  0.52763428575E-01  0.38352328335E-01  0.88623352206E-01  0.88685341463E+00  0.88000000000E+00 0. -1.
        -11    1    4    4    0    0 -0.63521915719E-01 -0.43311818421E-01 -0.78375671401E-01  0.10979050223E+00  0.51100000000E-03 0.  1.
         11    1    4    4    0    0 -0.47586749126E-02 -0.12266998846E-01 -0.18472875263E-01  0.22685512758E-01  0.51100000000E-03 0. -1.
</event>
<event>
 8    1  0.1101883E+005  0.1043930E+01  0.7957747E-01            NaN
         13   -1    0    0    0    0  0.00000000000E+00  0.00000000000E+00  0.74505805969E-08  0.10566000000E+00  0.10566000000E+00 0. -1.
     999900   -1    0    0    0    0 -0.00000000000E+00 -0.00000000000E+00 -0.74505805969E-08  0.93827000000E+00  0.93827000000E+00 0. -1.
     999902    2    1    2    0    0  0.66402588233E-02  0.22963905622E-01  0.23477741940E-02  0.10199102989E+01  0.10196274181E+01 0.  0.
     999903    2    3    3    0    0  0.10664850232E+00  0.42628194775E-01 -0.61326582831E-01  0.13174209590E+00  0.20098856502E-01 0.  0.
         14    1    1    2    0    0 -0.66402588233E-02 -0.22963905622E-01 -0.23477741940E-02  0.24019701129E-01  0.00000000000E+00 0. -1.
     999901    1    3    3    0    0 -0.10000824349E+00 -0.19664289153E-01  0.63674357025E-01  0.88816820298E+00  0.88000000000E+00 0.  1.
        -11    1    4    4    0    0  0.82129385259E-01  0.32371655094E-01 -0.37042142475E-01  0.95736834168E-01  0.51100000000E-03 0. -1.
         11    1    4    4    0    0  0.24519117059E-01  0.10256539681E-01 -0.24284440356E-01  0.36005261727E-01  0.51100000000E-03 0.  1.
</event>
<event>
 8    1  0.1101883E+005  0.1043930E+01  0.7957747E-01            NaN
         13   -1    0    0    0    0  0.00000000000E+00  0.00000000000E+00  0.74505805969E-08  0.10566000000E+00  0.10566000000E+00 0. -1.
     999900   -1    0    0    0    0 -0.00000000000E+00 -0.00000000000E+00 -0.74505805969E-08  0.93827000000E+00  0.93827000000E+00 0. -1.
     999902    2    1    2    0    0 -0.91440451750E-02 -0.72762605431E-02  0.20803595410E-01  0.10200690044E+01  0.10197898934E+01 0.  0.
     999903    2    3    3    0    0  0.12088447832E+00 -0.42202213743E-01  0.31571351158E-02  0.12965413665E+00  0.20153007347E-01 0.  0.
         14    1    1    2    0    0  0.91440451750E-02  0.72762605431E-02 -0.20803595410E-01  0.23860995613E-01  0.00000000000E+00 0.  1.
     999901    1    3    3    0    0 -0.13002852349E+00  0.34925953200E-01  0.17646460295E-01  0.89041486774E+00  0.88000000000E+00 0. -1.
        -11    1    4    4    0    0  0.66865036125E-01 -0.30505335689E-01  0.91172146172E-02  0.74060065385E-01  0.51100000000E-03 0.  1.
         11    1    4    4    0    0  0.54019442192E-01 -0.11696878054E-01 -0.59600795015E-02  0.55594071264E-01  0.51100000000E-03 0. -1.
</event>
<event>
 8    1  0.1101883E+005  0.1043930E+01  0.7957747E-01            NaN
         13   -1    0    0    0    0  0.00000000000E+00  0.00000000000E+00  0.74505805969E-08  0.10566000000E+00  0.10566000000E+00 0. -1.
     999900   -1    0    0    0    0 -0.00000000000E+00 -0.00000000000E+00 -0.74505805969E-08  0.93827000000E+00  0.93827000000E+00 0.  1.
     999902    2    1    2    0    0 -0.19844658633E-01  0.11730154434E-01  0.17658672170E-03  0.10208770570E+01  0.10206167387E+01 0.  0.
     999903    2    3    3    0    0 -0.78610750228E-01 -0.91733282199E-01 -0.47658992746E-01  0.13158161737E+00  0.21158859258E-01 0.  0.
         14    1    1    2    0    0  0.19844658633E-01 -0.11730154434E-01 -0.17658672170E-03  0.23052943026E-01  0.00000000000E+00 0.  1.
     999901    1    3    3    0    0  0.58766091595E-01  0.10346343663E+00  0.47835579468E-01  0.88929543961E+00  0.88000000000E+00 0. -1.
        -11    1    4    4    0    0 -0.98173805627E-02 -0.12640907375E-01  0.93409957245E-03  0.16040796844E-01  0.51100000000E-03 0.  1.
         11    1    4    4    0    0 -0.68793369665E-01 -0.79092374824E-01 -0.48593092318E-01  0.11554082052E+00  0.51100000000E-03 0. -1.
</event>
<event>
 8    1  0.1101883E+005  0.1043930E+01  0.7957747E-01            NaN
         13   -1    0    0    0    0  0.00000000000E+00  0.00000000000E+00  0.74505805969E-08  0.10566000000E+00  0.10566000000E+00 0. -1.
     999900   -1    0    0    0    0 -0.00000000000E+00 -0.00000000000E+00 -0.74505805969E-08  0.93827000000E+00  0.93827000000E+00 0. -1.
     999902    2    1    2    0    0  0.93782238797E-02 -0.50838330436E-02 -0.21748819547E-01  0.10197058882E+01  0.10194181138E+01 0.  0.
     999903    2    3    3    0    0  0.42048304603E-01 -0.76660995299E-01  0.92358233014E-01  0.12885739165E+00  0.20717530200E-01 0.  0.
         14    1    1    2    0    0 -0.93782238797E-02  0.50838330436E-02  0.21748819547E-01  0.24224111815E-01  0.00000000000E+00 0. -1.
     999901    1    3    3    0    0 -0.32670080723E-01  0.71577162255E-01 -0.11410705256E+00  0.89084849653E+00  0.88000000000E+00 0. -1.
        -11    1    4    4    0    0  0.95645853545E-02 -0.38385612895E-01  0.43573840564E-01  0.58854713260E-01  0.51100000000E-03 0.  1.
         11    1    4    4    0    0  0.32483719248E-01 -0.38275382404E-01  0.48784392450E-01  0.70002678392E-01  0.51100000000E-03 0. -1.
</event>
<event>
 8    1  0.1101883E+005  0.1043930E+01  0.7957747E-01            NaN
         13   -1    0    0    0    0  0.00000000000E+00  0.00000000000E+00  0.74505805969E-08  0.10566000000E+00  0.10566000000E+00 0. -1.
     999900   -1    0    0    0    0 -0.00000000000E+00 -0.00000000000E+00 -0.74505805969E-08  0.93827000000E+00  0.93827000000E+00 0.  1.
     999902    2    1    2    0    0  0.14651756651E-01 -0.42158842015E-02  0.18644422089E-01  0.10198455210E+01  0.10195610941E+01 0.  0.
     999903    2    3    3    0    0  0.80413919204E-01 -0.10647865603E-01 -0.99002853871E-01  0.12956078345E+00  0.20116065488E-01 0.  0.
         14    1    1    2    0    0 -0.14651756651E-01  0.42158842015E-02 -0.18644422089E-01  0.24084478977E-01  0.00000000000E+00 0.  1.
     999901    1    3    3    0    0 -0.65762162554E-01  0.64319814017E-02  0.11764727596E+00  0.89028473757E+00  0.88000000000E+00 0. -1.
        -11    1    4    4    0    0  0.35728742907E-01 -0.13621933978E-01 -0.38285109912E-01  0.54112021926E-01  0.51100000000E-03 0. -1.
         11    1    4    4    0    0  0.44685176298E-01  0.29740683751E-02 -0.60717743959E-01  0.75448761527E-01  0.51100000000E-03 0.  1.
</event>
<event>
 8    1  0.1101883E+005  0.1043930E+01  0.7957747E-01            NaN
         13   -1    0    0    0    0  0.00000000000E+00  0.00000000000E+00  0.74505805969E-08  0.10566000000E+00  0.10566000000E+00 0. -1.
     999900   -1    0    0    0    0 -0.00000000000E+00 -0.00000000000E+00 -0.74505805969E-08  0.93827000000E+00  0.93827000000E+00 0. -1.
     999902    2    1    2    0    0  0.57358179752E-02  0.24058601701E-02  0.22482790011E-01  0.10206026852E+01  0.10203360610E+01 0.  0.
     999903    2    3    3    0    0  0.11642987086E+00 -0.53606650333E-01  0.24001133631E-01  0.13189976514E+00  0.19796611874E-01 0.  0.
         14    1    1    2    0    0 -0.57358179752E-02 -0.24058601701E-02 -0.22482790011E-01  0.23327314841E-01  0.00000000000E+00 0.  1.
     999901    1    3    3    0    0 -0.11069405288E+00  0.56012510503E-01 -0.15183436198E-02  0.88870292002E+00  0.88000000000E+00 0.  1.
        -11    1    4    4    0    0  0.68246687113E-01 -0.41987997740E-01  0.15015666975E-01  0.81525049106E-01  0.51100000000E-03 0.  1.
         11    1    4    4    0    0  0.48183183744E-01 -0.11618652593E-01  0.89854666562E-02  0.50374716037E-01  0.51100000000E-03 0. -1.
</event>
<event>
 8    1  0.1101883E+005  0.1043930E+01  0.7957747E-01            NaN
         13   -1    0    0    0    0  0.00000000000E+00  0.00000000000E+00  0.74505805969E-08  0.10566000000E+00  0.10566000000E+00 0.  1.
     999900   -1    0    0    0    0 -0.00000000000E+00 -0.00000000000E+00 -0.74505805969E-08  0.93827000000E+00  0.93827000000E+00 0. -1.
     999902    2    1    2    0    0  0.18849140578E-01  0.14906317848E-01 -0.39636435756E-02  0.10195743255E+01  0.10192833788E+01 0.  0.
     999903    2    3    3    0    0 -0.12115540265E+00 -0.31788916008E-01 -0.78880748027E-02  0.12727554245E+00  0.21158336616E-01 0.  0.
         14    1    1    2    0    0 -0.18849140578E-01 -0.14906317848E-01  0.39636435756E-02  0.24355674548E-01  0.00000000000E+00 0.  1.
     999901    1    3    3    0    0  0.14000454323E+00  0.46695233856E-01  0.39244312271E-02  0.89229878300E+00  0.88000000000E+00 0. -1.
        -11    1    4    4    0    0 -0.60483773198E-01 -0.13290657126E-01 -0.14185136635E-01  0.63532728648E-01  0.51100000000E-03 0.  1.
         11    1    4    4    0    0 -0.60671629455E-01 -0.18498258882E-01  0.62970618328E-02  0.63742813799E-01  0.51100000000E-03 0. -1.
</event>
<event>
 8    1  0.1101883E+005  0.1043930E+01  0.7957747E-01            NaN
         13   -1    0    0    0    0  0.00000000000E+00  0.00000000000E+00  0.74505805969E-08  0.10566000000E+00  0.10566000000E+00 0. -1.
     999900   -1    0    0    0    0 -0.00000000000E+00 -0.00000000000E+00 -0.74505805969E-08  0.93827000000E+00  0.93827000000E+00 0.  1.
     999902    2    1    2    0    0 -0.18932998064E-01 -0.92705249704E-02  0.11901661753E-01  0.10197215180E+01  0.10194341193E+01 0.  0.
     999903    2    3    3    0    0 -0.84180271196E-01 -0.96119844593E-01 -0.27386658290E-01  0.13217231763E+00  0.19853209084E-01 0.  0.
         14    1    1    2    0    0  0.18932998064E-01  0.92705249704E-02 -0.11901661753E-01  0.24208482013E-01  0.00000000000E+00 0.  1.
     999901    1    3    3    0    0  0.65247273133E-01  0.86849319623E-01  0.39288320042E-01  0.88754920036E+00  0.88000000000E+00 0. -1.
        -11    1    4    4    0    0 -0.54371486828E-01 -0.71194805596E-01 -0.12027812652E-01  0.90387434536E-01  0.51100000000E-03 0.  1.
         11    1    4    4    0    0 -0.29808784368E-01 -0.24925038997E-01 -0.15358845637E-01  0.41784883089E-01  0.51100000000E-03 0. -1.
</event>
<event>
 8    1  0.1101883E+005  0.1043930E+01  0.7957747E-01            NaN
         13   -1    0    0    0    0  0.00000000000E+00  0.00000000000E+00  0.74505805969E-08  0.10566000000E+00  0.10566000000E+00 0. -1.
     999900   -1    0    0    0    0 -0.00000000000E+00 -0.00000000000E+00 -0.74505805969E-08  0.93827000000E+00  0.93827000000E+00 0.  1.
     999902    2    1    2    0    0 -0.21057064448E-01  0.73896301815E-02  0.32727647413E-02  0.10213752314E+01  0.10211261654E+01 0.  0.
     999903    2    3    3    0    0 -0.89092996863E-01 -0.92052668395E-01  0.29267675722E-01  0.13278455272E+00  0.19075763427E-01 0.  0.
         14    1    1    2    0    0  0.21057064448E-01 -0.73896301815E-02 -0.32727647413E-02  0.22554768597E-01  0.00000000000E+00 0.  1.
     999901    1    3    3    0    0  0.68035932415E-01  0.99442298577E-01 -0.25994910981E-01  0.88859067868E+00  0.88000000000E+00 0.  1.
        -11    1    4    4    0    0 -0.53037725469E-01 -0.56186908118E-01  0.80783373972E-02  0.77688413698E-01  0.51100000000E-03 0. -1.
         11    1    4    4    0    0 -0.36055271394E-01 -0.35865760277E-01  0.21189338325E-01  0.55096139022E-01  0.51100000000E-03 0.  1.
</event>
<event>
 8    1  0.1101883E+005  0.1043930E+01  0.7957747E-01            NaN
         13   -1    0    0    0    0  0.00000000000E+00  0.00000000000E+00  0.74505805969E-08  0.10566000000E+00  0.10566000000E+00 0.  1.
     999900   -1    0    0    0    0 -0.00000000000E+00 -0.00000000000E+00 -0.74505805969E-08  0.93827000000E+00  0.93827000000E+00 0.  1.
     999902    2    1    2    0    0 -0.13401082448E-01 -0.86518032019E-02  0.17320658866E-01  0.10203832819E+01  0.10201115596E+01 0.  0.
     999903    2    3    3    0    0  0.54949301389E-02 -0.58284388806E-01 -0.11337729468E+00  0.12914683297E+00  0.19930611691E-01 0.  0.
         14    1    1    2    0    0  0.13401082448E-01  0.86518032019E-02 -0.17320658866E-01  0.23546718094E-01  0.00000000000E+00 0. -1.
     999901    1    3    3    0    0 -0.18896012587E-01  0.49632585605E-01  0.13069795355E+00  0.89123644893E+00  0.88000000000E+00 0. -1.
        -11    1    4    4    0    0 -0.96105134041E-03 -0.31929355257E-01 -0.41897492180E-01  0.52688407822E-01  0.51100000000E-03 0.  1.
         11    1    4    4    0    0  0.64559814793E-02 -0.26355033549E-01 -0.71479802500E-01  0.76458425151E-01  0.51100000000E-03 0. -1.
</event>
<event>
 8    1  0.1101883E+005  0.1043930E+01  0.7957747E-01            NaN
         13   -1    0    0    0    0  0.00000000000E+00  0.00000000000E+00  0.74505805969E-08  0.10566000000E+00  0.10566000000E+00 0. -1.
     999900   -1    0    0    0    0 -0.00000000000E+00 -0.00000000000E+00 -0.74505805969E-08  0.93827000000E+00  0.93827000000E+00 0. -1.
     999902    2    1    2    0    0  0.29577205788E-02  0.22270585101E-01 -0.99029004972E-02  0.10193781261E+01  0.10190824155E+01 0.  0.
     999903    2    3    3    0    0 -0.48503413680E-01 -0.11393470754E+00 -0.15495361180E-01  0.12739639668E+00  0.25613218192E-01 0.  0.
         14    1    1    2    0    0 -0.29577205788E-02 -0.22270585101E-01  0.99029004972E-02  0.24551873860E-01  0.00000000000E+00 0. -1.
     999901    1    3    3    0    0  0.51461134259E-01  0.13620529264E+00  0.55924606826E-02  0.89198172947E+00  0.88000000000E+00 0.  1.
        -11    1    4    4    0    0 -0.34459356569E-01 -0.54300819410E-01 -0.47973834069E-03  0.64315764115E-01  0.51100000000E-03 0. -1.
         11    1    4    4    0    0 -0.14044057111E-01 -0.59633888133E-01 -0.15015622839E-01  0.63080632560E-01  0.51100000000E-03 0.  1.
</event>
<event>
 8    1  0.1101883E+005  0.1043930E+01  0.7957747E-01            NaN
         13   -1    0    0    0    0  0.00000000000E+00  0.00000000000E+00  0.74505805969E-08  0.10566000000E+00  0.10566000000E+00 0.  1.
     999900   -1    0    0    0    0 -0.00000000000E+00 -0.00000000000E+00 -0.74505805969E-08  0.93827000000E+00  0.93827000000E+00 0.  1.
     999902    2    1    2    0    0 -0.20192362132E-01 -0.11079337819E-01 -0.62625588980E-02  0.10200615510E+01  0.10197822635E+01 0.  0.
     999903    2    3    3    0    0 -0.16542628124E-01  0.79111536138E-02 -0.12810496872E+00  0.13145616490E+00  0.23099683646E-01 0.  0.
         14    1    1    2    0    0  0.20192362132E-01  0.11079337819E-01  0.62625588980E-02  0.23868449026E-01  0.00000000000E+00 0. -1.
     999901    1    3    3    0    0 -0.36497340078E-02 -0.18990491433E-01  0.12184240982E+00  0.88860538607E+00  0.88000000000E+00 0. -1.
        -11    1    4    4    0    0  0.13103114259E-02  0.10991522886E-01 -0.57803978107E-01  0.58856533175E-01  0.51100000000E-03 0. -1.
         11    1    4    4    0    0 -0.17852939550E-01 -0.30803692726E-02 -0.70300990609E-01  0.72599631728E-01  0.51100000000E-03 0.  1.
</event>
<event>
 8    1  0.1101883E+005  0.1043930E+01  0.7957747E-01            NaN
         13   -1    0    0    0    0  0.00000000000E+00  0.00000000000E+00  0.74505805969E-08  0.10566000000E+00  0.10566000000E+00 0.  1.
     999900   -1    0    0    0    0 -0.00000000000E+00 -0.00000000000E+00 -0.74505805969E-08  0.93827000000E+00  0.93827000000E+00 0.  1.
     999902    2    1    2    0    0 -0.16057079495E-01  0.18540716596E-01 -0.46745044218E-02  0.10189612402E+01  0.10186552754E+01 0.  0.
     999903    2    3    3    0    0  0.49849179785E-01  0.72859983806E-01 -0.93804669849E-01  0.13034523530E+00  0.19926021018E-01 0.  0.
         14    1    1    2    0    0  0.16057079495E-01 -0.18540716596E-01  0.46745044218E-02  0.24968759789E-01  0.00000000000E+00 0.  1.
     999901    1    3    3    0    0 -0.65906259280E-01 -0.54319267210E-01  0.89130165427E-01  0.88861600492E+00  0.88000000000E+00 0. -1.
        -11    1    4    4    0    0  0.18496210249E-01  0.36708854940E-01 -0.55393591800E-01  0.68980873857E-01  0.51100000000E-03 0.  1.
         11    1    4    4    0    0  0.31352969536E-01  0.36151128866E-01 -0.38411078049E-01  0.61364361439E-01  0.51100000000E-03 0. -1.
</event>
<event>
 8    1  0.1101883E+005  0.1043930E+01  0.7957747E-01            NaN
         13   -1    0    0    0    0  0.00000000000E+00  0.00000000000E+00  0.74505805969E-08  0.10566000000E+00  0.10566000000E+00 0.  1.
     999900   -1    0    0    0    0 -0.00000000000E+00 -0.00000000000E+00 -0.74505805969E-08  0.93827000000E+00  0.93827000000E+00 0.  1.
     999902    2    1    2    0    0  0.42223598673E-02  0.36585772913E-02  0.23139528345E-01  0.10201255617E+01  0.10198477878E+01 0.  0.
     999903    2    3    3    0    0  0.62503239752E-01  0.43490333829E-01 -0.10187693396E+00  0.12849091363E+00  0.18246673586E-01 0.  0.
         14    1    1    2    0    0 -0.42223598673E-02 -0.36585772913E-02 -0.23139528345E-01  0.23804438298E-01  0.00000000000E+00 0. -1.
     999901    1    3    3    0    0 -0.58280879884E-01 -0.39831756538E-01  0.12501646231E+00  0.89163464807E+00  0.88000000000E+00 0. -1.
        -11    1    4    4    0    0  0.28982995652E-01  0.12855328548E-01 -0.53085186006E-01  0.61835035404E-01  0.51100000000E-03 0.  1.
         11    1    4    4    0    0  0.33520244100E-01  0.30635005281E-01 -0.48791747955E-01  0.66655878230E-01  0.51100000000E-03 0. -1.
</event>
<event>
 8    1  0.1101883E+005  0.1043930E+01  0.7957747E-01            NaN
         13   -1    0    0    0    0  0.00000000000E+00  0.00000000000E+00  0.74505805969E-08  0.10566000000E+00  0.10566000000E+00 0.  1.
     999900   -1    0    0    0    0 -0.00000000000E+00 -0.00000000000E+00 -0.74505805969E-08  0.93827000000E+00  0.93827000000E+00 0.  1.
     999902    2    1    2    0    0  0.89906961538E-02  0.16368324930E-01  0.14245483210E-01  0.10204419505E+01  0.10201715963E+01 0.  0.
     999903    2    3    3    0    0 -0.28575351176E-01  0.39868994502E-01  0.12175112739E+00  0.13279283461E+00  0.20112495717E-01 0.  0.
         14    1    1    2    0    0 -0.89906961538E-02 -0.16368324930E-01 -0.14245483210E-01  0.23488049520E-01  0.00000000000E+00 0.  1.
     999901    1    3    3    0    0  0.37566047330E-01 -0.23500669572E-01 -0.10750564418E+00  0.88764911587E+00  0.88000000000E+00 0.  1.
        -11    1    4    4    0    0 -0.90760307213E-02  0.27715589901E-01  0.56003321192E-01  0.63143973289E-01  0.51100000000E-03 0. -1.
         11    1    4    4    0    0 -0.19499320455E-01  0.12153404601E-01  0.65747806200E-01  0.69648861317E-01  0.51100000000E-03 0.  1.
</event>
<event>
 8    1  0.1101883E+005  0.1043930E+01  0.7957747E-01            NaN
         13   -1    0    0    0    0  0.00000000000E+00  0.00000000000E+00  0.74505805969E-08  0.10566000000E+00  0.10566000000E+00 0. -1.
     999900   -1    0    0    0    0 -0.00000000000E+00 -0.00000000000E+00 -0.74505805969E-08  0.93827000000E+00  0.93827000000E+00 0. -1.
     999902    2    1    2    0    0 -0.38808474885E-03 -0.22449952955E-01  0.36177731261E-02  0.10211871048E+01  0.10209338195E+01 0.  0.
     999903    2    3    3    0    0  0.36356430631E-01  0.10019387515E+00 -0.69516738835E-01  0.12892014658E+00  0.20669410958E-01 0.  0.
         14    1    1    2    0    0  0.38808474885E-03  0.22449952955E-01 -0.36177731261E-02  0.22742895151E-01  0.00000000000E+00 0.  1.
     999901    1    3    3    0    0 -0.36744515380E-01 -0.12264382811E+00  0.73134511961E-01  0.89226695827E+00  0.88000000000E+00 0.  1.
        -11    1    4    4    0    0  0.15773910431E-01  0.36258770942E-01 -0.14580589113E-01  0.42146997762E-01  0.51100000000E-03 0. -1.
         11    1    4    4    0    0  0.20582520200E-01  0.63935104209E-01 -0.54936149722E-01  0.86773148815E-01  0.51100000000E-03 0.  1.
</event>
<event>
 8    1  0.1101883E+005  0.1043930E+01  0.7957747E-01            NaN
         13   -1    0    0    0    0  0.00000000000E+00  0.00000000000E+00  0.74505805969E-08  0.10566000000E+00  0.10566000000E+00 0.  1.
     999900   -1    0    0    0    0 -0.00000000000E+00 -0.00000000000E+00 -0.74505805969E-08  0.93827000000E+00  0.93827000000E+00 0. -1.
     999902    2    1    2    0    0 -0.91963336974E-02 -0.69757521728E-02  0.20999362031E-01  0.10199673858E+01  0.10196858640E+01 0.  0.
     999903    2    3    3    0    0 -0.78305998914E-01  0.98465120047E-01 -0.24757618240E-01  0.12980581365E+00  0.20233641878E-01 0.  0.
         14    1    1    2    0    0  0.91963336974E-02  0.69757521728E-02 -0.20999362031E-01  0.23962614164E-01  0.00000000000E+00 0. -1.
     999901    1    3    3    0    0  0.69109665216E-01 -0.10544087222E+00  0.45756980271E-01  0.89016157219E+00  0.88000000000E+00 0. -1.
        -11    1    4    4    0    0 -0.22197033463E-01  0.41021397733E-01 -0.14534142130E-01  0.48856583743E-01  0.51100000000E-03 0. -1.
         11    1    4    4    0    0 -0.56108965450E-01  0.57443722314E-01 -0.10223476110E-01  0.80949229903E-01  0.51100000000E-03 0.  1.
</event>
<event>
 8    1  0.1101883E+005  0.1043930E+01  0.7957747E-01            NaN
         13   -1    0    0    0    0  0.00000000000E+00  0.00000000000E+00  0.74505805969E-08  0.10566000000E+00  0.10566000000E+00 0. -1.
     999900   -1    0    0    0    0 -0.00000000000E+00 -0.00000000000E+00 -0.74505805969E-08  0.93827000000E+00  0.93827000000E+00 0. -1.
     999902    2    1    2    0    0  0.16497801354E-01  0.15310838914E-01 -0.69572743133E-02  0.10203715004E+01  0.10200995029E+01 0.  0.
     999903    2    3    3    0    0 -0.15174857791E-01 -0.51919082944E-01 -0.11688005992E+00  0.13042428931E+00  0.20583472788E-01 0.  0.
         14    1    1    2    0    0 -0.16497801354E-01 -0.15310838914E-01  0.69572743133E-02  0.23558499605E-01  0.00000000000E+00 0. -1.
     999901    1    3    3    0    0  0.31672659145E-01  0.67229921857E-01  0.10992278560E+00  0.88994721109E+00  0.88000000000E+00 0.  1.
        -11    1    4    4    0    0 -0.10408990421E-02 -0.18238735221E-01 -0.21097541295E-01  0.27912404106E-01  0.51100000000E-03 0. -1.
         11    1    4    4    0    0 -0.14133958749E-01 -0.33680347723E-01 -0.95782518623E-01  0.10251188520E+00  0.51100000000E-03 0.  1.
</event>
<event>
 8    1  0.1101883E+005  0.1043930E+01  0.7957747E-01            NaN
         13   -1    0    0    0    0  0.00000000000E+00  0.00000000000E+00  0.74505805969E-08  0.10566000000E+00  0.10566000000E+00 0.  1.
     999900   -1    0    0    0    0 -0.00000000000E+00 -0.00000000000E+00 -0.74505805969E-08  0.93827000000E+00  0.93827000000E+00 0. -1.
     999902    2    1    2    0    0  0.28599618087E-02  0.23525947989E-01  0.35161003100E-02  0.10199714405E+01  0.10196900151E+01 0.  0.
     999903    2    3    3    0    0  0.58074810853E-01 -0.11205389043E+00  0.46316785279E-02  0.12787737786E+00  0.20060241955E-01 0.  0.
         14    1    1    2    0    0 -0.28599618087E-02 -0.23525947989E-01 -0.35161003100E-02  0.23958559466E-01  0.00000000000E+00 0. -1.
     999901    1    3    3    0    0 -0.55214849044E-01  0.13557983842E+00 -0.11155782179E-02  0.89209406267E+00  0.88000000000E+00 0.  1.
        -11    1    4    4    0    0  0.32213788629E-01 -0.41043252973E-01  0.34770105549E-02  0.52293666116E-01  0.51100000000E-03 0.  1.
         11    1    4    4    0    0  0.25861022224E-01 -0.71010637454E-01  0.11546679730E-02  0.75583711746E-01  0.51100000000E-03 0. -1.
</event>
<event>
 8    1  0.1101883E+005  0.1043930E+01  0.7957747E-01            NaN
         13   -1    0    0    0    0  0.00000000000E+00  0.00000000000E+00  0.74505805969E-08  0.10566000000E+00  0.10566000000E+00 0. -1.
     999900   -1    0    0    0    0 -0.00000000000E+00 -0.00000000000E+00 -0.74505805969E-08  0.93827000000E+00  0.93827000000E+00 0.  1.
     999902    2    1    2    0    0 -0.20040298633E-01  0.72540120767E-02 -0.95825231608E-02  0.10205620944E+01  0.10202945308E+01 0.  0.
     999903    2    3    3    0    0 -0.90291294625E-01 -0.85714496228E-01 -0.39991171290E-01  0.13235995986E+00  0.20502986238E-01 0.  0.
         14    1    1    2    0    0  0.20040298633E-01 -0.72540120767E-02  0.95825231608E-02  0.23367905568E-01  0.00000000000E+00 0. -1.
     999901    1    3    3    0    0  0.70250995993E-01  0.92968508305E-01  0.30408648129E-01  0.88820213457E+00  0.88000000000E+00 0.  1.
        -11    1    4    4    0    0 -0.15928543645E-01 -0.25041856306E-01 -0.44463899588E-02  0.30014072942E-01  0.51100000000E-03 0. -1.
         11    1    4    4    0    0 -0.74362750981E-01 -0.60672639922E-01 -0.35544781331E-01  0.10234588692E+00  0.51100000000E-03 0.  1.
</event>
<event>
 8    1  0.1101883E+005  0.1043930E+01  0.7957747E-01            NaN
         13   -1    0    0    0    0  0.00000000000E+00  0.00000000000E+00  0.74505805969E-08  0.10566000000E+00  0.10566000000E+00 0. -1.
     999900   -1    0    0    0    0 -0.00000000000E+00 -0.00000000000E+00 -0.74505805969E-08  0.93827000000E+00  0.93827000000E+00 0. -1.
     999902    2    1    2    0    0  0.17335960674E-01 -0.19034217683E-01  0.58503268590E-02  0.10175280436E+01  0.10171854582E+01 0.  0.
     999903    2    3    3    0    0 -0.11133630885E-01  0.66948043817E-01 -0.10423464325E+00  0.12605613293E+00  0.20476559504E-01 0.  0.
         14    1    1    2    0    0 -0.17335960674E-01  0.19034217683E-01 -0.58503268590E-02  0.26401956361E-01  0.00000000000E+00 0.  1.
     999901    1    3    3    0    0  0.28469591559E-01 -0.85982261501E-01  0.11008497011E+00  0.89147191071E+00  0.88000000000E+00 0.  1.
        -11    1    4    4    0    0 -0.54216860207E-02  0.52764315472E-02 -0.50146625245E-02  0.90908399180E-02  0.51100000000E-03 0.  1.
         11    1    4    4    0    0 -0.57119448642E-02  0.61671612270E-01 -0.99219980724E-01  0.11696529301E+00  0.51100000000E-03 0. -1.
</event>
<event>
 8    1  0.1101883E+005  0.1043930E+01  0.7957747E-01            NaN
         13   -1    0    0    0    0  0.00000000000E+00  0.00000000000E+00  0.74505805969E-08  0.10566000000E+00  0.10566000000E+00 0.  1.
     999900   -1    0    0    0    0 -0.00000000000E+00 -0.00000000000E+00 -0.74505805969E-08  0.93827000000E+00  0.93827000000E+00 0. -1.
     999902    2    1    2    0    0 -0.15607018969E-01  0.36206154987E-02  0.32155172256E-01  0.10080044798E+01  0.10073640793E+01 0.  0.
     999903    2    3    3    0    0 -0.48190987216E-01 -0.64367609616E-01  0.90803402855E-01  0.12283572263E+00  0.19436984540E-01 0.  0.
         14    1    1    2    0    0  0.15607018969E-01 -0.36206154987E-02 -0.32155172256E-01  0.35925520184E-01  0.00000000000E+00 0. -1.
     999901    1    3    3    0    0  0.32583968248E-01  0.67988225115E-01 -0.58648230599E-01  0.88516875718E+00  0.88000000000E+00 0. -1.
        -11    1    4    4    0    0 -0.19143833760E-01 -0.19922637541E-01  0.44511842361E-01  0.52392395336E-01  0.51100000000E-03 0. -1.
         11    1    4    4    0    0 -0.29047153456E-01 -0.44444972075E-01  0.46291560494E-01  0.70443327297E-01  0.51100000000E-03 0.  1.
</event>
<event>
 8    1  0.1101883E+005  0.1043930E+01  0.7957747E-01            NaN
         13   -1    0    0    0    0  0.00000000000E+00  0.00000000000E+00  0.74505805969E-08  0.10566000000E+00  0.10566000000E+00 0.  1.
     999900   -1    0    0    0    0 -0.00000000000E+00 -0.00000000000E+00 -0.74505805969E-08  0.93827000000E+00  0.93827000000E+00 0. -1.
     999902    2    1    2    0    0 -0.16266138689E-01 -0.12796681244E-01  0.11354733673E-01  0.10203233845E+01  0.10200502618E+01 0.  0.
     999903    2    3    3    0    0 -0.27300206990E-01  0.95208344298E-01 -0.80216909610E-01  0.12893558894E+00  0.19485979154E-01 0.  0.
         14    1    1    2    0    0  0.16266138689E-01  0.12796681244E-01 -0.11354733673E-01  0.23606615503E-01  0.00000000000E+00 0. -1.
     999901    1    3    3    0    0  0.11034068301E-01 -0.10800502554E+00  0.91571643283E-01  0.89138779555E+00  0.88000000000E+00 0. -1.
        -11    1    4    4    0    0 -0.18617195121E-01  0.77239674470E-01 -0.72413791222E-01  0.10750156067E+00  0.51100000000E-03 0.  1.
         11    1    4    4    0    0 -0.86830118692E-02  0.17968669828E-01 -0.78031183876E-02  0.21434028275E-01  0.51100000000E-03 0. -1.
</event>
<event>
 8    1  0.1101883E+005  0.1043930E+01  0.7957747E-01            NaN
         13   -1    0    0    0    0  0.00000000000E+00  0.00000000000E+00  0.74505805969E-08  0.10566000000E+00  0.10566000000E+00 0. -1.
     999900   -1    0    0    0    0 -0.00000000000E+00 -0.00000000000E+00 -0.74505805969E-08  0.93827000000E+00  0.93827000000E+00 0.  1.
     999902    2    1    2    0    0 -0.49073025440E-02 -0.21195650473E-01  0.95471136988E-02  0.10201711154E+01  0.10198944162E+01 0.  0.
     999903    2    3    3    0    0  0.35822937626E-01  0.29694012422E-01 -0.11825580837E+00  0.12855331772E+00  0.19403660751E-01 0.  0.
         14    1    1    2    0    0  0.49073025440E-02  0.21195650473E-01 -0.95471136988E-02  0.23758884596E-01  0.00000000000E+00 0.  1.
     999901    1    3    3    0    0 -0.40730240170E-01 -0.50889662896E-01  0.12780292207E+00  0.89161779768E+00  0.88000000000E+00 0. -1.
        -11    1    4    4    0    0  0.22285059689E-01  0.14395468453E-01 -0.88970575345E-01  0.92843296988E-01  0.51100000000E-03 0.  1.
         11    1    4    4    0    0  0.13537877937E-01  0.15298543969E-01 -0.29285233024E-01  0.35710020735E-01  0.51100000000E-03 0. -1.
</event>
<event>
 8    1  0.1101883E+005  0.1043930E+01  0.7957747E-01            NaN
         13   -1    0    0    0    0  0.00000000000E+00  0.00000000000E+00  0.74505805969E-08  0.10566000000E+00  0.10566000000E+00 0. -1.
     999900   -1    0    0    0    0 -0.00000000000E+00 -0.00000000000E+00 -0.74505805969E-08  0.93827000000E+00  0.93827000000E+00 0.  1.
     999902    2    1    2    0    0 -0.19558359644E-01 -0.13109422184E-01 -0.17277585821E-02  0.10203212827E+01  0.10200481108E+01 0.  0.
     999903    2    3    3    0    0 -0.53442163564E-01 -0.55933659397E-01  0.10513323309E+00  0.13217641897E+00  0.20807929548E-01 0.  0.
         14    1    1    2    0    0  0.19558359644E-01  0.13109422184E-01  0.17277585821E-02  0.23608717281E-01  0.00000000000E+00 0. -1.
     999901    1    3    3    0    0  0.33883803921E-01  0.42824237213E-01 -0.10686099167E+00  0.88814486375E+00  0.88000000000E+00 0.  1.
        -11    1    4    4    0    0 -0.18031326426E-01 -0.69406568178E-02  0.30832937068E-01  0.36390006581E-01  0.51100000000E-03 0.  1.
         11    1    4    4    0    0 -0.35410837139E-01 -0.48993002579E-01  0.74300296022E-01  0.95786412390E-01  0.51100000000E-03 0. -1.
</event>
<event>
 8    1  0.1101883E+005  0.1043930E+01  0.7957747E-01            NaN
         13   -1    0    0    0    0  0.00000000000E+00  0.00000000000E+00  0.74505805969E-08  0.10566000000E+00  0.10566000000E+00 0.  1.
     999900   -1    0    0    0    0 -0.00000000000E+00 -0.00000000000E+00 -0.74505805969E-08  0.93827000000E+00  0.93827000000E+00 0. -1.
     999902    2    1    2    0    0  0.16201909538E-01  0.67747363032E-02  0.13368262146E-01  0.10218594459E+01  0.10216210735E+01 0.  0.
     999903    2    3    3    0    0 -0.66345150797E-01 -0.70659062585E-01  0.86754070435E-01  0.13158112582E+00  0.19822759020E-01 0.  0.
         14    1    1    2    0    0 -0.16201909538E-01 -0.67747363032E-02 -0.13368262146E-01  0.22070554082E-01  0.00000000000E+00 0. -1.
     999901    1    3    3    0    0  0.82547060335E-01  0.77433798888E-01 -0.73385808289E-01  0.89027832010E+00  0.88000000000E+00 0. -1.
        -11    1    4    4    0    0 -0.51750939930E-01 -0.54339504716E-01  0.77283854453E-01  0.10772184939E+00  0.51100000000E-03 0.  1.
         11    1    4    4    0    0 -0.14594210867E-01 -0.16319557869E-01  0.94702159820E-02  0.23859276427E-01  0.51100000000E-03 0. -1.
</event>
<event>
 8    1  0.1101883E+005  0.1043930E+01  0.7957747E-01            NaN
         13   -1    0    0    0    0  0.00000000000E+00  0.00000000000E+00  0.74505805969E-08  0.10566000000E+00  0.10566000000E+00 0. -1.
     999900   -1    0    0    0    0 -0.00000000000E+00 -0.00000000000E+00 -0.74505805969E-08  0.93827000000E+00  0.93827000000E+00 0.  1.
     999902    2    1    2    0    0  0.35611266151E-02  0.60712510191E-02  0.22666756093E-01  0.10201955621E+01  0.10199194387E+01 0.  0.
     999903    2    3    3    0    0 -0.73914039493E-01  0.25077294352E-01  0.10537627197E+00  0.13272472027E+00  0.20482596252E-01 0.  0.
         14    1    1    2    0    0 -0.35611266151E-02 -0.60712510191E-02 -0.22666756093E-01  0.23734437922E-01  0.00000000000E+00 0.  1.
     999901    1    3    3    0    0  0.77475166108E-01 -0.19006043333E-01 -0.82709515878E-01  0.88747084181E+00  0.88000000000E+00 0. -1.
        -11    1    4    4    0    0 -0.69034390310E-02  0.20274108111E-03  0.23164793722E-02  0.73024497316E-02  0.51100000000E-03 0.  1.
         11    1    4    4    0    0 -0.67010600462E-01  0.24874553271E-01  0.10305979260E+00  0.12542227054E+00  0.51100000000E-03 0. -1.
</event>
<event>
 8    1  0.1101883E+005  0.1043930E+01  0.7957747E-01            NaN
         13   -1    0    0    0    0  0.00000000000E+00  0.00000000000E+00  0.74505805969E-08  0.10566000000E+00  0.10566000000E+00 0. -1.
     999900   -1    0    0    0    0 -0.00000000000E+00 -0.00000000000E+00 -0.74505805969E-08  0.93827000000E+00  0.93827000000E+00 0.  1.
     999902    2    1    2    0    0 -0.36626692107E-02 -0.97200332733E-02 -0.20763297161E-01  0.10207134391E+01  0.10204493696E+01 0.  0.
     999903    2    3    3    0    0 -0.38890499385E-01  0.92195280075E-01 -0.83745340802E-01  0.13189710881E+00  0.19264594342E-01 0.  0.
         14    1    1    2    0    0  0.36626692107E-02  0.97200332733E-02  0.20763297161E-01  0.23216560934E-01  0.00000000000E+00 0. -1.
     999901    1    3    3    0    0  0.35227830174E-01 -0.10191531335E+00  0.62982043641E-01  0.88881633026E+00  0.88000000000E+00 0. -1.
        -11    1    4    4    0    0 -0.15444782058E-01  0.50048531321E-01 -0.33111975714E-01  0.61968224412E-01  0.51100000000E-03 0. -1.
         11    1    4    4    0    0 -0.23445717327E-01  0.42146748755E-01 -0.50633365089E-01  0.69928884395E-01  0.51100000000E-03 0.  1.
</event>
<event>
 8    1  0.1101883E+005  0.1043930E+01  0.7957747E-01            NaN
         13   -1    0    0    0    0  0.00000000000E+00  0.00000000000E+00  0.74505805969E-08  0.10566000000E+00  0.10566000000E+00 0.  1.
     999900   -1    0    0    0    0 -0.00000000000E+00 -0.00000000000E+00 -0.74505805969E-08  0.93827000000E+00  0.93827000000E+00 0.  1.
     999902    2    1    2    0    0 -0.16447403082E-01 -0.14563606220E-01  0.11873478360E-02  0.10219294207E+01  0.10216925738E+01 0.  0.
     999903    2    3    3    0    0  0.72005303133E-01 -0.10676619873E+00 -0.22655756426E-01  0.13238251755E+00  0.20689678193E-01 0.  0.
         14    1    1    2    0    0  0.16447403082E-01  0.14563606220E-01 -0.11873478360E-02  0.22000579291E-01  0.00000000000E+00 0.  1.
     999901    1    3    3    0    0 -0.88452706215E-01  0.92202592506E-01  0.23843104262E-01  0.88954690316E+00  0.88000000000E+00 0.  1.
        -11    1    4    4    0    0  0.45661073485E-01 -0.80116529345E-01 -0.22431700153E-01  0.94905396047E-01  0.51100000000E-03 0.  1.
         11    1    4    4    0    0  0.26344229648E-01 -0.26649669381E-01 -0.22405627272E-03  0.37477121502E-01  0.51100000000E-03 0. -1.
</event>
<event>
 8    1  0.1101883E+005  0.1043930E+01  0.7957747E-01            NaN
         13   -1    0    0    0    0  0.00000000000E+00  0.00000000000E+00  0.74505805969E-08  0.10566000000E+00  0.10566000000E+00 0.  1.
     999900   -1    0    0    0    0 -0.00000000000E+00 -0.00000000000E+00 -0.74505805969E-08  0.93827000000E+00  0.93827000000E+00 0.  1.
     999902    2    1    2    0    0  0.18598067863E-01  0.12053938511E-01 -0.31734427269E-02  0.10215412461E+01  0.10212958735E+01 0.  0.
     999903    2    3    3    0    0 -0.68589878417E-01  0.45861986740E-01  0.99340669309E-01  0.13066871580E+00  0.19946214197E-01 0.  0.
         14    1    1    2    0    0 -0.18598067863E-01 -0.12053938511E-01  0.31734427269E-02  0.22388753887E-01  0.00000000000E+00 0.  1.
     999901    1    3    3    0    0  0.87187946280E-01 -0.33808048229E-01 -0.10251411204E+00  0.89087253031E+00  0.88000000000E+00 0.  1.
        -11    1    4    4    0    0 -0.27007559359E-02 -0.95464415897E-03  0.89399396566E-02  0.94015461579E-02  0.51100000000E-03 0. -1.
         11    1    4    4    0    0 -0.65889122481E-01  0.46816630899E-01  0.90400729653E-01  0.12126716964E+00  0.51100000000E-03 0.  1.
</event>
<event>
 8    1  0.1101883E+005  0.1043930E+01  0.7957747E-01            NaN
         13   -1    0    0    0    0  0.00000000000E+00  0.00000000000E+00  0.74505805969E-08  0.10566000000E+00  0.10566000000E+00 0.  1.
     999900   -1    0    0    0    0 -0.00000000000E+00 -0.00000000000E+00 -0.74505805969E-08  0.93827000000E+00  0.93827000000E+00 0.  1.
     999902    2    1    2    0    0  0.11174100903E-01 -0.19504781284E-01  0.61616734826E-02  0.10206219918E+01  0.10203558139E+01 0.  0.
     999903    2    3    3    0    0 -0.66982492525E-01 -0.29547562797E-01  0.10673687718E+00  0.13139497800E+00  0.22631096325E-01 0.  0.
         14    1    1    2    0    0 -0.11174100903E-01  0.19504781284E-01 -0.61616734826E-02  0.23308008153E-01  0.00000000000E+00 0.  1.
     999901    1    3    3    0    0  0.78156593428E-01  0.10042781512E-01 -0.10057520370E+00  0.88922701385E+00  0.88000000000E+00 0. -1.
        -11    1    4    4    0    0 -0.27975324347E-01 -0.72982277628E-02  0.59854860062E-01  0.66473666175E-01  0.51100000000E-03 0.  1.
         11    1    4    4    0    0 -0.39007168178E-01 -0.22249335034E-01  0.46882017120E-01  0.64921311824E-01  0.51100000000E-03 0. -1.
</event>
<event>
 8    1  0.1101883E+005  0.1043930E+01  0.7957747E-01            NaN
         13   -1    0    0    0    0  0.00000000000E+00  0.00000000000E+00  0.74505805969E-08  0.10566000000E+00  0.10566000000E+00 0.  1.
     999900   -1    0    0    0    0 -0.00000000000E+00 -0.00000000000E+00 -0.74505805969E-08  0.93827000000E+00  0.93827000000E+00 0.  1.
     999902    2    1    2    0    0  0.20060004486E-02 -0.14476182718E-01  0.19779623499E-01  0.10193369642E+01  0.10190402490E+01 0.  0.
     999903    2    3    3    0    0  0.47285577027E-01  0.53342480510E-01  0.10818116902E+00  0.13115655213E+00  0.20433546338E-01 0.  0.
         14    1    1    2    0    0 -0.20060004486E-02  0.14476182718E-01 -0.19779623499E-01  0.24593035796E-01  0.00000000000E+00 0. -1.
     999901    1    3    3    0    0 -0.45279576579E-01 -0.67818663228E-01 -0.88401545516E-01  0.88818041207E+00  0.88000000000E+00 0.  1.
        -11    1    4    4    0    0  0.11273355046E-01  0.13466642730E-01  0.44450636689E-01  0.47797062916E-01  0.51100000000E-03 0.  1.
         11    1    4    4    0    0  0.36012221981E-01  0.39875837780E-01  0.63730532327E-01  0.83359489217E-01  0.51100000000E-03 0. -1.
</event>
<event>
 8    1  0.1101883E+005  0.1043930E+01  0.7957747E-01            NaN
         13   -1    0    0    0    0  0.00000000000E+00  0.00000000000E+00  0.74505805969E-08  0.10566000000E+00  0.10566000000E+00 0. -1.
     999900   -1    0    0    0    0 -0.00000000000E+00 -0.00000000000E+00 -0.74505805969E-08  0.93827000000E+00  0.93827000000E+00 0. -1.
     999902    2    1    2    0    0  0.18578498732E-01  0.14187216281E-01 -0.90830230480E-03  0.10205363527E+01  0.10202681924E+01 0.  0.
     999903    2    3    3    0    0  0.41927580893E-01  0.12179928271E+00  0.27614439012E-01  0.13321505618E+00  0.19766300703E-01 0.  0.
         14    1    1    2    0    0 -0.18578498732E-01 -0.14187216281E-01  0.90830230480E-03  0.23393647300E-01  0.00000000000E+00 0. -1.
     999901    1    3    3    0    0 -0.23349082161E-01 -0.10761206643E+00 -0.28522741316E-01  0.88732129652E+00  0.88000000000E+00 0. -1.
        -11    1    4    4    0    0  0.14038815199E-02  0.82153743201E-02  0.69415069868E-02  0.10858586408E-01  0.51100000000E-03 0.  1.
         11    1    4    4    0    0  0.40523699373E-01  0.11358390839E+00  0.20672932025E-01  0.12235646977E+00  0.51100000000E-03 0. -1.
</event>
<event>
 8    1  0.1101883E+005  0.1043930E+01  0.7957747E-01            NaN
         13   -1    0    0    0    0  0.00000000000E+00  0.00000000000E+00  0.74505805969E-08  0.10566000000E+00  0.10566000000E+00 0.  1.
     999900   -1    0    0    0    0 -0.00000000000E+00 -0.00000000000E+00 -0.74505805969E-08  0.93827000000E+00  0.93827000000E+00 0.  1.
     999902    2    1    2    0    0  0.54794148871E-02  0.20363886445E-01 -0.11283641151E-01  0.10200128008E+01  0.10197323577E+01 0.  0.
     999903    2    3    3    0    0  0.96478979691E-01 -0.73797925484E-01 -0.41545463675E-01  0.12980880987E+00  0.19234714429E-01 0.  0.
         14    1    1    2    0    0 -0.54794148871E-02 -0.20363886445E-01  0.11283641151E-01  0.23917199172E-01  0.00000000000E+00 0. -1.
     999901    1    3    3    0    0 -0.90999564804E-01  0.94161811928E-01  0.30261822524E-01  0.89020399096E+00  0.88000000000E+00 0. -1.
        -11    1    4    4    0    0  0.87431515826E-01 -0.66769732565E-01 -0.43262131356E-01  0.11821311381E+00  0.51100000000E-03 0.  1.
         11    1    4    4    0    0  0.90474638649E-02 -0.70281929188E-02  0.17166676813E-02  0.11595696056E-01  0.51100000000E-03 0. -1.
</event>
<event>
 8    1  0.1101883E+005  0.1043930E+01  0.7957747E-01            NaN
         13   -1    0    0    0    0  0.00000000000E+00  0.00000000000E+00  0.74505805969E-08  0.10566000000E+00  0.10566000000E+00 0.  1.
     999900   -1    0    0    0    0 -0.00000000000E+00 -0.00000000000E+00 -0.74505805969E-08  0.93827000000E+00  0.93827000000E+00 0.  1.
     999902    2    1    2    0    0 -0.67669531697E-02  0.23909169322E-01 -0.59609193351E-02  0.10183766716E+01  0.10180560263E+01 0.  0.
     999903    2    3    3    0    0 -0.99720233954E-01  0.72063013439E-01 -0.37645790561E-01  0.13160554207E+00  0.27669661909E-01 0.  0.
         14    1    1    2    0    0  0.67669531697E-02 -0.23909169322E-01  0.59609193351E-02  0.25553328397E-01  0.00000000000E+00 0.  1.
     999901    1    3    3    0    0  0.92953280785E-01 -0.48153844117E-01  0.31684871226E-01  0.88677112953E+00  0.88000000000E+00 0. -1.
        -11    1    4    4    0    0 -0.59233379370E-01  0.57495590107E-01 -0.19001632247E-01  0.84709263144E-01  0.51100000000E-03 0. -1.
         11    1    4    4    0    0 -0.40486854584E-01  0.14567423332E-01 -0.18644158314E-01  0.46896278924E-01  0.51100000000E-03 0.  1.
</event>
<event>
 8    1  0.1101883E+005  0.1043930E+01  0.7957747E-01            NaN
         13   -1    0    0    0    0  0.00000000000E+00  0.00000000000E+00  0.74505805969E-08  0.10566000000E+00  0.10566000000E+00 0.  1.
     999900   -1    0    0    0    0 -0.00000000000E+00 -0.00000000000E+00 -0.74505805969E-08  0.93827000000E+00  0.93827000000E+00 0. -1.
     999902    2    1    2    0    0 -0.11993497666E-01  0.15856429057E-01 -0.13907349171E-01  0.10196671747E+01  0.10193784687E+01 0.  0.
     999903    2    3    3    0    0  0.20750560716E-01 -0.36191522001E-01  0.11850927921E+00  0.12763840500E+00  0.22510023072E-01 0.  0.
         14    1    1    2    0    0  0.11993497666E-01 -0.15856429057E-01  0.13907349171E-01  0.24262825262E-01  0.00000000000E+00 0.  1.
     999901    1    3    3    0    0 -0.32744058382E-01  0.52047951058E-01 -0.13241662838E+00  0.89202876974E+00  0.88000000000E+00 0. -1.
        -11    1    4    4    0    0  0.43642010999E-02 -0.33220205397E-02  0.46273651040E-01  0.46600364519E-01  0.51100000000E-03 0. -1.
         11    1    4    4    0    0  0.16386359616E-01 -0.32869501462E-01  0.72235628165E-01  0.81038040482E-01  0.51100000000E-03 0.  1.
</event>
<event>
 8    1  0.1101883E+005  0.1043930E+01  0.7957747E-01            NaN
         13   -1    0    0    0    0  0.00000000000E+00  0.00000000000E+00  0.74505805969E-08  0.10566000000E+00  0.10566000000E+00 0. -1.
     999900   -1    0    0    0    0 -0.00000000000E+00 -0.00000000000E+00 -0.74505805969E-08  0.93827000000E+00  0.93827000000E+00 0. -1.
     999902    2    1    2    0    0  0.17125861780E-01 -0.14943789467E-01  0.12063808754E-01  0.10181977738E+01  0.10178725652E+01 0.  0.
     999903    2    3    3    0    0  0.82909102085E-01 -0.15360329793E-01  0.98779368711E-01  0.13149196204E+00  0.20564859781E-01 0.  0.
         14    1    1    2    0    0 -0.17125861780E-01  0.14943789467E-01 -0.12063808754E-01  0.25732226235E-01  0.00000000000E+00 0.  1.
     999901    1    3    3    0    0 -0.65783240305E-01  0.41654032615E-03 -0.86715559957E-01  0.88670581173E+00  0.88000000000E+00 0. -1.
        -11    1    4    4    0    0  0.48421527956E-01 -0.63640449966E-02  0.41820687025E-01  0.64299116810E-01  0.51100000000E-03 0. -1.
         11    1    4    4    0    0  0.34487574129E-01 -0.89962847965E-02  0.56958681686E-01  0.67192845229E-01  0.51100000000E-03 0.  1.
</event>
<event>
 8    1  0.1101883E+005  0.1043930E+01  0.7957747E-01            NaN
         13   -1    0    0    0    0  0.00000000000E+00  0.00000000000E+00  0.74505805969E-08  0.10566000000E+00  0.10566000000E+00 0. -1.
     999900   -1    0    0    0    0 -0.00000000000E+00 -0.00000000000E+00 -0.74505805969E-08  0.93827000000E+00  0.93827000000E+00 0.  1.
     999902    2    1    2    0    0 -0.10057929056E-01  0.12224880656E-01 -0.17129929193E-01  0.10206052467E+01  0.10203386817E+01 0.  0.
     999903    2    3    3    0    0  0.36225031734E-01 -0.10168894494E+00 -0.70452543179E-01  0.13045819517E+00  0.20072005375E-01 0.  0.
         14    1    1    2    0    0  0.10057929056E-01 -0.12224880656E-01  0.17129929193E-01  0.23324753334E-01  0.00000000000E+00 0. -1.
     999901    1    3    3    0    0 -0.46282960791E-01  0.11391382560E+00  0.53322613986E-01  0.89014705149E+00  0.88000000000E+00 0.  1.
        -11    1    4    4    0    0  0.20443827899E-01 -0.66236061269E-01 -0.55745747045E-01  0.88955131084E-01  0.51100000000E-03 0. -1.
         11    1    4    4    0    0  0.15781203835E-01 -0.35452883672E-01 -0.14706796134E-01  0.41503064087E-01  0.51100000000E-03 0.  1.
</event>
<event>
 8    1  0.1101883E+005  0.1043930E+01  0.7957747E-01            NaN
         13   -1    0    0    0    0  0.00000000000E+00  0.00000000000E+00  0.74505805969E-08  0.10566000000E+00  0.10566000000E+00 0. -1.
     999900   -1    0    0    0    0 -0.00000000000E+00 -0.00000000000E+00 -0.74505805969E-08  0.93827000000E+00  0.93827000000E+00 0.  1.
     999902    2    1    2    0    0 -0.10745478979E-01  0.10422961120E-01  0.19983346738E-01  0.10189612679E+01  0.10186553037E+01 0.  0.
     999903    2    3    3    0    0  0.85459719052E-01 -0.92861982287E-01 -0.10667051785E-02  0.12746459130E+00  0.17871005582E-01 0.  0.
         14    1    1    2    0    0  0.10745478979E-01 -0.10422961120E-01 -0.19983346738E-01  0.24968732123E-01  0.00000000000E+00 0.  1.
     999901    1    3    3    0    0 -0.96205198032E-01  0.10328494341E+00  0.21050051916E-01  0.89149667658E+00  0.88000000000E+00 0.  1.
        -11    1    4    4    0    0  0.37878582761E-01 -0.53704855014E-01  0.21564965837E-02  0.65756445179E-01  0.51100000000E-03 0.  1.
         11    1    4    4    0    0  0.47581136292E-01 -0.39157127272E-01 -0.32232017622E-02  0.61708146120E-01  0.51100000000E-03 0. -1.
</event>
<event>
 8    1  0.1101883E+005  0.1043930E+01  0.7957747E-01            NaN
         13   -1    0    0    0    0  0.00000000000E+00  0.00000000000E+00  0.74505805969E-08  0.10566000000E+00  0.10566000000E+00 0. -1.
     999900   -1    0    0    0    0 -0.00000000000E+00 -0.00000000000E+00 -0.74505805969E-08  0.93827000000E+00  0.93827000000E+00 0. -1.
     999902    2    1    2    0    0 -0.24782825250E-01 -0.18201199653E-02  0.21925010160E-02  0.10189838916E+01  0.10186784885E+01 0.  0.
     999903    2    3    3    0    0  0.80752934857E-01  0.33098741517E-01 -0.90499286604E-01  0.12716053966E+00  0.19055676164E-01 0.  0.
         14    1    1    2    0    0  0.24782825250E-01  0.18201199653E-02 -0.21925010160E-02  0.24946108409E-01  0.00000000000E+00 0. -1.
     999901    1    3    3    0    0 -0.10553576011E+00 -0.34918861482E-01  0.92691787620E-01  0.89182335193E+00  0.88000000000E+00 0.  1.
        -11    1    4    4    0    0  0.20674169019E-01  0.12038380317E-02 -0.27641335780E-01  0.34542366094E-01  0.51100000000E-03 0.  1.
         11    1    4    4    0    0  0.60078765838E-01  0.31894903485E-01 -0.62857950823E-01  0.92618173571E-01  0.51100000000E-03 0. -1.
</event>
<event>
 8    1  0.1101883E+005  0.1043930E+01  0.7957747E-01            NaN
         13   -1    0    0    0    0  0.00000000000E+00  0.00000000000E+00  0.74505805969E-08  0.10566000000E+00  0.10566000000E+00 0.  1.
     999900   -1    0    0    0    0 -0.00000000000E+00 -0.00000000000E+00 -0.74505805969E-08  0.93827000000E+00  0.93827000000E+00 0.  1.
     999902    2    1    2    0    0  0.39029456964E-02 -0.17463539598E-01  0.14645707377E-01  0.10208063120E+01  0.10205443752E+01 0.  0.
     999903    2    3    3    0    0  0.11206359505E+00 -0.50207568944E-01  0.47124678524E-01  0.13298550743E+00  0.19630602297E-01 0.  0.
         14    1    1    2    0    0 -0.39029456964E-02  0.17463539598E-01 -0.14645707377E-01  0.23123687962E-01  0.00000000000E+00 0. -1.
     999901    1    3    3    0    0 -0.10816064935E+00  0.32744029347E-01 -0.32478971147E-01  0.88782080461E+00  0.88000000000E+00 0. -1.
        -11    1    4    4    0    0  0.15913475581E-01 -0.10192887272E-01  0.14578071444E-01  0.23872891405E-01  0.51100000000E-03 0. -1.
         11    1    4    4    0    0  0.96150119466E-01 -0.40014681672E-01  0.32546607080E-01  0.10911261603E+00  0.51100000000E-03 0.  1.
</event>
<event>
 8    1  0.1101883E+005  0.1043930E+01  0.7957747E-01            NaN
         13   -1    0    0    0    0  0.00000000000E+00  0.00000000000E+00  0.74505805969E-08  0.10566000000E+00  0.10566000000E+00 0.  1.
     999900   -1    0    0    0    0 -0.00000000000E+00 -0.00000000000E+00 -0.74505805969E-08  0.93827000000E+00  0.93827000000E+00 0. -1.
     999902    2    1    2    0    0  0.18271438397E-01 -0.14238172752E-01  0.31395075215E-02  0.10205542106E+01  0.10202864643E+01 0.  0.
     999903    2    3    3    0    0  0.55292001675E-01 -0.11402119278E+00 -0.36051963264E-01  0.13327570605E+00  0.20115464592E-01 0.  0.
         14    1    1    2    0    0 -0.18271438397E-01  0.14238172752E-01 -0.31395075215E-02  0.23375789439E-01  0.00000000000E+00 0. -1.
     999901    1    3    3    0    0 -0.37020563278E-01  0.99783020025E-01  0.39191470785E-01  0.88727850451E+00  0.88000000000E+00 0.  1.
        -11    1    4    4    0    0  0.20691639742E-01 -0.54983715398E-01 -0.25457778239E-01  0.64028997400E-01  0.51100000000E-03 0.  1.
         11    1    4    4    0    0  0.34600361933E-01 -0.59037477378E-01 -0.10594185025E-01  0.69246708647E-01  0.51100000000E-03 0. -1.
</event>
<event>
 8    1  0.1101883E+005  0.1043930E+01  0.7957747E-01            NaN
         13   -1    0    0    0    0  0.00000000000E+00  0.00000000000E+00  0.74505805969E-08  0.10566000000E+00  0.10566000000E+00 0.  1.
     999900   -1    0    0    0    0 -0.00000000000E+00 -0.00000000000E+00 -0.74505805969E-08  0.93827000000E+00  0.93827000000E+00 0. -1.
     999902    2    1    2    0    0  0.13087242829E-01 -0.17302171318E-01  0.96038810320E-02  0.10202050008E+01  0.10199290995E+01 0.  0.
     999903    2    3    3    0    0 -0.71526648194E-01 -0.10266954482E-01 -0.10470691421E+00  0.12875900537E+00  0.19846204233E-01 0.  0.
         14    1    1    2    0    0 -0.13087242829E-01  0.17302171318E-01 -0.96038810320E-02  0.23724999221E-01  0.00000000000E+00 0. -1.
     999901    1    3    3    0    0  0.84613891023E-01 -0.70352168354E-02  0.11431079524E+00  0.89144599541E+00  0.88000000000E+00 0.  1.
        -11    1    4    4    0    0 -0.38508852208E-01 -0.13648063094E-01 -0.67442976714E-01  0.78854407319E-01  0.51100000000E-03 0. -1.
         11    1    4    4    0    0 -0.33017795986E-01  0.33811086121E-02 -0.37263937498E-01  0.49904598046E-01  0.51100000000E-03 0.  1.
</event>
<event>
 8    1  0.1101883E+005  0.1043930E+01  0.7957747E-01            NaN
         13   -1    0    0    0    0  0.00000000000E+00  0.00000000000E+00  0.74505805969E-08  0.10566000000E+00  0.10566000000E+00 0.  1.
     999900   -1    0    0    0    0 -0.00000000000E+00 -0.00000000000E+00 -0.74505805969E-08  0.93827000000E+00  0.93827000000E+00 0.  1.
     999902    2    1    2    0    0  0.23976351926E-02  0.33449186394E-02 -0.24309682677E-01  0.10192744163E+01  0.10189761714E+01 0.  0.
     999903    2    3    3    0    0 -0.95467681719E-03 -0.84475477527E-01  0.93002932357E-01  0.12715003618E+00  0.19508166545E-01 0.  0.
         14    1    1    2    0    0 -0.23976351926E-02 -0.33449186394E-02  0.24309682677E-01  0.24655583690E-01  0.00000000000E+00 0.  1.
     999901    1    3    3    0    0  0.33523120097E-02  0.87820396166E-01 -0.11731261503E+00  0.89212438013E+00  0.88000000000E+00 0.  1.
        -11    1    4    4    0    0 -0.40015037666E-02 -0.32742079494E-01  0.23736903168E-01  0.40641819533E-01  0.51100000000E-03 0. -1.
         11    1    4    4    0    0  0.30468269495E-02 -0.51733398033E-01  0.69266029189E-01  0.86508216645E-01  0.51100000000E-03 0.  1.
</event>
<event>
 8    1  0.1101883E+005  0.1043930E+01  0.7957747E-01            NaN
         13   -1    0    0    0    0  0.00000000000E+00  0.00000000000E+00  0.74505805969E-08  0.10566000000E+00  0.10566000000E+00 0.  1.
     999900   -1    0    0    0    0 -0.00000000000E+00 -0.00000000000E+00 -0.74505805969E-08  0.93827000000E+00  0.93827000000E+00 0.  1.
     999902    2    1    2    0    0  0.13454240700E-01 -0.89403448927E-02  0.17220092913E-01  0.10203190288E+01  0.10200458042E+01 0.  0.
     999903    2    3    3    0    0 -0.32538764546E-01  0.39790400781E-01  0.11967789098E+00  0.13184413189E+00  0.20445790105E-01 0.  0.
         14    1    1    2    0    0 -0.13454240700E-01  0.89403448927E-02 -0.17220092913E-01  0.23610971169E-01  0.00000000000E+00 0.  1.
     999901    1    3    3    0    0  0.45993005246E-01 -0.48730745673E-01 -0.10245779807E+00  0.88847489694E+00  0.88000000000E+00 0.  1.
        -11    1    4    4    0    0 -0.10781326489E-01  0.11108651680E-01  0.61551775691E-01  0.63470633798E-01  0.51100000000E-03 0. -1.
         11    1    4    4    0    0 -0.21757438057E-01  0.28681749101E-01  0.58126115287E-01  0.68373498094E-01  0.51100000000E-03 0.  1.
</event>
<event>
 8    1  0.1101883E+005  0.1043930E+01  0.7957747E-01            NaN
         13   -1    0    0    0    0  0.00000000000E+00  0.00000000000E+00  0.74505805969E-08  0.10566000000E+00  0.10566000000E+00 0. -1.
     999900   -1    0    0    0    0 -0.00000000000E+00 -0.00000000000E+00 -0.74505805969E-08  0.93827000000E+00  0.93827000000E+00 0.  1.
     999902    2    1    2    0    0 -0.92029077765E-02  0.11098903047E-01  0.22114101806E-01  0.10175308966E+01  0.10171883862E+01 0.  0.
     999903    2    3    3    0    0 -0.43838747532E-01  0.10568506213E+00  0.60503864302E-01  0.13095323124E+00  0.19921421531E-01 0.  0.
         14    1    1    2    0    0  0.92029077765E-02 -0.11098903047E-01 -0.22114101806E-01  0.26399103376E-01  0.00000000000E+00 0.  1.
     999901    1    3    3    0    0  0.34635839756E-01 -0.94586159080E-01 -0.38389762497E-01  0.88657766538E+00  0.88000000000E+00 0.  1.
        -11    1    4    4    0    0 -0.18541391039E-01  0.68525548986E-01  0.33370104175E-01  0.78443349107E-01  0.51100000000E-03 0.  1.
         11    1    4    4    0    0 -0.25297356493E-01  0.37159513142E-01  0.27133760128E-01  0.52509882138E-01  0.51100000000E-03 0. -1.
</event>
<event>
 8    1  0.1101883E+005  0.1043930E+01  0.7957747E-01            NaN
         13   -1    0    0    0    0  0.00000000000E+00  0.00000000000E+00  0.74505805969E-08  0.10566000000E+00  0.10566000000E+00 0. -1.
     999900   -1    0    0    0    0 -0.00000000000E+00 -0.00000000000E+00 -0.74505805969E-08  0.93827000000E+00  0.93827000000E+00 0.  1.
     999902    2    1    2    0    0 -0.20851991277E-01  0.52180219218E-02  0.10393979509E-01  0.10200539010E+01  0.10197744323E+01 0.  0.
     999903    2    3    3    0    0 -0.62843441771E-01 -0.98169475836E-01 -0.56226885372E-01  0.13050873844E+00  0.16867839569E-01 0.  0.
         14    1    1    2    0    0  0.20851991277E-01 -0.52180219218E-02 -0.10393979509E-01  0.23876098991E-01  0.00000000000E+00 0.  1.
     999901    1    3    3    0    0  0.41991450494E-01  0.10338749776E+00  0.66620864881E-01  0.88954516257E+00  0.88000000000E+00 0.  1.
        -11    1    4    4    0    0 -0.50822891900E-01 -0.72730230260E-01 -0.35540767297E-01  0.95582739005E-01  0.51100000000E-03 0.  1.
         11    1    4    4    0    0 -0.12020549871E-01 -0.25439245576E-01 -0.20686118075E-01  0.34925999437E-01  0.51100000000E-03 0. -1.
</event>
<event>
 8    1  0.1101883E+005  0.1043930E+01  0.7957747E-01            NaN
         13   -1    0    0    0    0  0.00000000000E+00  0.00000000000E+00  0.74505805969E-08  0.10566000000E+00  0.10566000000E+00 0.  1.
     999900   -1    0    0    0    0 -0.00000000000E+00 -0.00000000000E+00 -0.74505805969E-08  0.93827000000E+00  0.93827000000E+00 0. -1.
     999902    2    1    2    0    0  0.18232630651E-01 -0.86050726404E-02 -0.10433401993E-01  0.10212290755E+01  0.10209767346E+01 0.  0.
     999903    2    3    3    0    0 -0.19893681711E-01 -0.12210158699E+00 -0.43079705401E-01  0.13252166832E+00  0.20039347306E-01 0.  0.
         14    1    1    2    0    0 -0.18232630651E-01  0.86050726404E-02  0.10433401993E-01  0.22700924491E-01  0.00000000000E+00 0.  1.
     999901    1    3    3    0    0  0.38126312362E-01  0.11349651435E+00  0.32646303408E-01  0.88870740719E+00  0.88000000000E+00 0.  1.
        -11    1    4    4    0    0  0.37635047191E-02 -0.24700626982E-01 -0.10724744854E-01  0.27194966708E-01  0.51100000000E-03 0. -1.
         11    1    4    4    0    0 -0.23657186431E-01 -0.97400960006E-01 -0.32354960547E-01  0.10532670161E+00  0.51100000000E-03 0.  1.
</event>
<event>
 8    1  0.1101883E+005  0.1043930E+01  0.7957747E-01            NaN
         13   -1    0    0    0    0  0.00000000000E+00  0.00000000000E+00  0.74505805969E-08  0.10566000000E+00  0.10566000000E+00 0.  1.
     999900   -1    0    0    0    0 -0.00000000000E+00 -0.00000000000E+00 -0.74505805969E-08  0.93827000000E+00  0.93827000000E+00 0.  1.
     999902    2    1    2    0    0  0.38166080386E-02 -0.20370156810E-01 -0.93899429002E-02  0.10211773999E+01  0.10209238959E+01 0.  0.
     999903    2    3    3    0    0  0.75639171221E-01  0.93268905471E-01 -0.46032721954E-01  0.13021443188E+00  0.20406220343E-01 0.  0.
         14    1    1    2    0    0 -0.38166080386E-02  0.20370156810E-01  0.93899429002E-02  0.22752600138E-01  0.00000000000E+00 0.  1.
     999901    1    3    3    0    0 -0.71822563182E-01 -0.11363906228E+00  0.36642779054E-01  0.89096296798E+00  0.88000000000E+00 0.  1.
        -11    1    4    4    0    0  0.59304204480E-01  0.83805184442E-01 -0.35765263756E-01  0.10871850266E+00  0.51100000000E-03 0. -1.
         11    1    4    4    0    0  0.16334966741E-01  0.94637210283E-02 -0.10267458198E-01  0.21495929219E-01  0.51100000000E-03 0.  1.
</event>
<event>
 8    1  0.1101883E+005  0.1043930E+01  0.7957747E-01            NaN
         13   -1    0    0    0    0  0.00000000000E+00  0.00000000000E+00  0.74505805969E-08  0.10566000000E+00  0.10566000000E+00 0. -1.
     999900   -1    0    0    0    0 -0.00000000000E+00 -0.00000000000E+00 -0.74505805969E-08  0.93827000000E+00  0.93827000000E+00 0. -1.
     999902    2    1    2    0    0  0.18030525215E-01  0.99491422275E-02  0.10175970634E-01  0.10209596790E+01  0.10207012444E+01 0.  0.
     999903    2    3    3    0    0  0.12332879771E+00  0.26254957702E-01 -0.37777420976E-01  0.13323611073E+00  0.20625530763E-01 0.  0.
         14    1    1    2    0    0 -0.18030525215E-01 -0.99491422275E-02 -0.10175970634E-01  0.22970321046E-01  0.00000000000E+00 0. -1.
     999901    1    3    3    0    0 -0.10529827249E+00 -0.16305815475E-01  0.47953391610E-01  0.88772356822E+00  0.88000000000E+00 0.  1.
        -11    1    4    4    0    0  0.55417818552E-01  0.12975774155E-01 -0.27720015941E-01  0.63310076076E-01  0.51100000000E-03 0.  1.
         11    1    4    4    0    0  0.67910979158E-01  0.13279183547E-01 -0.10057405035E-01  0.69926034657E-01  0.51100000000E-03 0. -1.
</event>
<event>
 8    1  0.1101883E+005  0.1043930E+01  0.7957747E-01            NaN
         13   -1    0    0    0    0  0.00000000000E+00  0.00000000000E+00  0.74505805969E-08  0.10566000000E+00  0.10566000000E+00 0. -1.
     999900   -1    0    0    0    0 -0.00000000000E+00 -0.00000000000E+00 -0.74505805969E-08  0.93827000000E+00  0.93827000000E+00 0.  1.
     999902    2    1    2    0    0 -0.20987913211E-02  0.43332666242E-02  0.23393385789E-01  0.10200462686E+01  0.10197666192E+01 0.  0.
     999903    2    3    3    0    0  0.10315380081E+00 -0.32979250751E-01 -0.65908615350E-01  0.12850536689E+00  0.21008239818E-01 0.  0.
         14    1    1    2    0    0  0.20987913211E-02 -0.43332666242E-02 -0.23393385789E-01  0.23883731353E-01  0.00000000000E+00 0.  1.
     999901    1    3    3    0    0 -0.10525259213E+00  0.37312517376E-01  0.89302001139E-01  0.89154090176E+00  0.88000000000E+00 0. -1.
        -11    1    4    4    0    0  0.28599313734E-01 -0.27140162246E-02 -0.95949213831E-02  0.30292082587E-01  0.51100000000E-03 0. -1.
         11    1    4    4    0    0  0.74554487074E-01 -0.30265234527E-01 -0.56313693967E-01  0.98213284300E-01  0.51100000000E-03 0.  1.
</event>
<event>
 8    1  0.1101883E+005  0.1043930E+01  0.7957747E-01            NaN
         13   -1    0    0    0    0  0.00000000000E+00  0.00000000000E+00  0.74505805969E-08  0.10566000000E+00  0.10566000000E+00 0. -1.
     999900   -1    0    0    0    0 -0.00000000000E+00 -0.00000000000E+00 -0.74505805969E-08  0.93827000000E+00  0.93827000000E+00 0. -1.
     999902    2    1    2    0    0  0.17797844786E-01 -0.14565930516E-01 -0.62583732851E-02  0.10200952177E+01  0.10198167268E+01 0.  0.
     999903    2    3    3    0    0  0.47800679265E-01 -0.41145314144E-01  0.11329123768E+00  0.13110773568E+00  0.19403401925E-01 0.  0.
         14    1    1    2    0    0 -0.17797844786E-01  0.14565930516E-01  0.62583732851E-02  0.23834782294E-01  0.00000000000E+00 0. -1.
     999901    1    3    3    0    0 -0.30002834480E-01  0.26579383628E-01 -0.11954961097E+00  0.88898748202E+00  0.88000000000E+00 0. -1.
        -11    1    4    4    0    0  0.10803989096E-01 -0.15409363019E-01  0.19811703830E-01  0.27330191706E-01  0.51100000000E-03 0. -1.
         11    1    4    4    0    0  0.36996690169E-01 -0.25735951125E-01  0.93479533852E-01  0.10377754398E+00  0.51100000000E-03 0.  1.
</event>
<event>
 8    1  0.1101883E+005  0.1043930E+01  0.7957747E-01            NaN
         13   -1    0    0    0    0  0.00000000000E+00  0.00000000000E+00  0.74505805969E-08  0.10566000000E+00  0.10566000000E+00 0.  1.
     999900   -1    0    0    0    0 -0.00000000000E+00 -0.00000000000E+00 -0.74505805969E-08  0.93827000000E+00  0.93827000000E+00 0.  1.
     999902    2    1    2    0    0  0.12539615127E-01  0.19781030135E-01  0.37993672805E-02  0.10202030893E+01  0.10199271430E+01 0.  0.
     999903    2    3    3    0    0 -0.10343427030E-01  0.12063782144E+00  0.50905055137E-01  0.13289554857E+00  0.20234419821E-01 0.  0.
         14    1    1    2    0    0 -0.12539615127E-01 -0.19781030135E-01 -0.37993672805E-02  0.23726910723E-01  0.00000000000E+00 0.  1.
     999901    1    3    3    0    0  0.22883042156E-01 -0.10085679131E+00 -0.47105687856E-01  0.88730754071E+00  0.88000000000E+00 0. -1.
        -11    1    4    4    0    0 -0.58764016464E-02  0.11150971027E+00  0.41773178825E-01  0.11922334994E+00  0.51100000000E-03 0. -1.
         11    1    4    4    0    0 -0.44670253831E-02  0.91281111739E-02  0.91318763111E-02  0.13672198629E-01  0.51100000000E-03 0.  1.
</event>
<event>
 8    1  0.1101883E+005  0.1043930E+01  0.7957747E-01            NaN
         13   -1    0    0    0    0  0.00000000000E+00  0.00000000000E+00  0.74505805969E-08  0.10566000000E+00  0.10566000000E+00 0. -1.
     999900   -1    0    0    0    0 -0.00000000000E+00 -0.00000000000E+00 -0.74505805969E-08  0.93827000000E+00  0.93827000000E+00 0.  1.
     999902    2    1    2    0    0 -0.22739681926E-01 -0.32719541201E-02 -0.44780672866E-02  0.10205237636E+01  0.10202553112E+01 0.  0.
     999903    2    3    3    0    0  0.94942898363E-01  0.33248520553E-01  0.76917092783E-01  0.12821882305E+00  0.20104958411E-01 0.  0.
         14    1    1    2    0    0  0.22739681926E-01  0.32719541201E-02  0.44780672866E-02  0.23406236445E-01  0.00000000000E+00 0.  1.
     999901    1    3    3    0    0 -0.11768258029E+00 -0.36520474673E-01 -0.81395160070E-01  0.89230494051E+00  0.88000000000E+00 0.  1.
        -11    1    4    4    0    0  0.57933638037E-01  0.10099671678E-01  0.47204584099E-01  0.75411164062E-01  0.51100000000E-03 0. -1.
         11    1    4    4    0    0  0.37009260326E-01  0.23148848876E-01  0.29712508684E-01  0.52807658985E-01  0.51100000000E-03 0.  1.
</event>
<event>
 8    1  0.1101883E+005  0.1043930E+01  0.7957747E-01            NaN
         13   -1    0    0    0    0  0.00000000000E+00  0.00000000000E+00  0.74505805969E-08  0.10566000000E+00  0.10566000000E+00 0. -1.
     999900   -1    0    0    0    0 -0.00000000000E+00 -0.00000000000E+00 -0.74505805969E-08  0.93827000000E+00  0.93827000000E+00 0. -1.
     999902    2    1    2    0    0 -0.22448859777E-01 -0.79490733226E-02 -0.12608963583E-01  0.10169832927E+01  0.10166262305E+01 0.  0.
     999903    2    3    3    0    0  0.12272507536E+00  0.11866828713E-01 -0.16060303869E-02  0.12480102098E+00  0.19247071439E-01 0.  0.
         14    1    1    2    0    0  0.22448859777E-01  0.79490733226E-02  0.12608963583E-01  0.26946707306E-01  0.00000000000E+00 0.  1.
     999901    1    3    3    0    0 -0.14517393514E+00 -0.19815902036E-01 -0.11002933196E-01  0.89218227171E+00  0.88000000000E+00 0. -1.
        -11    1    4    4    0    0  0.55557087802E-01  0.14404387285E-01 -0.40474591874E-02  0.57538851439E-01  0.51100000000E-03 0. -1.
         11    1    4    4    0    0  0.67167987558E-01 -0.25375585724E-02  0.24414288005E-02  0.67262169544E-01  0.51100000000E-03 0.  1.
</event>
<event>
 8    1  0.1101883E+005  0.1043930E+01  0.7957747E-01            NaN
         13   -1    0    0    0    0  0.00000000000E+00  0.00000000000E+00  0.74505805969E-08  0.10566000000E+00  0.10566000000E+00 0. -1.
     999900   -1    0    0    0    0 -0.00000000000E+00 -0.00000000000E+00 -0.74505805969E-08  0.93827000000E+00  0.93827000000E+00 0. -1.
     999902    2    1    2    0    0 -0.20699992876E-01 -0.99025754318E-02 -0.59270934212E-02  0.10202301869E+01  0.10199548780E+01 0.  0.
     999903    2    3    3    0    0 -0.17260568547E-01  0.14275455984E-01 -0.12805909784E+00  0.13145989409E+00  0.19515515509E-01 0.  0.
         14    1    1    2    0    0  0.20699992876E-01  0.99025754318E-02  0.59270934212E-02  0.23699813115E-01  0.00000000000E+00 0. -1.
     999901    1    3    3    0    0 -0.34394243297E-02 -0.24178031416E-01  0.12213200442E+00  0.88877029279E+00  0.88000000000E+00 0.  1.
        -11    1    4    4    0    0 -0.61895342821E-02 -0.43222884867E-02 -0.44667380904E-01  0.45303736603E-01  0.51100000000E-03 0.  1.
         11    1    4    4    0    0 -0.11071034264E-01  0.18597744471E-01 -0.83391716937E-01  0.86156157492E-01  0.51100000000E-03 0. -1.
</event>
<event>
 8    1  0.1101883E+005  0.1043930E+01  0.7957747E-01            NaN
         13   -1    0    0    0    0  0.00000000000E+00  0.00000000000E+00  0.74505805969E-08  0.10566000000E+00  0.10566000000E+00 0.  1.
     999900   -1    0    0    0    0 -0.00000000000E+00 -0.00000000000E+00 -0.74505805969E-08  0.93827000000E+00  0.93827000000E+00 0. -1.
     999902    2    1    2    0    0  0.26662768184E-02 -0.57500984754E-02  0.22828885301E-01  0.10202375820E+01  0.10199624469E+01 0.  0.
     999903    2    3    3    0    0 -0.67709394583E-01  0.50256636260E-01  0.99748336609E-01  0.13231523665E+00  0.21149458394E-01 0.  0.
         14    1    1    2    0    0 -0.26662768184E-02  0.57500984754E-02 -0.22828885301E-01  0.23692417956E-01  0.00000000000E+00 0. -1.
     999901    1    3    3    0    0  0.70375671401E-01 -0.56006734735E-01 -0.76919451308E-01  0.88792234539E+00  0.88000000000E+00 0. -1.
        -11    1    4    4    0    0 -0.46597568379E-01  0.21756562396E-01  0.60842534741E-01  0.79666533380E-01  0.51100000000E-03 0. -1.
         11    1    4    4    0    0 -0.21111826204E-01  0.28500073864E-01  0.38905801868E-01  0.52648703269E-01  0.51100000000E-03 0.  1.
</event>
<event>
 8    1  0.1101883E+005  0.1043930E+01  0.7957747E-01            NaN
         13   -1    0    0    0    0  0.00000000000E+00  0.00000000000E+00  0.74505805969E-08  0.10566000000E+00  0.10566000000E+00 0.  1.
     999900   -1    0    0    0    0 -0.00000000000E+00 -0.00000000000E+00 -0.74505805969E-08  0.93827000000E+00  0.93827000000E+00 0.  1.
     999902    2    1    2    0    0  0.20278938789E-01  0.11801725489E-02 -0.11937665442E-01  0.10203686753E+01  0.10200966118E+01 0.  0.
     999903    2    3    3    0    0 -0.47228846322E-01 -0.86981771771E-01 -0.82757980481E-01  0.13056794114E+00  0.20067669907E-01 0.  0.
         14    1    1    2    0    0 -0.20278938789E-01 -0.11801725489E-02  0.11937665442E-01  0.23561324705E-01  0.00000000000E+00 0. -1.
     999901    1    3    3    0    0  0.67507785111E-01  0.88161944320E-01  0.70820315039E-01  0.88980073415E+00  0.88000000000E+00 0. -1.
        -11    1    4    4    0    0 -0.37298039266E-01 -0.50296636141E-01 -0.46066423256E-01  0.77738483473E-01  0.51100000000E-03 0.  1.
         11    1    4    4    0    0 -0.99308070566E-02 -0.36685135630E-01 -0.36691557225E-01  0.52829457669E-01  0.51100000000E-03 0. -1.
</event>
<event>
 8    1  0.1101883E+005  0.1043930E+01  0.7957747E-01            NaN
         13   -1    0    0    0    0  0.00000000000E+00  0.00000000000E+00  0.74505805969E-08  0.10566000000E+00  0.10566000000E+00 0.  1.
     999900   -1    0    0    0    0 -0.00000000000E+00 -0.00000000000E+00 -0.74505805969E-08  0.93827000000E+00  0.93827000000E+00 0. -1.
     999902    2    1    2    0    0 -0.81125974022E-02 -0.19324492592E-02 -0.21958620575E-01  0.10204410746E+01  0.10201707000E+01 0.  0.
     999903    2    3    3    0    0 -0.10265325349E+00 -0.15141483119E-01  0.75416016629E-01  0.12993883759E+00  0.20726094375E-01 0.  0.
         14    1    1    2    0    0  0.81125974022E-02  0.19324492592E-02  0.21958620575E-01  0.23488925354E-01  0.00000000000E+00 0.  1.
     999901    1    3    3    0    0  0.94540656084E-01  0.13209033860E-01 -0.97374637204E-01  0.89050223705E+00  0.88000000000E+00 0. -1.
        -11    1    4    4    0    0 -0.40178407056E-01  0.41304679947E-02  0.27103998065E-01  0.48644146529E-01  0.51100000000E-03 0. -1.
         11    1    4    4    0    0 -0.62474846430E-01 -0.19271951113E-01  0.48312018565E-01  0.81294691062E-01  0.51100000000E-03 0.  1.
</event>
<event>
 8    1  0.1101883E+005  0.1043930E+01  0.7957747E-01            NaN
         13   -1    0    0    0    0  0.00000000000E+00  0.00000000000E+00  0.74505805969E-08  0.10566000000E+00  0.10566000000E+00 0.  1.
     999900   -1    0    0    0    0 -0.00000000000E+00 -0.00000000000E+00 -0.74505805969E-08  0.93827000000E+00  0.93827000000E+00 0. -1.
     999902    2    1    2    0    0  0.23393064730E-02  0.16709392344E-01 -0.36822267268E-02  0.10266605200E+01  0.10265152645E+01 0.  0.
     999903    2    3    3    0    0  0.22795688028E-01  0.13400879999E+00 -0.19831671666E-01  0.13849475888E+00  0.17592645314E-01 0.  0.
         14    1    1    2    0    0 -0.23393064730E-02 -0.16709392344E-01  0.36822267268E-02  0.17269480042E-01  0.00000000000E+00 0. -1.
     999901    1    3    3    0    0 -0.20456381555E-01 -0.11729940764E+00  0.16149444940E-01  0.88816576108E+00  0.88000000000E+00 0. -1.
        -11    1    4    4    0    0  0.18588114518E-01  0.57706276004E-01 -0.76271875158E-02  0.61106197738E-01  0.51100000000E-03 0. -1.
         11    1    4    4    0    0  0.42075735093E-02  0.76302523984E-01 -0.12204484151E-01  0.77388561142E-01  0.51100000000E-03 0.  1.
</event>
<event>
 8    1  0.1101883E+005  0.1043930E+01  0.7957747E-01            NaN
         13   -1    0    0    0    0  0.00000000000E+00  0.00000000000E+00  0.74505805969E-08  0.10566000000E+00  0.10566000000E+00 0.  1.
     999900   -1    0    0    0    0 -0.00000000000E+00 -0.00000000000E+00 -0.74505805969E-08  0.93827000000E+00  0.93827000000E+00 0.  1.
     999902    2    1    2    0    0  0.18050302150E-01 -0.12142668644E-01 -0.12397299281E-01  0.10188910136E+01  0.10185833038E+01 0.  0.
     999903    2    3    3    0    0 -0.17553330806E-01 -0.79923290879E-01 -0.10058481902E+00  0.13117547919E+00  0.19845621085E-01 0.  0.
         14    1    1    2    0    0 -0.18050302150E-01  0.12142668644E-01  0.12397299281E-01  0.25038986381E-01  0.00000000000E+00 0.  1.
     999901    1    3    3    0    0  0.35603632957E-01  0.67780622235E-01  0.88187519738E-01  0.88771553443E+00  0.88000000000E+00 0. -1.
        -11    1    4    4    0    0 -0.16426956245E-01 -0.29600480184E-01 -0.39721898421E-01  0.52193137995E-01  0.51100000000E-03 0. -1.
         11    1    4    4    0    0 -0.11263745615E-02 -0.50322810695E-01 -0.60862920598E-01  0.78982341194E-01  0.51100000000E-03 0.  1.
</event>
<event>
 8    1  0.1101883E+005  0.1043930E+01  0.7957747E-01            NaN
         13   -1    0    0    0    0  0.00000000000E+00  0.00000000000E+00  0.74505805969E-08  0.10566000000E+00  0.10566000000E+00 0. -1.
     999900   -1    0    0    0    0 -0.00000000000E+00 -0.00000000000E+00 -0.74505805969E-08  0.93827000000E+00  0.93827000000E+00 0.  1.
     999902    2    1    2    0    0  0.14269652563E-01  0.65090067578E-02  0.17114657241E-01  0.10207157448E+01  0.10204517284E+01 0.  0.
     999903    2    3    3    0    0  0.52117379692E-01 -0.10664251051E+00  0.54073774566E-01  0.13189535084E+00  0.19584794196E-01 0.  0.
         14    1    1    2    0    0 -0.14269652563E-01 -0.65090067578E-02 -0.17114657241E-01  0.23214255227E-01  0.00000000000E+00 0.  1.
     999901    1    3    3    0    0 -0.37847727129E-01  0.11315151727E+00 -0.36959117325E-01  0.88882039393E+00  0.88000000000E+00 0.  1.
        -11    1    4    4    0    0  0.32166012049E-01 -0.71459966104E-01  0.45256608042E-01  0.90496413073E-01  0.51100000000E-03 0. -1.
         11    1    4    4    0    0  0.19951367643E-01 -0.35182544411E-01  0.88171665243E-02  0.41398937771E-01  0.51100000000E-03 0.  1.
</event>
<event>
 8    1  0.1101883E+005  0.1043930E+01  0.7957747E-01            NaN
         13   -1    0    0    0    0  0.00000000000E+00  0.00000000000E+00  0.74505805969E-08  0.10566000000E+00  0.10566000000E+00 0.  1.
     999900   -1    0    0    0    0 -0.00000000000E+00 -0.00000000000E+00 -0.74505805969E-08  0.93827000000E+00  0.93827000000E+00 0. -1.
     999902    2    1    2    0    0  0.12610034809E-02 -0.33917143529E-03 -0.23165610431E-01  0.10207276149E+01  0.10204638716E+01 0.  0.
     999903    2    3    3    0    0 -0.11390045385E-01 -0.25214456831E-01  0.12377235633E+00  0.12810810194E+00  0.18071735517E-01 0.  0.
         14    1    1    2    0    0 -0.12610034809E-02  0.33917143529E-03  0.23165610431E-01  0.23202385086E-01  0.00000000000E+00 0.  1.
     999901    1    3    3    0    0  0.12651048866E-01  0.24875285395E-01 -0.14693796676E+00  0.89261951297E+00  0.88000000000E+00 0. -1.
        -11    1    4    4    0    0 -0.64959501267E-02 -0.16612040529E-01  0.40612627470E-01  0.44359935636E-01  0.51100000000E-03 0.  1.
         11    1    4    4    0    0 -0.48940952581E-02 -0.86024163021E-02  0.83159728861E-01  0.83748166307E-01  0.51100000000E-03 0. -1.
</event>
<event>
 8    1  0.1101883E+005  0.1043930E+01  0.7957747E-01            NaN
         13   -1    0    0    0    0  0.00000000000E+00  0.00000000000E+00  0.74505805969E-08  0.10566000000E+00  0.10566000000E+00 0. -1.
     999900   -1    0    0    0    0 -0.00000000000E+00 -0.00000000000E+00 -0.74505805969E-08  0.93827000000E+00  0.93827000000E+00 0.  1.
     999902    2    1    2    0    0  0.79620679831E-02  0.10958366446E-01  0.19347862994E-01  0.10203117841E+01  0.10200383898E+01 0.  0.
     999903    2    3    3    0    0  0.38441482564E-01  0.11723589660E+00  0.44554907330E-01  0.13303544423E+00  0.22164986378E-01 0.  0.
         14    1    1    2    0    0 -0.79620679831E-02 -0.10958366446E-01 -0.19347862994E-01  0.23618215940E-01  0.00000000000E+00 0.  1.
     999901    1    3    3    0    0 -0.30479414581E-01 -0.10627753016E+00 -0.25207044336E-01  0.88727633983E+00  0.88000000000E+00 0.  1.
        -11    1    4    4    0    0  0.19763199952E-01  0.33975161295E-01  0.75571594999E-02  0.40028332941E-01  0.51100000000E-03 0. -1.
         11    1    4    4    0    0  0.18678282612E-01  0.83260735310E-01  0.36997747830E-01  0.93007111294E-01  0.51100000000E-03 0.  1.
</event>
<event>
 8    1  0.1101883E+005  0.1043930E+01  0.7957747E-01            NaN
         13   -1    0    0    0    0  0.00000000000E+00  0.00000000000E+00  0.74505805969E-08  0.10566000000E+00  0.10566000000E+00 0.  1.
     999900   -1    0    0    0    0 -0.00000000000E+00 -0.00000000000E+00 -0.74505805969E-08  0.93827000000E+00  0.93827000000E+00 0.  1.
     999902    2    1    2    0    0  0.11832770888E-01 -0.21028712443E-01 -0.17507102033E-02  0.10197373110E+01  0.10194502917E+01 0.  0.
     999903    2    3    3    0    0  0.36796790836E-01 -0.67867711659E-02  0.12332283899E+00  0.13042891238E+00  0.20077711285E-01 0.  0.
         14    1    1    2    0    0 -0.11832770888E-01  0.21028712443E-01  0.17507102033E-02  0.24192688980E-01  0.00000000000E+00 0.  1.
     999901    1    3    3    0    0 -0.24964019948E-01 -0.14241941277E-01 -0.12507354919E+00  0.88930839864E+00  0.88000000000E+00 0.  1.
        -11    1    4    4    0    0  0.33286332287E-01 -0.59921533790E-02  0.12193164304E+00  0.12653644738E+00  0.51100000000E-03 0. -1.
         11    1    4    4    0    0  0.35104585488E-02 -0.79461778688E-03  0.13911959472E-02  0.38924650048E-02  0.51100000000E-03 0.  1.
</event>
<event>
 8    1  0.1101883E+005  0.1043930E+01  0.7957747E-01            NaN
         13   -1    0    0    0    0  0.00000000000E+00  0.00000000000E+00  0.74505805969E-08  0.10566000000E+00  0.10566000000E+00 0.  1.
     999900   -1    0    0    0    0 -0.00000000000E+00 -0.00000000000E+00 -0.74505805969E-08  0.93827000000E+00  0.93827000000E+00 0.  1.
     999902    2    1    2    0    0 -0.63067918488E-02  0.15304023723E-01 -0.16983358764E-01  0.10202145358E+01  0.10199388589E+01 0.  0.
     999903    2    3    3    0    0 -0.42956080726E-01 -0.22129087802E-01  0.11738089407E+00  0.12847569478E+00  0.19819396002E-01 0.  0.
         14    1    1    2    0    0  0.63067918488E-02 -0.15304023723E-01  0.16983358764E-01  0.23715464163E-01  0.00000000000E+00 0. -1.
     999901    1    3    3    0    0  0.36649288877E-01  0.37433111525E-01 -0.13436425283E+00  0.89173884106E+00  0.88000000000E+00 0.  1.
        -11    1    4    4    0    0 -0.24371235575E-01 -0.24907883955E-02  0.45544851399E-01  0.51718040955E-01  0.51100000000E-03 0. -1.
         11    1    4    4    0    0 -0.18584845152E-01 -0.19638299406E-01  0.71836042671E-01  0.76757653823E-01  0.51100000000E-03 0.  1.
</event>
<event>
 8    1  0.1101883E+005  0.1043930E+01  0.7957747E-01            NaN
         13   -1    0    0    0    0  0.00000000000E+00  0.00000000000E+00  0.74505805969E-08  0.10566000000E+00  0.10566000000E+00 0.  1.
     999900   -1    0    0    0    0 -0.00000000000E+00 -0.00000000000E+00 -0.74505805969E-08  0.93827000000E+00  0.93827000000E+00 0.  1.
     999902    2    1    2    0    0 -0.22746490393E-01 -0.57252722484E-02  0.22184420425E-02  0.10203693750E+01  0.10200973279E+01 0.  0.
     999903    2    3    3    0    0 -0.27719660160E-01 -0.92604867374E-01 -0.87170588985E-01  0.13157063770E+00  0.19185413761E-01 0.  0.
         14    1    1    2    0    0  0.22746490393E-01  0.57252722484E-02 -0.22184420425E-02  0.23560625047E-01  0.00000000000E+00 0. -1.
     999901    1    3    3    0    0  0.49731697669E-02  0.86879595126E-01  0.89389031027E-01  0.88879873725E+00  0.88000000000E+00 0.  1.
        -11    1    4    4    0    0 -0.15531642979E-01 -0.57010817422E-01 -0.40576362859E-01  0.71681012692E-01  0.51100000000E-03 0. -1.
         11    1    4    4    0    0 -0.12188017181E-01 -0.35594049953E-01 -0.46594226126E-01  0.59889625012E-01  0.51100000000E-03 0.  1.
</event>
<event>
 8    1  0.1101883E+005  0.1043930E+01  0.7957747E-01            NaN
         13   -1    0    0    0    0  0.00000000000E+00  0.00000000000E+00  0.74505805969E-08  0.10566000000E+00  0.10566000000E+00 0. -1.
     999900   -1    0    0    0    0 -0.00000000000E+00 -0.00000000000E+00 -0.74505805969E-08  0.93827000000E+00  0.93827000000E+00 0.  1.
     999902    2    1    2    0    0 -0.74995543663E-03  0.24115605569E-01 -0.69664802005E-04  0.10198026355E+01  0.10195171826E+01 0.  0.
     999903    2    3    3    0    0  0.93586777383E-01  0.91466921680E-01  0.26274694472E-02  0.13219749046E+00  0.18563141615E-01 0.  0.
         14    1    1    2    0    0  0.74995543663E-03 -0.24115605569E-01  0.69664802005E-04  0.24127364512E-01  0.00000000000E+00 0.  1.
     999901    1    3    3    0    0 -0.94336732819E-01 -0.67351316111E-01 -0.26971342492E-02  0.88760514502E+00  0.88000000000E+00 0. -1.
        -11    1    4    4    0    0  0.74391760756E-01  0.62607396555E-01  0.56912154194E-02  0.97398517575E-01  0.51100000000E-03 0. -1.
         11    1    4    4    0    0  0.19195016627E-01  0.28859525125E-01 -0.30637459722E-02  0.34798972889E-01  0.51100000000E-03 0.  1.
</event>
<event>
 7    1  0.1101883E+005  0.1043930E+01  0.7957747E-01            NaN
         13   -1    0    0    0    0  0.00000000000E+00  0.00000000000E+00  0.74505805969E-08  0.10566000000E+00  0.10566000000E+00 0. -1.
     999900   -1    0    0    0    0 -0.00000000000E+00 -0.00000000000E+00 -0.74505805969E-08  0.93827000000E+00  0.93827000000E+00 0.  1.
     999903    2    1    2    0    0 -0.23525546186E-01 -0.78959897094E-01 -0.78929125898E-01  0.11595614990E+00  0.20685867429E-01 0.  0.
         14    1    1    2    0    0 -0.36450932594E-01  0.17108648930E-01  0.18154650685E-03  0.40266727137E-01  0.00000000000E+00 0.  1.
     999901    1    1    2    0    0  0.59976478780E-01  0.61851248164E-01  0.78747579391E-01  0.88770712297E+00  0.88000000000E+00 0. -1.
        -11    1    3    3    0    0 -0.62115124476E-02 -0.27558144474E-01 -0.40904023781E-01  0.49713524278E-01  0.51100000000E-03 0. -1.
         11    1    3    3    0    0 -0.17314033738E-01 -0.51401752620E-01 -0.38025102117E-01  0.66242625617E-01  0.51100000000E-03 0.  1.
</event>
<event>
 8    1  0.1101883E+005  0.1043930E+01  0.7957747E-01            NaN
         13   -1    0    0    0    0  0.00000000000E+00  0.00000000000E+00  0.74505805969E-08  0.10566000000E+00  0.10566000000E+00 0. -1.
     999900   -1    0    0    0    0 -0.00000000000E+00 -0.00000000000E+00 -0.74505805969E-08  0.93827000000E+00  0.93827000000E+00 0. -1.
     999902    2    1    2    0    0 -0.88991656318E-02  0.75526858320E-02  0.21198634747E-01  0.10197304065E+01  0.10194432213E+01 0.  0.
     999903    2    3    3    0    0  0.10023111079E+00 -0.42411319818E-01 -0.63166967609E-01  0.12758502932E+00  0.21044673698E-01 0.  0.
         14    1    1    2    0    0  0.88991656318E-02 -0.75526858320E-02 -0.21198634747E-01  0.24199593537E-01  0.00000000000E+00 0.  1.
     999901    1    3    3    0    0 -0.10913027642E+00  0.49964005650E-01  0.84365602356E-01  0.89214537714E+00  0.88000000000E+00 0.  1.
        -11    1    4    4    0    0  0.22353412268E-01 -0.46885400624E-03 -0.13970385282E-01  0.26369066158E-01  0.51100000000E-03 0. -1.
         11    1    4    4    0    0  0.77877698523E-01 -0.41942465812E-01 -0.49196582327E-01  0.10121596316E+00  0.51100000000E-03 0.  1.
</event>
<event>
 8    1  0.1101883E+005  0.1043930E+01  0.7957747E-01            NaN
         13   -1    0    0    0    0  0.00000000000E+00  0.00000000000E+00  0.74505805969E-08  0.10566000000E+00  0.10566000000E+00 0.  1.
     999900   -1    0    0    0    0 -0.00000000000E+00 -0.00000000000E+00 -0.74505805969E-08  0.93827000000E+00  0.93827000000E+00 0. -1.
     999902    2    1    2    0    0 -0.27079707280E-02  0.46729191890E-02  0.25962393840E-01  0.10174117954E+01  0.10170661465E+01 0.  0.
     999903    2    3    3    0    0 -0.56263674342E-01 -0.46257424298E-01 -0.10001602632E+00  0.12537330097E+00  0.20246202626E-01 0.  0.
         14    1    1    2    0    0  0.27079707280E-02 -0.46729191890E-02 -0.25962393840E-01  0.26518204561E-01  0.00000000000E+00 0. -1.
     999901    1    3    3    0    0  0.53555703614E-01  0.50930343487E-01  0.12597842016E+00  0.89203849447E+00  0.88000000000E+00 0.  1.
        -11    1    4    4    0    0 -0.23898115294E-01 -0.32309593488E-01 -0.57363117160E-01  0.70041545366E-01  0.51100000000E-03 0.  1.
         11    1    4    4    0    0 -0.32365559048E-01 -0.13947830810E-01 -0.42652909161E-01  0.55331755599E-01  0.51100000000E-03 0. -1.
</event>
<event>
 8    1  0.1101883E+005  0.1043930E+01  0.7957747E-01            NaN
         13   -1    0    0    0    0  0.00000000000E+00  0.00000000000E+00  0.74505805969E-08  0.10566000000E+00  0.10566000000E+00 0.  1.
     999900   -1    0    0    0    0 -0.00000000000E+00 -0.00000000000E+00 -0.74505805969E-08  0.93827000000E+00  0.93827000000E+00 0.  1.
     999902    2    1    2    0    0 -0.10019235882E-01 -0.16358318400E-01 -0.10382096712E-01  0.10221179024E+01  0.10218851398E+01 0.  0.
     999903    2    3    3    0    0  0.12070925314E+00 -0.19216719064E-01  0.42306408371E-01  0.13089728615E+00  0.20106248956E-01 0.  0.
         14    1    1    2    0    0  0.10019235882E-01  0.16358318400E-01  0.10382096712E-01  0.21812097576E-01  0.00000000000E+00 0. -1.
     999901    1    3    3    0    0 -0.13072848903E+00  0.28584006638E-02 -0.52688505083E-01  0.89122061627E+00  0.88000000000E+00 0. -1.
        -11    1    4    4    0    0  0.24392240562E-01 -0.95517321035E-03  0.77479684602E-03  0.24428573160E-01  0.51100000000E-03 0. -1.
         11    1    4    4    0    0  0.96317012582E-01 -0.18261545853E-01  0.41531611525E-01  0.10646871299E+00  0.51100000000E-03 0.  1.
</event>
<event>
 8    1  0.1101883E+005  0.1043930E+01  0.7957747E-01            NaN
         13   -1    0    0    0    0  0.00000000000E+00  0.00000000000E+00  0.74505805969E-08  0.10566000000E+00  0.10566000000E+00 0.  1.
     999900   -1    0    0    0    0 -0.00000000000E+00 -0.00000000000E+00 -0.74505805969E-08  0.93827000000E+00  0.93827000000E+00 0. -1.
     999902    2    1    2    0    0  0.51426827195E-02  0.16562131941E-01 -0.16130842859E-01  0.10202455010E+01  0.10199705520E+01 0.  0.
     999903    2    3    3    0    0  0.68638798368E-01  0.59779507211E-01 -0.95658739184E-01  0.13332713696E+00  0.18456894241E-01 0.  0.
         14    1    1    2    0    0 -0.51426827195E-02 -0.16562131941E-01  0.16130842859E-01  0.23684498967E-01  0.00000000000E+00 0. -1.
     999901    1    3    3    0    0 -0.63496115648E-01 -0.43217375270E-01  0.79527896325E-01  0.88691836407E+00  0.88000000000E+00 0.  1.
        -11    1    4    4    0    0  0.25301974652E-01  0.32231007651E-01 -0.49652919208E-01  0.64379354473E-01  0.51100000000E-03 0.  1.
         11    1    4    4    0    0  0.43336823716E-01  0.27548499560E-01 -0.46005819976E-01  0.68947782492E-01  0.51100000000E-03 0. -1.
</event>
<event>
 8    1  0.1101883E+005  0.1043930E+01  0.7957747E-01            NaN
         13   -1    0    0    0    0  0.00000000000E+00  0.00000000000E+00  0.74505805969E-08  0.10566000000E+00  0.10566000000E+00 0.  1.
     999900   -1    0    0    0    0 -0.00000000000E+00 -0.00000000000E+00 -0.74505805969E-08  0.93827000000E+00  0.93827000000E+00 0. -1.
     999902    2    1    2    0    0  0.17365964513E-01  0.31850376921E-02  0.33825583327E-01  0.10057738566E+01  0.10050498293E+01 0.  0.
     999903    2    3    3    0    0  0.11590221833E+00  0.17584202255E-01 -0.78436547929E-02  0.11917752535E+00  0.19980771904E-01 0.  0.
         14    1    1    2    0    0 -0.17365964513E-01 -0.31850376921E-02 -0.33825583327E-01  0.38156143358E-01  0.00000000000E+00 0. -1.
     999901    1    3    3    0    0 -0.98536253814E-01 -0.14399164563E-01  0.41669238120E-01  0.88659633129E+00  0.88000000000E+00 0.  1.
        -11    1    4    4    0    0  0.58057055476E-01  0.17086653303E-01 -0.97231595007E-02  0.61297441736E-01  0.51100000000E-03 0. -1.
         11    1    4    4    0    0  0.57845162851E-01  0.49754895181E-03  0.18795047078E-02  0.57880083614E-01  0.51100000000E-03 0.  1.
</event>
<event>
 8    1  0.1101883E+005  0.1043930E+01  0.7957747E-01            NaN
         13   -1    0    0    0    0  0.00000000000E+00  0.00000000000E+00  0.74505805969E-08  0.10566000000E+00  0.10566000000E+00 0.  1.
     999900   -1    0    0    0    0 -0.00000000000E+00 -0.00000000000E+00 -0.74505805969E-08  0.93827000000E+00  0.93827000000E+00 0.  1.
     999902    2    1    2    0    0 -0.16357551811E-01 -0.81558561056E-02  0.13382949303E-01  0.10212762846E+01  0.10210250039E+01 0.  0.
     999903    2    3    3    0    0  0.71622380355E-01  0.74029288562E-01 -0.74467916318E-01  0.12874469351E+00  0.20484741019E-01 0.  0.
         14    1    1    2    0    0  0.16357551811E-01  0.81558561056E-02 -0.13382949303E-01  0.22653715415E-01  0.00000000000E+00 0. -1.
     999901    1    3    3    0    0 -0.87979932166E-01 -0.82185144668E-01  0.87850865621E-01  0.89253159107E+00  0.88000000000E+00 0.  1.
        -11    1    4    4    0    0  0.46003890213E-01  0.33298868534E-01 -0.43235514287E-01  0.71377471074E-01  0.51100000000E-03 0. -1.
         11    1    4    4    0    0  0.25618490143E-01  0.40730420028E-01 -0.31232402032E-01  0.57367222440E-01  0.51100000000E-03 0.  1.
</event>
<event>
 8    1  0.1101883E+005  0.1043930E+01  0.7957747E-01            NaN
         13   -1    0    0    0    0  0.00000000000E+00  0.00000000000E+00  0.74505805969E-08  0.10566000000E+00  0.10566000000E+00 0.  1.
     999900   -1    0    0    0    0 -0.00000000000E+00 -0.00000000000E+00 -0.74505805969E-08  0.93827000000E+00  0.93827000000E+00 0.  1.
     999902    2    1    2    0    0 -0.78127972971E-03  0.18009985459E-01  0.14533768728E-01  0.10207739985E+01  0.10205113206E+01 0.  0.
     999903    2    3    3    0    0  0.69420644203E-01 -0.26582473687E-01 -0.10355432249E+00  0.12899959042E+00  0.19787442303E-01 0.  0.
         14    1    1    2    0    0  0.78127972971E-03 -0.18009985459E-01 -0.14533768728E-01  0.23156001548E-01  0.00000000000E+00 0.  1.
     999901    1    3    3    0    0 -0.70201923933E-01  0.44592459145E-01  0.11808809122E+00  0.89177440803E+00  0.88000000000E+00 0. -1.
        -11    1    4    4    0    0  0.31191731924E-01 -0.13720407941E-01 -0.31424204133E-01  0.46356396116E-01  0.51100000000E-03 0. -1.
         11    1    4    4    0    0  0.38228912279E-01 -0.12862065746E-01 -0.72130118357E-01  0.82643194302E-01  0.51100000000E-03 0.  1.
</event>
<event>
 8    1  0.1101883E+005  0.1043930E+01  0.7957747E-01            NaN
         13   -1    0    0    0    0  0.00000000000E+00  0.00000000000E+00  0.74505805969E-08  0.10566000000E+00  0.10566000000E+00 0.  1.
     999900   -1    0    0    0    0 -0.00000000000E+00 -0.00000000000E+00 -0.74505805969E-08  0.93827000000E+00  0.93827000000E+00 0. -1.
     999902    2    1    2    0    0 -0.26921238395E-02 -0.22094727395E-01 -0.10191078501E-01  0.10194497510E+01  0.10191557841E+01 0.  0.
     999903    2    3    3    0    0 -0.34110861863E-01 -0.43539703420E-01 -0.11800984550E+00  0.13205361027E+00  0.21273826153E-01 0.  0.
         14    1    1    2    0    0  0.26921238395E-02  0.22094727395E-01  0.10191078501E-01  0.24480248987E-01  0.00000000000E+00 0. -1.
     999901    1    3    3    0    0  0.31418738023E-01  0.21444976025E-01  0.10781876700E+00  0.88739614075E+00  0.88000000000E+00 0.  1.
        -11    1    4    4    0    0 -0.17125030658E-01 -0.30324709211E-01 -0.91495200860E-01  0.97900396144E-01  0.51100000000E-03 0.  1.
         11    1    4    4    0    0 -0.16985831204E-01 -0.13214994209E-01 -0.26514644637E-01  0.34153214122E-01  0.51100000000E-03 0. -1.
</event>
<event>
 8    1  0.1101883E+005  0.1043930E+01  0.7957747E-01            NaN
         13   -1    0    0    0    0  0.00000000000E+00  0.00000000000E+00  0.74505805969E-08  0.10566000000E+00  0.10566000000E+00 0. -1.
     999900   -1    0    0    0    0 -0.00000000000E+00 -0.00000000000E+00 -0.74505805969E-08  0.93827000000E+00  0.93827000000E+00 0. -1.
     999902    2    1    2    0    0  0.11592369874E-02 -0.80478469745E-02 -0.22535365491E-01  0.10199726552E+01  0.10196912587E+01 0.  0.
     999903    2    3    3    0    0  0.10009426479E-01 -0.34999436562E-01  0.12093515374E+00  0.12790286875E+00  0.20215915693E-01 0.  0.
         14    1    1    2    0    0 -0.11592369874E-02  0.80478469745E-02  0.22535365491E-01  0.23957344785E-01  0.00000000000E+00 0. -1.
     999901    1    3    3    0    0 -0.88501894917E-02  0.26951589587E-01 -0.14347051923E+00  0.89206978646E+00  0.88000000000E+00 0. -1.
        -11    1    4    4    0    0  0.65600241404E-02 -0.28202432565E-01  0.61483756818E-01  0.67962670583E-01  0.51100000000E-03 0.  1.
         11    1    4    4    0    0  0.34494023388E-02 -0.67970039964E-02  0.59451396918E-01  0.59940198168E-01  0.51100000000E-03 0. -1.
</event>
<event>
 8    1  0.1101883E+005  0.1043930E+01  0.7957747E-01            NaN
         13   -1    0    0    0    0  0.00000000000E+00  0.00000000000E+00  0.74505805969E-08  0.10566000000E+00  0.10566000000E+00 0.  1.
     999900   -1    0    0    0    0 -0.00000000000E+00 -0.00000000000E+00 -0.74505805969E-08  0.93827000000E+00  0.93827000000E+00 0. -1.
     999902    2    1    2    0    0 -0.81209820522E-02  0.14179232831E-01 -0.15685651020E-01  0.10212795995E+01  0.10210283932E+01 0.  0.
     999903    2    3    3    0    0 -0.78940520586E-01 -0.31097616241E-01  0.96640230089E-01  0.13016652946E+00  0.20132654902E-01 0.  0.
         14    1    1    2    0    0  0.81209820522E-02 -0.14179232831E-01  0.15685651020E-01  0.22650400462E-01  0.00000000000E+00 0.  1.
     999901    1    3    3    0    0  0.70819538534E-01  0.45276849071E-01 -0.11232588111E+00  0.89111307008E+00  0.88000000000E+00 0. -1.
        -11    1    4    4    0    0 -0.43502440361E-01 -0.18368920479E-01  0.68297578942E-01  0.83034330052E-01  0.51100000000E-03 0. -1.
         11    1    4    4    0    0 -0.35438080225E-01 -0.12728695762E-01  0.28342651148E-01  0.47132199407E-01  0.51100000000E-03 0.  1.
</event>
<event>
 8    1  0.1101883E+005  0.1043930E+01  0.7957747E-01            NaN
         13   -1    0    0    0    0  0.00000000000E+00  0.00000000000E+00  0.74505805969E-08  0.10566000000E+00  0.10566000000E+00 0. -1.
     999900   -1    0    0    0    0 -0.00000000000E+00 -0.00000000000E+00 -0.74505805969E-08  0.93827000000E+00  0.93827000000E+00 0.  1.
     999902    2    1    2    0    0  0.86982104925E-02  0.20725627240E-01  0.96141188768E-02  0.10194832871E+01  0.10191901348E+01 0.  0.
     999903    2    3    3    0    0 -0.82428270974E-02 -0.48436617845E-01 -0.11615848613E+00  0.12769342223E+00  0.19969127038E-01 0.  0.
         14    1    1    2    0    0 -0.86982104925E-02 -0.20725627240E-01 -0.96141188768E-02  0.24446712909E-01  0.00000000000E+00 0.  1.
     999901    1    3    3    0    0  0.16941037590E-01  0.69162245085E-01  0.12577260500E+00  0.89178986486E+00  0.88000000000E+00 0. -1.
        -11    1    4    4    0    0 -0.68760863341E-02 -0.18472878595E-01 -0.25714863049E-01  0.32404368679E-01  0.51100000000E-03 0.  1.
         11    1    4    4    0    0 -0.13667407633E-02 -0.29963739250E-01 -0.90443623078E-01  0.95289053551E-01  0.51100000000E-03 0. -1.
</event>
<event>
 8    1  0.1101883E+005  0.1043930E+01  0.7957747E-01            NaN
         13   -1    0    0    0    0  0.00000000000E+00  0.00000000000E+00  0.74505805969E-08  0.10566000000E+00  0.10566000000E+00 0.  1.
     999900   -1    0    0    0    0 -0.00000000000E+00 -0.00000000000E+00 -0.74505805969E-08  0.93827000000E+00  0.93827000000E+00 0.  1.
     999902    2    1    2    0    0  0.75014848375E-02  0.12635328696E-01 -0.18737077274E-01  0.10201181989E+01  0.10198402512E+01 0.  0.
     999903    2    3    3    0    0  0.53934540345E-01  0.95405197960E-01 -0.73094390899E-01  0.13334788060E+00  0.20682863437E-01 0.  0.
         14    1    1    2    0    0 -0.75014848375E-02 -0.12635328696E-01  0.18737077274E-01  0.23811801083E-01  0.00000000000E+00 0.  1.
     999901    1    3    3    0    0 -0.46433055507E-01 -0.82769869264E-01  0.54357313625E-01  0.88677031832E+00  0.88000000000E+00 0. -1.
        -11    1    4    4    0    0  0.52820386053E-02  0.18865436739E-01 -0.21136041434E-01  0.28823566811E-01  0.51100000000E-03 0. -1.
         11    1    4    4    0    0  0.48652501739E-01  0.76539761221E-01 -0.51958349465E-01  0.10452431379E+00  0.51100000000E-03 0.  1.
</event>
<event>
 8    1  0.1101883E+005  0.1043930E+01  0.7957747E-01            NaN
         13   -1    0    0    0    0  0.00000000000E+00  0.00000000000E+00  0.74505805969E-08  0.10566000000E+00  0.10566000000E+00 0. -1.
     999900   -1    0    0    0    0 -0.00000000000E+00 -0.00000000000E+00 -0.74505805969E-08  0.93827000000E+00  0.93827000000E+00 0. -1.
     999902    2    1    2    0    0  0.98628227170E-02  0.32151186533E-02  0.21314869418E-01  0.10202248124E+01  0.10199493772E+01 0.  0.
     999903    2    3    3    0    0  0.46211680068E-01 -0.10486420715E+00 -0.57244135289E-01  0.12939716505E+00  0.18295190136E-01 0.  0.
         14    1    1    2    0    0 -0.98628227170E-02 -0.32151186533E-02 -0.21314869418E-01  0.23705187580E-01  0.00000000000E+00 0.  1.
     999901    1    3    3    0    0 -0.36348857351E-01  0.10807932580E+00  0.78559004708E-01  0.89082764737E+00  0.88000000000E+00 0.  1.
        -11    1    4    4    0    0  0.11946661548E-01 -0.43722209414E-01 -0.15981762653E-01  0.48062794099E-01  0.51100000000E-03 0.  1.
         11    1    4    4    0    0  0.34265018520E-01 -0.61141997736E-01 -0.41262372637E-01  0.81334370951E-01  0.51100000000E-03 0. -1.
</event>
<event>
 8    1  0.1101883E+005  0.1043930E+01  0.7957747E-01            NaN
         13   -1    0    0    0    0  0.00000000000E+00  0.00000000000E+00  0.74505805969E-08  0.10566000000E+00  0.10566000000E+00 0. -1.
     999900   -1    0    0    0    0 -0.00000000000E+00 -0.00000000000E+00 -0.74505805969E-08  0.93827000000E+00  0.93827000000E+00 0.  1.
     999902    2    1    2    0    0 -0.10992463288E-01  0.14676316725E-01  0.14733077300E-01  0.10204078384E+01  0.10201366891E+01 0.  0.
     999903    2    3    3    0    0 -0.11814825149E+00  0.50368861018E-01 -0.24702867005E-01  0.13231352221E+00  0.20015120060E-01 0.  0.
         14    1    1    2    0    0  0.10992463288E-01 -0.14676316725E-01 -0.14733077300E-01  0.23522161645E-01  0.00000000000E+00 0.  1.
     999901    1    3    3    0    0  0.10715578820E+00 -0.35692544293E-01  0.39435944305E-01  0.88809431614E+00  0.88000000000E+00 0. -1.
        -11    1    4    4    0    0 -0.39569706928E-01  0.20572585061E-01  0.40659333633E-03  0.44602907995E-01  0.51100000000E-03 0.  1.
         11    1    4    4    0    0 -0.78578544563E-01  0.29796275956E-01 -0.25109460341E-01  0.87710614216E-01  0.51100000000E-03 0. -1.
</event>
<event>
 8    1  0.1101883E+005  0.1043930E+01  0.7957747E-01            NaN
         13   -1    0    0    0    0  0.00000000000E+00  0.00000000000E+00  0.74505805969E-08  0.10566000000E+00  0.10566000000E+00 0.  1.
     999900   -1    0    0    0    0 -0.00000000000E+00 -0.00000000000E+00 -0.74505805969E-08  0.93827000000E+00  0.93827000000E+00 0. -1.
     999902    2    1    2    0    0 -0.20573474161E-01  0.82120821325E-02 -0.10716155685E-01  0.10193222345E+01  0.10190251594E+01 0.  0.
     999903    2    3    3    0    0  0.67480559012E-01 -0.36102009124E-01  0.99437175351E-01  0.12699325489E+00  0.19558988715E-01 0.  0.
         14    1    1    2    0    0  0.20573474161E-01 -0.82120821325E-02  0.10716155685E-01  0.24607765535E-01  0.00000000000E+00 0. -1.
     999901    1    3    3    0    0 -0.88054033173E-01  0.44314091256E-01 -0.11015333104E+00  0.89232897957E+00  0.88000000000E+00 0. -1.
        -11    1    4    4    0    0  0.33276683723E-01 -0.93098098321E-02  0.54106042387E-01  0.64200741293E-01  0.51100000000E-03 0.  1.
         11    1    4    4    0    0  0.34203875289E-01 -0.26792199292E-01  0.45331132964E-01  0.62792513602E-01  0.51100000000E-03 0. -1.
</event>
<event>
 8    1  0.1101883E+005  0.1043930E+01  0.7957747E-01            NaN
         13   -1    0    0    0    0  0.00000000000E+00  0.00000000000E+00  0.74505805969E-08  0.10566000000E+00  0.10566000000E+00 0.  1.
     999900   -1    0    0    0    0 -0.00000000000E+00 -0.00000000000E+00 -0.74505805969E-08  0.93827000000E+00  0.93827000000E+00 0. -1.
     999902    2    1    2    0    0 -0.39457167657E-02  0.19946521956E-02 -0.24004719538E-01  0.10195215204E+01  0.10192292954E+01 0.  0.
     999903    2    3    3    0    0 -0.76317722198E-01 -0.61581341821E-02  0.10028848784E+00  0.12780801452E+00  0.20366404823E-01 0.  0.
         14    1    1    2    0    0  0.39457167657E-02 -0.19946521956E-02  0.24004719538E-01  0.24408479639E-01  0.00000000000E+00 0.  1.
     999901    1    3    3    0    0  0.72372005432E-01  0.81527863777E-02 -0.12429320737E+00  0.89171350584E+00  0.88000000000E+00 0. -1.
        -11    1    4    4    0    0 -0.28886399862E-01  0.28355652453E-02  0.24694494375E-01  0.38112251320E-01  0.51100000000E-03 0. -1.
         11    1    4    4    0    0 -0.47431322336E-01 -0.89936994274E-02  0.75593993461E-01  0.89695763202E-01  0.51100000000E-03 0.  1.
</event>
<event>
 8    1  0.1101883E+005  0.1043930E+01  0.7957747E-01            NaN
         13   -1    0    0    0    0  0.00000000000E+00  0.00000000000E+00  0.74505805969E-08  0.10566000000E+00  0.10566000000E+00 0.  1.
     999900   -1    0    0    0    0 -0.00000000000E+00 -0.00000000000E+00 -0.74505805969E-08  0.93827000000E+00  0.93827000000E+00 0. -1.
     999902    2    1    2    0    0  0.15374988483E-01  0.96909258559E-02  0.14253331663E-01  0.10208332085E+01  0.10205718876E+01 0.  0.
     999903    2    3    3    0    0  0.95254651555E-01 -0.72482487633E-01 -0.49680454092E-01  0.13110248550E+00  0.19812988916E-01 0.  0.
         14    1    1    2    0    0 -0.15374988483E-01 -0.96909258559E-02 -0.14253331663E-01  0.23096791515E-01  0.00000000000E+00 0. -1.
     999901    1    3    3    0    0 -0.79879663072E-01  0.82173413489E-01  0.63933785756E-01  0.88973072298E+00  0.88000000000E+00 0.  1.
        -11    1    4    4    0    0  0.76948573491E-01 -0.58548349260E-01 -0.48210456583E-01  0.10804397905E+00  0.51100000000E-03 0. -1.
         11    1    4    4    0    0  0.18306078065E-01 -0.13934138373E-01 -0.14699975096E-02  0.23058506456E-01  0.51100000000E-03 0.  1.
</event>
<event>
 8    1  0.1101883E+005  0.1043930E+01  0.7957747E-01            NaN
         13   -1    0    0    0    0  0.00000000000E+00  0.00000000000E+00  0.74505805969E-08  0.10566000000E+00  0.10566000000E+00 0. -1.
     999900   -1    0    0    0    0 -0.00000000000E+00 -0.00000000000E+00 -0.74505805969E-08  0.93827000000E+00  0.93827000000E+00 0.  1.
     999902    2    1    2    0    0 -0.23193065735E-01 -0.14195564000E-02  0.11082185738E-01  0.10181861021E+01  0.10178605947E+01 0.  0.
     999903    2    3    3    0    0  0.91038557774E-01  0.82017686090E-01 -0.23318959160E-01  0.12622529802E+00  0.19342496476E-01 0.  0.
         14    1    1    2    0    0  0.23193065735E-01  0.14195564000E-02 -0.11082185738E-01  0.25743897904E-01  0.00000000000E+00 0. -1.
     999901    1    3    3    0    0 -0.11423162351E+00 -0.83437242490E-01  0.34401144898E-01  0.89196080408E+00  0.88000000000E+00 0. -1.
        -11    1    4    4    0    0  0.39411991781E-01  0.40381391116E-01 -0.16632546909E-02  0.56453426661E-01  0.51100000000E-03 0.  1.
         11    1    4    4    0    0  0.51626565993E-01  0.41636294975E-01 -0.21655704469E-01  0.69771871356E-01  0.51100000000E-03 0. -1.
</event>
<event>
 8    1  0.1101883E+005  0.1043930E+01  0.7957747E-01            NaN
         13   -1    0    0    0    0  0.00000000000E+00  0.00000000000E+00  0.74505805969E-08  0.10566000000E+00  0.10566000000E+00 0.  1.
     999900   -1    0    0    0    0 -0.00000000000E+00 -0.00000000000E+00 -0.74505805969E-08  0.93827000000E+00  0.93827000000E+00 0. -1.
     999902    2    1    2    0    0 -0.16225375200E-01 -0.92204104833E-02  0.12827555649E-01  0.10212843613E+01  0.10210332618E+01 0.  0.
     999903    2    3    3    0    0  0.12743891357E+00  0.10170532084E-02 -0.61948548486E-02  0.12937288268E+00  0.21383532343E-01 0.  0.
         14    1    1    2    0    0  0.16225375200E-01  0.92204104833E-02 -0.12827555649E-01  0.22645638737E-01  0.00000000000E+00 0.  1.
     999901    1    3    3    0    0 -0.14366428877E+00 -0.10237463692E-01  0.19022410498E-01  0.89191147859E+00  0.88000000000E+00 0.  1.
        -11    1    4    4    0    0  0.36506913700E-01 -0.65497164150E-02 -0.86641561878E-02  0.38091761005E-01  0.51100000000E-03 0. -1.
         11    1    4    4    0    0  0.90931999875E-01  0.75667696234E-02  0.24693013392E-02  0.91281121673E-01  0.51100000000E-03 0.  1.
</event>
<event>
 8    1  0.1101883E+005  0.1043930E+01  0.7957747E-01            NaN
         13   -1    0    0    0    0  0.00000000000E+00  0.00000000000E+00  0.74505805969E-08  0.10566000000E+00  0.10566000000E+00 0.  1.
     999900   -1    0    0    0    0 -0.00000000000E+00 -0.00000000000E+00 -0.74505805969E-08  0.93827000000E+00  0.93827000000E+00 0. -1.
     999902    2    1    2    0    0  0.75461593265E-02  0.22021212645E-01 -0.82412001288E-02  0.10192359581E+01  0.10189367706E+01 0.  0.
     999903    2    3    3    0    0 -0.11233018237E-01 -0.11759356694E+00 -0.43668613575E-01  0.12732786538E+00  0.18735255740E-01 0.  0.
         14    1    1    2    0    0 -0.75461593265E-02 -0.22021212645E-01  0.82412001288E-02  0.24694041923E-01  0.00000000000E+00 0.  1.
     999901    1    3    3    0    0  0.18779177563E-01  0.13961477958E+00  0.35427413446E-01  0.89190809269E+00  0.88000000000E+00 0.  1.
        -11    1    4    4    0    0 -0.15178319539E-02 -0.42291896917E-01 -0.65961079011E-02  0.42833142764E-01  0.51100000000E-03 0. -1.
         11    1    4    4    0    0 -0.97151862830E-02 -0.75301670022E-01 -0.37072505673E-01  0.84494722619E-01  0.51100000000E-03 0.  1.
</event>
<event>
 8    1  0.1101883E+005  0.1043930E+01  0.7957747E-01            NaN
         13   -1    0    0    0    0  0.00000000000E+00  0.00000000000E+00  0.74505805969E-08  0.10566000000E+00  0.10566000000E+00 0. -1.
     999900   -1    0    0    0    0 -0.00000000000E+00 -0.00000000000E+00 -0.74505805969E-08  0.93827000000E+00  0.93827000000E+00 0. -1.
     999902    2    1    2    0    0 -0.15186363636E-01  0.16244987469E-01  0.51963518353E-02  0.10210930271E+01  0.10208376182E+01 0.  0.
     999903    2    3    3    0    0  0.37462813536E-01  0.15820369153E-01 -0.12218426341E+00  0.13036414732E+00  0.20299512392E-01 0.  0.
         14    1    1    2    0    0  0.15186363636E-01 -0.16244987469E-01 -0.51963518353E-02  0.22836972889E-01  0.00000000000E+00 0.  1.
     999901    1    3    3    0    0 -0.52649177171E-01  0.42461831627E-03  0.12738061524E+00  0.89072887979E+00  0.88000000000E+00 0.  1.
        -11    1    4    4    0    0  0.26881486034E-01  0.53194095217E-02 -0.53880606830E-01  0.60450734673E-01  0.51100000000E-03 0. -1.
         11    1    4    4    0    0  0.10581327501E-01  0.10500959632E-01 -0.68303656577E-01  0.69913412645E-01  0.51100000000E-03 0.  1.
</event>
<event>
 8    1  0.1101883E+005  0.1043930E+01  0.7957747E-01            NaN
         13   -1    0    0    0    0  0.00000000000E+00  0.00000000000E+00  0.74505805969E-08  0.10566000000E+00  0.10566000000E+00 0.  1.
     999900   -1    0    0    0    0 -0.00000000000E+00 -0.00000000000E+00 -0.74505805969E-08  0.93827000000E+00  0.93827000000E+00 0. -1.
     999902    2    1    2    0    0 -0.11547753198E-01  0.31418421900E-02  0.20485392602E-01  0.10202050535E+01  0.10199291535E+01 0.  0.
     999903    2    3    3    0    0  0.12493778982E+00 -0.26674547697E-01 -0.27328700333E-02  0.12888221172E+00  0.16798008784E-01 0.  0.
         14    1    1    2    0    0  0.11547753198E-01 -0.31418421900E-02 -0.20485392602E-01  0.23724946498E-01  0.00000000000E+00 0. -1.
     999901    1    3    3    0    0 -0.13648554302E+00  0.29816389887E-01  0.23218262635E-01  0.89132284178E+00  0.88000000000E+00 0.  1.
        -11    1    4    4    0    0  0.44144798018E-01 -0.17647303276E-01 -0.18456201441E-02  0.47580016180E-01  0.51100000000E-03 0. -1.
         11    1    4    4    0    0  0.80792991805E-01 -0.90272444210E-02 -0.88724988918E-03  0.81302195542E-01  0.51100000000E-03 0.  1.
</event>
<event>
 8    1  0.1101883E+005  0.1043930E+01  0.7957747E-01            NaN
         13   -1    0    0    0    0  0.00000000000E+00  0.00000000000E+00  0.74505805969E-08  0.10566000000E+00  0.10566000000E+00 0.  1.
     999900   -1    0    0    0    0 -0.00000000000E+00 -0.00000000000E+00 -0.74505805969E-08  0.93827000000E+00  0.93827000000E+00 0.  1.
     999902    2    1    2    0    0 -0.20118828453E-01 -0.84246791180E-03 -0.22738662904E-01  0.10135569231E+01  0.10131017286E+01 0.  0.
     999903    2    3    3    0    0  0.21510176569E-01 -0.11642247433E+00 -0.34622341324E-01  0.12494399624E+00  0.19885056025E-01 0.  0.
         14    1    1    2    0    0  0.20118828453E-01  0.84246791180E-03  0.22738662904E-01  0.30373076913E-01  0.00000000000E+00 0.  1.
     999901    1    3    3    0    0 -0.41629005021E-01  0.11558000642E+00  0.11883678420E-01  0.88861292684E+00  0.88000000000E+00 0. -1.
        -11    1    4    4    0    0  0.20596092132E-01 -0.71981647206E-01 -0.28307395942E-01  0.80044527181E-01  0.51100000000E-03 0. -1.
         11    1    4    4    0    0  0.91408443699E-03 -0.44440827124E-01 -0.63149453820E-02  0.44899469061E-01  0.51100000000E-03 0.  1.
</event>
<event>
 8    1  0.1101883E+005  0.1043930E+01  0.7957747E-01            NaN
         13   -1    0    0    0    0  0.00000000000E+00  0.00000000000E+00  0.74505805969E-08  0.10566000000E+00  0.10566000000E+00 0.  1.
     999900   -1    0    0    0    0 -0.00000000000E+00 -0.00000000000E+00 -0.74505805969E-08  0.93827000000E+00  0.93827000000E+00 0. -1.
     999902    2    1    2    0    0  0.11116001000E-01  0.12187727055E-01 -0.17298871899E-01  0.10200269220E+01  0.10197468139E+01 0.  0.
     999903    2    3    3    0    0 -0.10517337649E+00  0.65504033044E-01  0.33381272095E-01  0.12933375104E+00  0.16145970481E-01 0.  0.
         14    1    1    2    0    0 -0.11116001000E-01 -0.12187727055E-01  0.17298871899E-01  0.23903078002E-01  0.00000000000E+00 0.  1.
     999901    1    3    3    0    0  0.11628937749E+00 -0.53316305989E-01 -0.50680143994E-01  0.89069317096E+00  0.88000000000E+00 0. -1.
        -11    1    4    4    0    0 -0.67932011306E-01  0.44237840965E-01  0.13994279020E-01  0.82266917407E-01  0.51100000000E-03 0. -1.
         11    1    4    4    0    0 -0.37241365186E-01  0.21266192079E-01  0.19386993075E-01  0.47066833630E-01  0.51100000000E-03 0.  1.
</event>
<event>
 8    1  0.1101883E+005  0.1043930E+01  0.7957747E-01            NaN
         13   -1    0    0    0    0  0.00000000000E+00  0.00000000000E+00  0.74505805969E-08  0.10566000000E+00  0.10566000000E+00 0.  1.
     999900   -1    0    0    0    0 -0.00000000000E+00 -0.00000000000E+00 -0.74505805969E-08  0.93827000000E+00  0.93827000000E+00 0.  1.
     999902    2    1    2    0    0 -0.52732155516E-02 -0.21138681996E-01  0.64455922865E-02  0.10212100454E+01  0.10209572765E+01 0.  0.
     999903    2    3    3    0    0  0.81905832477E-01  0.10723766969E-01 -0.98500524541E-01  0.13012694626E+00  0.20176824244E-01 0.  0.
         14    1    1    2    0    0  0.52732155516E-02  0.21138681996E-01 -0.64455922865E-02  0.22719954637E-01  0.00000000000E+00 0. -1.
     999901    1    3    3    0    0 -0.87179048029E-01 -0.31862448965E-01  0.10494611683E+00  0.89108309910E+00  0.88000000000E+00 0. -1.
        -11    1    4    4    0    0  0.21686817500E-01  0.11758428790E-01 -0.25439043675E-01  0.35439875353E-01  0.51100000000E-03 0. -1.
         11    1    4    4    0    0  0.60219014977E-01 -0.10346618213E-02 -0.73061480866E-01  0.94687070908E-01  0.51100000000E-03 0.  1.
</event>
<event>
 8    1  0.1101883E+005  0.1043930E+01  0.7957747E-01            NaN
         13   -1    0    0    0    0  0.00000000000E+00  0.00000000000E+00  0.74505805969E-08  0.10566000000E+00  0.10566000000E+00 0.  1.
     999900   -1    0    0    0    0 -0.00000000000E+00 -0.00000000000E+00 -0.74505805969E-08  0.93827000000E+00  0.93827000000E+00 0. -1.
     999902    2    1    2    0    0  0.65425717491E-02 -0.16111656507E-01  0.14778677076E-01  0.10211089567E+01  0.10208539080E+01 0.  0.
     999903    2    3    3    0    0  0.93126843142E-02  0.11935105389E+00 -0.43102870208E-01  0.12886006042E+00  0.20387682471E-01 0.  0.
         14    1    1    2    0    0 -0.65425717491E-02  0.16111656507E-01 -0.14778677076E-01  0.22821043284E-01  0.00000000000E+00 0. -1.
     999901    1    3    3    0    0 -0.27701125652E-02 -0.13546271040E+00  0.57881547284E-01  0.89224889630E+00  0.88000000000E+00 0.  1.
        -11    1    4    4    0    0  0.13583871110E-02  0.36182804564E-01 -0.23090751882E-01  0.42947462151E-01  0.51100000000E-03 0.  1.
         11    1    4    4    0    0  0.79542972032E-02  0.83168249325E-01 -0.20012118326E-01  0.85912598266E-01  0.51100000000E-03 0. -1.
</event>
<event>
 8    1  0.1101883E+005  0.1043930E+01  0.7957747E-01            NaN
         13   -1    0    0    0    0  0.00000000000E+00  0.00000000000E+00  0.74505805969E-08  0.10566000000E+00  0.10566000000E+00 0.  1.
     999900   -1    0    0    0    0 -0.00000000000E+00 -0.00000000000E+00 -0.74505805969E-08  0.93827000000E+00  0.93827000000E+00 0. -1.
     999902    2    1    2    0    0  0.22061985365E-01  0.45018947529E-02 -0.13442642387E-02  0.10213732870E+01  0.10211241776E+01 0.  0.
     999903    2    3    3    0    0  0.30132199686E-01  0.12272997385E+00  0.34554140786E-01  0.13270478721E+00  0.21118143008E-01 0.  0.
         14    1    1    2    0    0 -0.22061985365E-01 -0.45018947529E-02  0.13442642387E-02  0.22556712991E-01  0.00000000000E+00 0.  1.
     999901    1    3    3    0    0 -0.80702143212E-02 -0.11822807910E+00 -0.35898405025E-01  0.88866849980E+00  0.88000000000E+00 0.  1.
        -11    1    4    4    0    0  0.16362392326E-02  0.25764094694E-01  0.14677724107E-01  0.29701221527E-01  0.51100000000E-03 0. -1.
         11    1    4    4    0    0  0.28495960454E-01  0.96965879158E-01  0.19876416679E-01  0.10300356569E+00  0.51100000000E-03 0.  1.
</event>
<event>
 8    1  0.1101883E+005  0.1043930E+01  0.7957747E-01            NaN
         13   -1    0    0    0    0  0.00000000000E+00  0.00000000000E+00  0.74505805969E-08  0.10566000000E+00  0.10566000000E+00 0.  1.
     999900   -1    0    0    0    0 -0.00000000000E+00 -0.00000000000E+00 -0.74505805969E-08  0.93827000000E+00  0.93827000000E+00 0.  1.
     999902    2    1    2    0    0 -0.18001821201E-01  0.86786983034E-02 -0.13008762098E-01  0.10200843869E+01  0.10198056399E+01 0.  0.
     999903    2    3    3    0    0 -0.65378785343E-02 -0.58785065715E-02  0.12617717792E+00  0.12895248868E+00  0.25115003787E-01 0.  0.
         14    1    1    2    0    0  0.18001821201E-01 -0.86786983034E-02  0.13008762098E-01  0.23845613058E-01  0.00000000000E+00 0. -1.
     999901    1    3    3    0    0 -0.11463942666E-01  0.14557204875E-01 -0.13918594002E+00  0.89113189826E+00  0.88000000000E+00 0.  1.
        -11    1    4    4    0    0 -0.96446045823E-02 -0.91482806808E-02  0.31855326875E-01  0.34521477493E-01  0.51100000000E-03 0.  1.
         11    1    4    4    0    0  0.31067260481E-02  0.32697741093E-02  0.94321851042E-01  0.94431011191E-01  0.51100000000E-03 0. -1.
</event>
<event>
 8    1  0.1101883E+005  0.1043930E+01  0.7957747E-01            NaN
         13   -1    0    0    0    0  0.00000000000E+00  0.00000000000E+00  0.74505805969E-08  0.10566000000E+00  0.10566000000E+00 0.  1.
     999900   -1    0    0    0    0 -0.00000000000E+00 -0.00000000000E+00 -0.74505805969E-08  0.93827000000E+00  0.93827000000E+00 0.  1.
     999902    2    1    2    0    0 -0.20693999526E-01  0.11725141254E-01 -0.19985667461E-03  0.10201442796E+01  0.10198669475E+01 0.  0.
     999903    2    3    3    0    0 -0.31237214625E-01  0.12265502149E+00 -0.33058765520E-01  0.13250904728E+00  0.21112739237E-01 0.  0.
         14    1    1    2    0    0  0.20693999526E-01 -0.11725141254E-01  0.19985667461E-03  0.23785720433E-01  0.00000000000E+00 0.  1.
     999901    1    3    3    0    0  0.10543215099E-01 -0.11092988024E+00  0.32858908845E-01  0.88763523229E+00  0.88000000000E+00 0. -1.
        -11    1    4    4    0    0 -0.10492805456E-01  0.19421088069E-01  0.20482224844E-03  0.22081229614E-01  0.51100000000E-03 0.  1.
         11    1    4    4    0    0 -0.20744409169E-01  0.10323393342E+00 -0.33263587768E-01  0.11042781766E+00  0.51100000000E-03 0. -1.
</event>
<event>
 8    1  0.1101883E+005  0.1043930E+01  0.7957747E-01            NaN
         13   -1    0    0    0    0  0.00000000000E+00  0.00000000000E+00  0.74505805969E-08  0.10566000000E+00  0.10566000000E+00 0. -1.
     999900   -1    0    0    0    0 -0.00000000000E+00 -0.00000000000E+00 -0.74505805969E-08  0.93827000000E+00  0.93827000000E+00 0.  1.
     999902    2    1    2    0    0  0.47401230803E-02  0.28198621401E-02 -0.23146439839E-01  0.10201355034E+01  0.10198579643E+01 0.  0.
     999903    2    3    3    0    0 -0.11845287315E+00  0.20934624022E-01 -0.47911013963E-01  0.13102474372E+00  0.20066802633E-01 0.  0.
         14    1    1    2    0    0 -0.47401230803E-02 -0.28198621401E-02  0.23146439839E-01  0.23794496560E-01  0.00000000000E+00 0. -1.
     999901    1    3    3    0    0  0.12319299623E+00 -0.18114761881E-01  0.24764574124E-01  0.88911075972E+00  0.88000000000E+00 0.  1.
        -11    1    4    4    0    0 -0.45441421162E-02  0.10559796306E-02 -0.68821833128E-02  0.83300593457E-02  0.51100000000E-03 0.  1.
         11    1    4    4    0    0 -0.11390873103E+00  0.19878644391E-01 -0.41028830650E-01  0.12269468437E+00  0.51100000000E-03 0. -1.
</event>
<event>
 8    1  0.1101883E+005  0.1043930E+01  0.7957747E-01            NaN
         13   -1    0    0    0    0  0.00000000000E+00  0.00000000000E+00  0.74505805969E-08  0.10566000000E+00  0.10566000000E+00 0.  1.
     999900   -1    0    0    0    0 -0.00000000000E+00 -0.00000000000E+00 -0.74505805969E-08  0.93827000000E+00  0.93827000000E+00 0.  1.
     999902    2    1    2    0    0 -0.13413795785E-01  0.32112060221E-02  0.19169107457E-01  0.10203144026E+01  0.10200410696E+01 0.  0.
     999903    2    3    3    0    0  0.12503632805E+00  0.20941490385E-01 -0.12876764206E-01  0.12873729560E+00  0.18298930827E-01 0.  0.
         14    1    1    2    0    0  0.13413795785E-01 -0.32112060221E-02 -0.19169107457E-01  0.23615597434E-01  0.00000000000E+00 0. -1.
     999901    1    3    3    0    0 -0.13845012384E+00 -0.17730284362E-01  0.32045871663E-01  0.89157710697E+00  0.88000000000E+00 0. -1.
        -11    1    4    4    0    0  0.39333335546E-01  0.10881552248E-01 -0.11617458619E-01  0.42435196834E-01  0.51100000000E-03 0. -1.
         11    1    4    4    0    0  0.85702992507E-01  0.10059938136E-01 -0.12593055865E-02  0.86302098767E-01  0.51100000000E-03 0.  1.
</event>
<event>
 8    1  0.1101883E+005  0.1043930E+01  0.7957747E-01            NaN
         13   -1    0    0    0    0  0.00000000000E+00  0.00000000000E+00  0.74505805969E-08  0.10566000000E+00  0.10566000000E+00 0. -1.
     999900   -1    0    0    0    0 -0.00000000000E+00 -0.00000000000E+00 -0.74505805969E-08  0.93827000000E+00  0.93827000000E+00 0. -1.
     999902    2    1    2    0    0 -0.56147742234E-02  0.21970409004E-01  0.64998532843E-02  0.10203403274E+01  0.10200676012E+01 0.  0.
     999903    2    3    3    0    0  0.31585344436E-01  0.12605723773E+00 -0.20159077409E-01  0.13302492950E+00  0.20029535674E-01 0.  0.
         14    1    1    2    0    0  0.56147742234E-02 -0.21970409004E-01 -0.64998532843E-02  0.23589672615E-01  0.00000000000E+00 0.  1.
     999901    1    3    3    0    0 -0.37200118659E-01 -0.10408682872E+00  0.26658930694E-01  0.88731539789E+00  0.88000000000E+00 0.  1.
        -11    1    4    4    0    0  0.54334507413E-02  0.54007154967E-01 -0.14389002334E-01  0.56156920176E-01  0.51100000000E-03 0. -1.
         11    1    4    4    0    0  0.26151893695E-01  0.72050082760E-01 -0.57700750759E-02  0.76868009321E-01  0.51100000000E-03 0.  1.
</event>
<event>
 8    1  0.1101883E+005  0.1043930E+01  0.7957747E-01            NaN
         13   -1    0    0    0    0  0.00000000000E+00  0.00000000000E+00  0.74505805969E-08  0.10566000000E+00  0.10566000000E+00 0.  1.
     999900   -1    0    0    0    0 -0.00000000000E+00 -0.00000000000E+00 -0.74505805969E-08  0.93827000000E+00  0.93827000000E+00 0. -1.
     999902    2    1    2    0    0  0.19700169391E-01 -0.14133059083E-01 -0.29680980617E-02  0.10195035873E+01  0.10192109275E+01 0.  0.
     999903    2    3    3    0    0 -0.10213272073E+00  0.63421185915E-01 -0.36474042354E-01  0.12710201715E+00  0.19267265812E-01 0.  0.
         14    1    1    2    0    0 -0.19700169391E-01  0.14133059083E-01  0.29680980617E-02  0.24426412737E-01  0.00000000000E+00 0. -1.
     999901    1    3    3    0    0  0.12183289012E+00 -0.77554244998E-01  0.33505944292E-01  0.89240157011E+00  0.88000000000E+00 0.  1.
        -11    1    4    4    0    0 -0.51800262283E-01  0.24268878572E-01 -0.24436662650E-01  0.62206569124E-01  0.51100000000E-03 0. -1.
         11    1    4    4    0    0 -0.50332458448E-01  0.39152307342E-01 -0.12037379704E-01  0.64895448028E-01  0.51100000000E-03 0.  1.
</event>
<event>
 8    1  0.1101883E+005  0.1043930E+01  0.7957747E-01            NaN
         13   -1    0    0    0    0  0.00000000000E+00  0.00000000000E+00  0.74505805969E-08  0.10566000000E+00  0.10566000000E+00 0.  1.
     999900   -1    0    0    0    0 -0.00000000000E+00 -0.00000000000E+00 -0.74505805969E-08  0.93827000000E+00  0.93827000000E+00 0.  1.
     999902    2    1    2    0    0 -0.13555099296E-01  0.81309426054E-02 -0.18273971984E-01  0.10197682328E+01  0.10194819555E+01 0.  0.
     999903    2    3    3    0    0 -0.69468374176E-01  0.51174282129E-01 -0.99506744470E-01  0.13321435017E+00  0.19995217810E-01 0.  0.
         14    1    1    2    0    0  0.13555099296E-01 -0.81309426054E-02  0.18273971984E-01  0.24161767250E-01  0.00000000000E+00 0.  1.
     999901    1    3    3    0    0  0.55913274881E-01 -0.43043339523E-01  0.81232772486E-01  0.88655388258E+00  0.88000000000E+00 0. -1.
        -11    1    4    4    0    0 -0.51902451182E-01  0.32971931445E-01 -0.81788422682E-01  0.10232604706E+00  0.51100000000E-03 0. -1.
         11    1    4    4    0    0 -0.17565922995E-01  0.18202350684E-01 -0.17718321788E-01  0.30888303110E-01  0.51100000000E-03 0.  1.
</event>
<event>
 8    1  0.1101883E+005  0.1043930E+01  0.7957747E-01            NaN
         13   -1    0    0    0    0  0.00000000000E+00  0.00000000000E+00  0.74505805969E-08  0.10566000000E+00  0.10566000000E+00 0. -1.
     999900   -1    0    0    0    0 -0.00000000000E+00 -0.00000000000E+00 -0.74505805969E-08  0.93827000000E+00  0.93827000000E+00 0.  1.
     999902    2    1    2    0    0  0.47172164714E-02 -0.21226597395E-01 -0.95754099770E-02  0.10201706009E+01  0.10198938896E+01 0.  0.
     999903    2    3    3    0    0  0.78199504011E-01  0.44965058641E-01 -0.92579610575E-01  0.13074905901E+00  0.19680274659E-01 0.  0.
         14    1    1    2    0    0 -0.47172164714E-02  0.21226597395E-01  0.95754099770E-02  0.23759399075E-01  0.00000000000E+00 0. -1.
     999901    1    3    3    0    0 -0.73482287540E-01 -0.66191656036E-01  0.83004200598E-01  0.88942154192E+00  0.88000000000E+00 0. -1.
        -11    1    4    4    0    0  0.22129171075E-01  0.56182279236E-02 -0.31939006234E-01  0.39263544640E-01  0.51100000000E-03 0. -1.
         11    1    4    4    0    0  0.56070332936E-01  0.39346830718E-01 -0.60640604341E-01  0.91485514367E-01  0.51100000000E-03 0.  1.
</event>
<event>
 8    1  0.1101883E+005  0.1043930E+01  0.7957747E-01            NaN
         13   -1    0    0    0    0  0.00000000000E+00  0.00000000000E+00  0.74505805969E-08  0.10566000000E+00  0.10566000000E+00 0. -1.
     999900   -1    0    0    0    0 -0.00000000000E+00 -0.00000000000E+00 -0.74505805969E-08  0.93827000000E+00  0.93827000000E+00 0. -1.
     999902    2    1    2    0    0  0.14083519460E-02  0.17692013340E-01 -0.15400659523E-01  0.10204316787E+01  0.10201610852E+01 0.  0.
     999903    2    3    3    0    0 -0.63687062514E-01 -0.74129118401E-01 -0.84109380847E-01  0.13060617803E+00  0.20794654754E-01 0.  0.
         14    1    1    2    0    0 -0.14083519460E-02 -0.17692013340E-01  0.15400659523E-01  0.23498321322E-01  0.00000000000E+00 0. -1.
     999901    1    3    3    0    0  0.65095414460E-01  0.91821131741E-01  0.68708721324E-01  0.88982550065E+00  0.88000000000E+00 0.  1.
        -11    1    4    4    0    0 -0.29355198985E-01 -0.20148262693E-01 -0.35271913223E-01  0.50120346970E-01  0.51100000000E-03 0. -1.
         11    1    4    4    0    0 -0.34331863529E-01 -0.53980855708E-01 -0.48837467625E-01  0.80485831059E-01  0.51100000000E-03 0.  1.
</event>
<event>
 7    1  0.1101883E+005  0.1043930E+01  0.7957747E-01            NaN
         13   -1    0    0    0    0  0.00000000000E+00  0.00000000000E+00  0.74505805969E-08  0.10566000000E+00  0.10566000000E+00 0.  1.
     999900   -1    0    0    0    0 -0.00000000000E+00 -0.00000000000E+00 -0.74505805969E-08  0.93827000000E+00  0.93827000000E+00 0.  1.
     999902    2    1    2    0    0  0.19844921467E-01  0.13557390122E-01  0.54558338494E-02  0.10192847194E+01  0.10189867267E+01 0.  0.
         14    1    1    2    0    0 -0.19844921467E-01 -0.13557390122E-01 -0.54558338494E-02  0.24645280642E-01  0.00000000000E+00 0.  1.
     999901    1    3    3    0    0 -0.89977521903E-01 -0.34014426801E-01 -0.39101510404E-01  0.88610488307E+00  0.88000000000E+00 0. -1.
        -11    1    3    3    0    0  0.50366760888E-01  0.31662898669E-02  0.25583818485E-01  0.56582938092E-01  0.51100000000E-03 0.  1.
         11    1    3    3    0    0  0.59455682482E-01  0.44405527056E-01  0.18973525769E-01  0.76596898199E-01  0.51100000000E-03 0. -1.
</event>
<event>
 8    1  0.1101883E+005  0.1043930E+01  0.7957747E-01            NaN
         13   -1    0    0    0    0  0.00000000000E+00  0.00000000000E+00  0.74505805969E-08  0.10566000000E+00  0.10566000000E+00 0. -1.
     999900   -1    0    0    0    0 -0.00000000000E+00 -0.00000000000E+00 -0.74505805969E-08  0.93827000000E+00  0.93827000000E+00 0. -1.
     999902    2    1    2    0    0  0.20392606815E-01 -0.78805790254E-03  0.11969402132E-01  0.10202710475E+01  0.10199966982E+01 0.  0.
     999903    2    3    3    0    0  0.12579206856E+00 -0.15231211410E-01 -0.34513401755E-01  0.13264595640E+00  0.18658524473E-01 0.  0.
         14    1    1    2    0    0 -0.20392606815E-01  0.78805790254E-03 -0.11969402132E-01  0.23658952541E-01  0.00000000000E+00 0. -1.
     999901    1    3    3    0    0 -0.10539946174E+00  0.14443153507E-01  0.46482803886E-01  0.88762509106E+00  0.88000000000E+00 0.  1.
        -11    1    4    4    0    0  0.28603790287E-01 -0.70556666437E-02 -0.88636178041E-03  0.29478907863E-01  0.51100000000E-03 0.  1.
         11    1    4    4    0    0  0.97188278271E-01 -0.81755447664E-02 -0.33627039974E-01  0.10316704854E+00  0.51100000000E-03 0. -1.
</event>
<event>
 8    1  0.1101883E+005  0.1043930E+01  0.7957747E-01            NaN
         13   -1    0    0    0    0  0.00000000000E+00  0.00000000000E+00  0.74505805969E-08  0.10566000000E+00  0.10566000000E+00 0. -1.
     999900   -1    0    0    0    0 -0.00000000000E+00 -0.00000000000E+00 -0.74505805969E-08  0.93827000000E+00  0.93827000000E+00 0.  1.
     999902    2    1    2    0    0  0.23439145207E-02 -0.21896698604E-02 -0.23278044476E-01  0.10204320013E+01  0.10201614153E+01 0.  0.
     999903    2    3    3    0    0  0.37969806992E-01 -0.42786763853E-01 -0.11909319070E+00  0.13358484956E+00  0.19730954301E-01 0.  0.
         14    1    1    2    0    0 -0.23439145207E-02  0.21896698604E-02  0.23278044476E-01  0.23497998723E-01  0.00000000000E+00 0. -1.
     999901    1    3    3    0    0 -0.35625892472E-01  0.40597093993E-01  0.95815146225E-01  0.88684715171E+00  0.88000000000E+00 0. -1.
        -11    1    4    4    0    0  0.12430362717E-01 -0.28838010744E-01 -0.61626114414E-01  0.69167795105E-01  0.51100000000E-03 0.  1.
         11    1    4    4    0    0  0.25539444275E-01 -0.13948753110E-01 -0.57467076287E-01  0.64417054459E-01  0.51100000000E-03 0. -1.
</event>
<event>
 8    1  0.1361912E+005  0.1043930E+01  0.7957747E-01            NaN
         13   -1    0    0    0    0  0.00000000000E+00  0.00000000000E+00  0.74505805969E-08  0.10566000000E+00  0.10566000000E+00 0.  1.
     999900   -1    0    0    0    0 -0.00000000000E+00 -0.00000000000E+00 -0.74505805969E-08  0.93827000000E+00  0.93827000000E+00 0. -1.
     999902    2    1    2    0    0  0.19308784688E-02 -0.10164068454E-01  0.21541874201E-01  0.10200325331E+01  0.10197525581E+01 0.  0.
     999903    2    3    3    0    0 -0.12280385910E+00 -0.82644508270E-02  0.41378763548E-01  0.13101292395E+00  0.17409629910E-01 0.  0.
         14    1    1    2    0    0 -0.19308784688E-02  0.10164068454E-01 -0.21541874201E-01  0.23897466880E-01  0.00000000000E+00 0. -1.
     999901    1    3    3    0    0  0.12473473757E+00 -0.18996176271E-02 -0.19836889348E-01  0.88901960917E+00  0.88000000000E+00 0.  1.
        -11    1    4    4    0    0 -0.79412219537E-01 -0.92316128288E-02  0.34462096239E-01  0.87059867249E-01  0.51100000000E-03 0.  1.
         11    1    4    4    0    0 -0.43391639561E-01  0.96716200175E-03  0.69166673091E-02  0.43953056705E-01  0.51100000000E-03 0. -1.
</event>
<event>
 8    1  0.1101883E+005  0.1043930E+01  0.7957747E-01            NaN
         13   -1    0    0    0    0  0.00000000000E+00  0.00000000000E+00  0.74505805969E-08  0.10566000000E+00  0.10566000000E+00 0.  1.
     999900   -1    0    0    0    0 -0.00000000000E+00 -0.00000000000E+00 -0.74505805969E-08  0.93827000000E+00  0.93827000000E+00 0.  1.
     999902    2    1    2    0    0 -0.78441640857E-02 -0.64200227779E-03 -0.21939770410E-01  0.10206212763E+01  0.10203550818E+01 0.  0.
     999903    2    3    3    0    0 -0.12462183874E+00 -0.40884951596E-02  0.35248745751E-01  0.13105990682E+00  0.19669941902E-01 0.  0.
         14    1    1    2    0    0  0.78441640857E-02  0.64200227779E-03  0.21939770410E-01  0.23308723749E-01  0.00000000000E+00 0.  1.
     999901    1    3    3    0    0  0.11677767465E+00  0.34464928818E-02 -0.57188516162E-01  0.88956136944E+00  0.88000000000E+00 0.  1.
        -11    1    4    4    0    0 -0.85271497475E-01 -0.11711240959E-01  0.21977140205E-01  0.88834887623E-01  0.51100000000E-03 0. -1.
         11    1    4    4    0    0 -0.39350341263E-01  0.76227457999E-02  0.13271605546E-01  0.42225019193E-01  0.51100000000E-03 0.  1.
</event>
<event>
 8    1  0.1101883E+005  0.1043930E+01  0.7957747E-01            NaN
         13   -1    0    0    0    0  0.00000000000E+00  0.00000000000E+00  0.74505805969E-08  0.10566000000E+00  0.10566000000E+00 0.  1.
     999900   -1    0    0    0    0 -0.00000000000E+00 -0.00000000000E+00 -0.74505805969E-08  0.93827000000E+00  0.93827000000E+00 0. -1.
     999902    2    1    2    0    0  0.24557449723E-01 -0.17193885769E-02  0.53288694099E-03  0.10193066655E+01  0.10190092098E+01 0.  0.
     999903    2    3    3    0    0  0.86239334962E-01 -0.96794348394E-01 -0.16173142357E-01  0.13188174226E+00  0.18023724149E-01 0.  0.
         14    1    1    2    0    0 -0.24557449723E-01  0.17193885769E-02 -0.53288694099E-03  0.24623334512E-01  0.00000000000E+00 0. -1.
     999901    1    3    3    0    0 -0.61681885239E-01  0.95074959817E-01  0.16706029298E-01  0.88742492323E+00  0.88000000000E+00 0.  1.
        -11    1    4    4    0    0  0.21102191094E-01 -0.18656736536E-01  0.31082949710E-02  0.28342528218E-01  0.51100000000E-03 0.  1.
         11    1    4    4    0    0  0.65137143868E-01 -0.78137611858E-01 -0.19281437328E-01  0.10353921404E+00  0.51100000000E-03 0. -1.
</event>
<event>
 8    1  0.1101883E+005  0.1043930E+01  0.7957747E-01            NaN
         13   -1    0    0    0    0  0.00000000000E+00  0.00000000000E+00  0.74505805969E-08  0.10566000000E+00  0.10566000000E+00 0. -1.
     999900   -1    0    0    0    0 -0.00000000000E+00 -0.00000000000E+00 -0.74505805969E-08  0.93827000000E+00  0.93827000000E+00 0.  1.
     999902    2    1    2    0    0  0.13502695518E-01 -0.10740353412E-01 -0.15707914488E-01  0.10205972643E+01  0.10203305148E+01 0.  0.
     999903    2    3    3    0    0  0.39193948708E-01  0.11103902320E+00  0.49841465434E-01  0.12942557587E+00  0.20024428185E-01 0.  0.
         14    1    1    2    0    0 -0.13502695518E-01  0.10740353412E-01  0.15707914488E-01  0.23332735700E-01  0.00000000000E+00 0. -1.
     999901    1    3    3    0    0 -0.25691253189E-01 -0.12177937661E+00 -0.65549379922E-01  0.89117168843E+00  0.88000000000E+00 0.  1.
        -11    1    4    4    0    0  0.12140374572E-01  0.59147222419E-01  0.31444144187E-01  0.68079203428E-01  0.51100000000E-03 0. -1.
         11    1    4    4    0    0  0.27053574135E-01  0.51891800777E-01  0.18397321247E-01  0.61346372439E-01  0.51100000000E-03 0.  1.
</event>
<event>
 8    1  0.1101883E+005  0.1043930E+01  0.7957747E-01            NaN
         13   -1    0    0    0    0  0.00000000000E+00  0.00000000000E+00  0.74505805969E-08  0.10566000000E+00  0.10566000000E+00 0.  1.
     999900   -1    0    0    0    0 -0.00000000000E+00 -0.00000000000E+00 -0.74505805969E-08  0.93827000000E+00  0.93827000000E+00 0. -1.
     999902    2    1    2    0    0  0.22212154652E-01 -0.51636076639E-02 -0.15268301613E-01  0.10164861721E+01  0.10161156304E+01 0.  0.
     999903    2    3    3    0    0 -0.98359638031E-01 -0.69111500114E-01 -0.31139468732E-01  0.12582418000E+00  0.20274119410E-01 0.  0.
         14    1    1    2    0    0 -0.22212154652E-01  0.51636076639E-02  0.15268301613E-01  0.27443827950E-01  0.00000000000E+00 0. -1.
     999901    1    3    3    0    0  0.12057179268E+00  0.63947892450E-01  0.15871167119E-01  0.89066199205E+00  0.88000000000E+00 0.  1.
        -11    1    4    4    0    0 -0.97339597502E-02 -0.14373545576E-01 -0.10562144519E-02  0.17399008444E-01  0.51100000000E-03 0. -1.
         11    1    4    4    0    0 -0.88625678281E-01 -0.54737954538E-01 -0.30083254280E-01  0.10842517156E+00  0.51100000000E-03 0.  1.
</event>
<event>
 8    1  0.1101883E+005  0.1043930E+01  0.7957747E-01            NaN
         13   -1    0    0    0    0  0.00000000000E+00  0.00000000000E+00  0.74505805969E-08  0.10566000000E+00  0.10566000000E+00 0.  1.
     999900   -1    0    0    0    0 -0.00000000000E+00 -0.00000000000E+00 -0.74505805969E-08  0.93827000000E+00  0.93827000000E+00 0.  1.
     999902    2    1    2    0    0 -0.10347563753E-02 -0.10198665311E-01  0.21278631712E-01  0.10203108624E+01  0.10200374465E+01 0.  0.
     999903    2    3    3    0    0 -0.64122065966E-01  0.10635321456E+00 -0.28273504253E-01  0.12900857722E+00  0.20522581779E-01 0.  0.
         14    1    1    2    0    0  0.10347563753E-02  0.10198665311E-01 -0.21278631712E-01  0.23619137630E-01  0.00000000000E+00 0. -1.
     999901    1    3    3    0    0  0.63087309590E-01 -0.11655187987E+00  0.49552135965E-01  0.89130228515E+00  0.88000000000E+00 0. -1.
        -11    1    4    4    0    0 -0.26995186322E-01  0.57993587587E-01 -0.66398917614E-02  0.64314427381E-01  0.51100000000E-03 0.  1.
         11    1    4    4    0    0 -0.37126879644E-01  0.48359626973E-01 -0.21633612492E-01  0.64694149839E-01  0.51100000000E-03 0. -1.
</event>
<event>
 8    1  0.1101883E+005  0.1043930E+01  0.7957747E-01            NaN
         13   -1    0    0    0    0  0.00000000000E+00  0.00000000000E+00  0.74505805969E-08  0.10566000000E+00  0.10566000000E+00 0.  1.
     999900   -1    0    0    0    0 -0.00000000000E+00 -0.00000000000E+00 -0.74505805969E-08  0.93827000000E+00  0.93827000000E+00 0. -1.
     999902    2    1    2    0    0 -0.15263809444E-01 -0.51125381274E-02 -0.17856149123E-01  0.10198891184E+01  0.10196057326E+01 0.  0.
     999903    2    3    3    0    0 -0.27590773661E-01 -0.57312744811E-01 -0.11511960926E+00  0.13290715904E+00  0.19125558217E-01 0.  0.
         14    1    1    2    0    0  0.15263809444E-01  0.51125381274E-02  0.17856149123E-01  0.24040881564E-01  0.00000000000E+00 0.  1.
     999901    1    3    3    0    0  0.12326964217E-01  0.52200206684E-01  0.97263460139E-01  0.88698195940E+00  0.88000000000E+00 0.  1.
        -11    1    4    4    0    0 -0.28410886595E-01 -0.43170884175E-01 -0.82662062233E-01  0.97489391070E-01  0.51100000000E-03 0.  1.
         11    1    4    4    0    0  0.82011293436E-03 -0.14141860637E-01 -0.32457547029E-01  0.35417767965E-01  0.51100000000E-03 0. -1.
</event>
<event>
 8    1  0.1101883E+005  0.1043930E+01  0.7957747E-01            NaN
         13   -1    0    0    0    0  0.00000000000E+00  0.00000000000E+00  0.74505805969E-08  0.10566000000E+00  0.10566000000E+00 0.  1.
     999900   -1    0    0    0    0 -0.00000000000E+00 -0.00000000000E+00 -0.74505805969E-08  0.93827000000E+00  0.93827000000E+00 0.  1.
     999902    2    1    2    0    0  0.17616297049E-03  0.22474184204E-01  0.55055296155E-03  0.10214483831E+01  0.10212009480E+01 0.  0.
     999903    2    3    3    0    0  0.11287746827E+00  0.31199234461E-02 -0.65168767579E-01  0.13161963515E+00  0.18047252496E-01 0.  0.
         14    1    1    2    0    0 -0.17616297049E-03 -0.22474184204E-01 -0.55055296155E-03  0.22481616881E-01  0.00000000000E+00 0.  1.
     999901    1    3    3    0    0 -0.11270130530E+00  0.19354260758E-01  0.65719320540E-01  0.88982874797E+00  0.88000000000E+00 0. -1.
        -11    1    4    4    0    0  0.67125263671E-01 -0.30522346817E-02 -0.30040846910E-01  0.73605915275E-01  0.51100000000E-03 0.  1.
         11    1    4    4    0    0  0.45752204600E-01  0.61721581277E-02 -0.35127920669E-01  0.58013719871E-01  0.51100000000E-03 0. -1.
</event>
<event>
 8    1  0.1101883E+005  0.1043930E+01  0.7957747E-01            NaN
         13   -1    0    0    0    0  0.00000000000E+00  0.00000000000E+00  0.74505805969E-08  0.10566000000E+00  0.10566000000E+00 0. -1.
     999900   -1    0    0    0    0 -0.00000000000E+00 -0.00000000000E+00 -0.74505805969E-08  0.93827000000E+00  0.93827000000E+00 0.  1.
     999902    2    1    2    0    0  0.22846669556E-01  0.72291970759E-02  0.22215775851E-02  0.10198641111E+01  0.10195801284E+01 0.  0.
     999903    2    3    3    0    0 -0.10264145134E+00  0.71911661382E-01  0.18550483423E-01  0.12846200050E+00  0.21255835897E-01 0.  0.
         14    1    1    2    0    0 -0.22846669556E-01 -0.72291970759E-02 -0.22215775851E-02  0.24065888871E-01  0.00000000000E+00 0.  1.
     999901    1    3    3    0    0  0.12548812090E+00 -0.64682464306E-01 -0.16328905838E-01  0.89140211063E+00  0.88000000000E+00 0.  1.
        -11    1    4    4    0    0 -0.51039756876E-01  0.23458020527E-01  0.50685133997E-02  0.56402894058E-01  0.51100000000E-03 0. -1.
         11    1    4    4    0    0 -0.51601694467E-01  0.48453640855E-01  0.13481970023E-01  0.72059106438E-01  0.51100000000E-03 0.  1.
</event>
<event>
 8    1  0.1101883E+005  0.1043930E+01  0.7957747E-01            NaN
         13   -1    0    0    0    0  0.00000000000E+00  0.00000000000E+00  0.74505805969E-08  0.10566000000E+00  0.10566000000E+00 0.  1.
     999900   -1    0    0    0    0 -0.00000000000E+00 -0.00000000000E+00 -0.74505805969E-08  0.93827000000E+00  0.93827000000E+00 0. -1.
     999902    2    1    2    0    0 -0.80607656446E-02 -0.13914644154E-02 -0.21774575676E-01  0.10206696418E+01  0.10204045636E+01 0.  0.
     999903    2    3    3    0    0 -0.63770916611E-02  0.12177801347E+00  0.40315104326E-01  0.12992350325E+00  0.19602479376E-01 0.  0.
         14    1    1    2    0    0  0.80607656446E-02  0.13914644154E-02  0.21774575676E-01  0.23260358163E-01  0.00000000000E+00 0.  1.
     999901    1    3    3    0    0 -0.16836739835E-02 -0.12316947789E+00 -0.62089680002E-01  0.89074613858E+00  0.88000000000E+00 0. -1.
        -11    1    4    4    0    0 -0.39945578858E-02  0.60636697752E-01  0.98298862276E-02  0.61560160747E-01  0.51100000000E-03 0. -1.
         11    1    4    4    0    0 -0.23825337753E-02  0.61141315718E-01  0.30485218099E-01  0.68363342505E-01  0.51100000000E-03 0.  1.
</event>
<event>
 8    1  0.1101883E+005  0.1043930E+01  0.7957747E-01            NaN
         13   -1    0    0    0    0  0.00000000000E+00  0.00000000000E+00  0.74505805969E-08  0.10566000000E+00  0.10566000000E+00 0.  1.
     999900   -1    0    0    0    0 -0.00000000000E+00 -0.00000000000E+00 -0.74505805969E-08  0.93827000000E+00  0.93827000000E+00 0. -1.
     999902    2    1    2    0    0  0.15569993859E-01 -0.12637534221E-01 -0.10144115772E-01  0.10214570148E+01  0.10212097718E+01 0.  0.
     999903    2    3    3    0    0  0.17156808933E-02 -0.89064488559E-01 -0.97412261691E-01  0.13373591520E+00  0.21464379908E-01 0.  0.
         14    1    1    2    0    0 -0.15569993859E-01  0.12637534221E-01  0.10144115772E-01  0.22472985221E-01  0.00000000000E+00 0. -1.
     999901    1    3    3    0    0  0.13854312966E-01  0.76426954338E-01  0.87268145919E-01  0.88772109957E+00  0.88000000000E+00 0.  1.
        -11    1    4    4    0    0  0.11421722776E-01 -0.39634615468E-01 -0.44429137039E-01  0.60626461496E-01  0.51100000000E-03 0. -1.
         11    1    4    4    0    0 -0.97060418825E-02 -0.49429873090E-01 -0.52983124651E-01  0.73109453709E-01  0.51100000000E-03 0.  1.
</event>
<event>
 8    1  0.1101883E+005  0.1043930E+01  0.7957747E-01            NaN
         13   -1    0    0    0    0  0.00000000000E+00  0.00000000000E+00  0.74505805969E-08  0.10566000000E+00  0.10566000000E+00 0.  1.
     999900   -1    0    0    0    0 -0.00000000000E+00 -0.00000000000E+00 -0.74505805969E-08  0.93827000000E+00  0.93827000000E+00 0. -1.
     999902    2    1    2    0    0  0.22467359970E-01 -0.68324715151E-02  0.26264418813E-02  0.10203002914E+01  0.10200266279E+01 0.  0.
     999903    2    3    3    0    0 -0.21471538065E-01  0.80348995014E-01 -0.96967354589E-01  0.12931759845E+00  0.20084458306E-01 0.  0.
         14    1    1    2    0    0 -0.22467359970E-01  0.68324715151E-02 -0.26264418813E-02  0.23629708588E-01  0.00000000000E+00 0.  1.
     999901    1    3    3    0    0  0.43938898035E-01 -0.87181466529E-01  0.99593796471E-01  0.89098269296E+00  0.88000000000E+00 0. -1.
        -11    1    4    4    0    0 -0.17651743961E-01  0.57670164027E-01 -0.55838657842E-01  0.82192753418E-01  0.51100000000E-03 0. -1.
         11    1    4    4    0    0 -0.38197941040E-02  0.22678830987E-01 -0.41128696747E-01  0.47124845030E-01  0.51100000000E-03 0.  1.
</event>
<event>
 8    1  0.1101883E+005  0.1043930E+01  0.7957747E-01            NaN
         13   -1    0    0    0    0  0.00000000000E+00  0.00000000000E+00  0.74505805969E-08  0.10566000000E+00  0.10566000000E+00 0. -1.
     999900   -1    0    0    0    0 -0.00000000000E+00 -0.00000000000E+00 -0.74505805969E-08  0.93827000000E+00  0.93827000000E+00 0. -1.
     999902    2    1    2    0    0  0.20665066114E-01  0.76427067712E-02  0.67886328727E-02  0.10208748171E+01  0.10206144476E+01 0.  0.
     999903    2    3    3    0    0  0.11400261748E-01  0.10801306314E+00  0.72277632067E-01  0.13270318159E+00  0.24275306998E-01 0.  0.
         14    1    1    2    0    0 -0.20665066114E-01 -0.76427067712E-02 -0.67886328727E-02  0.23055182944E-01  0.00000000000E+00 0.  1.
     999901    1    3    3    0    0  0.92648043660E-02 -0.10037035637E+00 -0.65488999194E-01  0.88817163547E+00  0.88000000000E+00 0. -1.
        -11    1    4    4    0    0  0.40118711222E-02  0.53285364028E-01  0.21240909741E-01  0.57505325815E-01  0.51100000000E-03 0. -1.
         11    1    4    4    0    0  0.73883906261E-02  0.54727699109E-01  0.51036722326E-01  0.75197855772E-01  0.51100000000E-03 0.  1.
</event>
<event>
 8    1  0.1101883E+005  0.1043930E+01  0.7957747E-01            NaN
         13   -1    0    0    0    0  0.00000000000E+00  0.00000000000E+00  0.74505805969E-08  0.10566000000E+00  0.10566000000E+00 0. -1.
     999900   -1    0    0    0    0 -0.00000000000E+00 -0.00000000000E+00 -0.74505805969E-08  0.93827000000E+00  0.93827000000E+00 0.  1.
     999902    2    1    2    0    0  0.83294269843E-02 -0.63927047968E-02 -0.21991107733E-01  0.10195608628E+01  0.10192695905E+01 0.  0.
     999903    2    3    3    0    0 -0.12516205429E+00 -0.21737890969E-01  0.77977660868E-02  0.12886291887E+00  0.20168563805E-01 0.  0.
         14    1    1    2    0    0 -0.83294269843E-02  0.63927047968E-02  0.21991107733E-01  0.24369137199E-01  0.00000000000E+00 0. -1.
     999901    1    3    3    0    0  0.13349148128E+00  0.15345186172E-01 -0.29788873820E-01  0.89069794393E+00  0.88000000000E+00 0. -1.
        -11    1    4    4    0    0 -0.10540709591E+00 -0.19332502997E-01  0.13845331454E-01  0.10805718793E+00  0.51100000000E-03 0.  1.
         11    1    4    4    0    0 -0.19754958386E-01 -0.24053879717E-02 -0.60475653672E-02  0.20805730941E-01  0.51100000000E-03 0. -1.
</event>
<event>
 8    1  0.1101883E+005  0.1043930E+01  0.7957747E-01            NaN
         13   -1    0    0    0    0  0.00000000000E+00  0.00000000000E+00  0.74505805969E-08  0.10566000000E+00  0.10566000000E+00 0.  1.
     999900   -1    0    0    0    0 -0.00000000000E+00 -0.00000000000E+00 -0.74505805969E-08  0.93827000000E+00  0.93827000000E+00 0. -1.
     999902    2    1    2    0    0  0.17054996469E-01 -0.11226295642E-01 -0.99960565733E-02  0.10211962417E+01  0.10209431622E+01 0.  0.
     999903    2    3    3    0    0  0.81519627704E-01 -0.74370802440E-01  0.71183014578E-01  0.13286468256E+00  0.20237004464E-01 0.  0.
         14    1    1    2    0    0 -0.17054996469E-01  0.11226295642E-01  0.99960565733E-02  0.22733758278E-01  0.00000000000E+00 0.  1.
     999901    1    3    3    0    0 -0.64464631234E-01  0.63144506798E-01 -0.81179071151E-01  0.88833155917E+00  0.88000000000E+00 0. -1.
        -11    1    4    4    0    0  0.58183459776E-01 -0.61469039798E-01  0.60935663606E-01  0.10429369140E+00  0.51100000000E-03 0.  1.
         11    1    4    4    0    0  0.23336167927E-01 -0.12901762642E-01  0.10247350972E-01  0.28570991158E-01  0.51100000000E-03 0. -1.
</event>
<event>
 8    1  0.1101883E+005  0.1043930E+01  0.7957747E-01            NaN
         13   -1    0    0    0    0  0.00000000000E+00  0.00000000000E+00  0.74505805969E-08  0.10566000000E+00  0.10566000000E+00 0.  1.
     999900   -1    0    0    0    0 -0.00000000000E+00 -0.00000000000E+00 -0.74505805969E-08  0.93827000000E+00  0.93827000000E+00 0.  1.
     999902    2    1    2    0    0 -0.16007784860E-01 -0.15386465481E-01  0.53728965838E-02  0.10210857335E+01  0.10208301595E+01 0.  0.
     999903    2    3    3    0    0 -0.11859939143E-01  0.54475984174E-01 -0.11576594321E+00  0.13003434044E+00  0.19972107489E-01 0.  0.
         14    1    1    2    0    0  0.16007784860E-01  0.15386465481E-01 -0.53728965838E-02  0.22844266542E-01  0.00000000000E+00 0. -1.
     999901    1    3    3    0    0 -0.41478457166E-02 -0.69862449656E-01  0.12113883979E+00  0.89105139302E+00  0.88000000000E+00 0. -1.
        -11    1    4    4    0    0 -0.10590362207E-01  0.20206861719E-01 -0.63920582363E-01  0.67871754087E-01  0.51100000000E-03 0. -1.
         11    1    4    4    0    0 -0.12695769361E-02  0.34269122456E-01 -0.51845360847E-01  0.62162586351E-01  0.51100000000E-03 0.  1.
</event>
<event>
 8    1  0.1308101E+005  0.1043930E+01  0.7957747E-01            NaN
         13   -1    0    0    0    0  0.00000000000E+00  0.00000000000E+00  0.74505805969E-08  0.10566000000E+00  0.10566000000E+00 0.  1.
     999900   -1    0    0    0    0 -0.00000000000E+00 -0.00000000000E+00 -0.74505805969E-08  0.93827000000E+00  0.93827000000E+00 0. -1.
     999902    2    1    2    0    0  0.10125615107E-01  0.32512818519E-02  0.21123500522E-01  0.10202804505E+01  0.10200063218E+01 0.  0.
     999903    2    3    3    0    0 -0.30213658645E-01  0.80585213656E-01  0.98665267664E-01  0.13257525192E+00  0.20845156518E-01 0.  0.
         14    1    1    2    0    0 -0.10125615107E-01 -0.32512818519E-02 -0.21123500522E-01  0.23649549452E-01  0.00000000000E+00 0. -1.
     999901    1    3    3    0    0  0.40339273752E-01 -0.77333931804E-01 -0.77541767142E-01  0.88770519863E+00  0.88000000000E+00 0. -1.
        -11    1    4    4    0    0 -0.28905400508E-01  0.49469690233E-01  0.60778658509E-01  0.83528910453E-01  0.51100000000E-03 0.  1.
         11    1    4    4    0    0 -0.13082581370E-02  0.31115523423E-01  0.37886609155E-01  0.49046341469E-01  0.51100000000E-03 0. -1.
</event>
<event>
 8    1  0.1101883E+005  0.1043930E+01  0.7957747E-01            NaN
         13   -1    0    0    0    0  0.00000000000E+00  0.00000000000E+00  0.74505805969E-08  0.10566000000E+00  0.10566000000E+00 0.  1.
     999900   -1    0    0    0    0 -0.00000000000E+00 -0.00000000000E+00 -0.74505805969E-08  0.93827000000E+00  0.93827000000E+00 0.  1.
     999902    2    1    2    0    0  0.30138387866E-02 -0.17022779583E-01  0.10525255526E-01  0.10236904532E+01  0.10234903540E+01 0.  0.
     999903    2    3    3    0    0 -0.15099197039E-01  0.12890459219E+00  0.81841827663E-02  0.13148623866E+00  0.19423451580E-01 0.  0.
         14    1    1    2    0    0 -0.30138387866E-02  0.17022779583E-01 -0.10525255526E-01  0.20239546755E-01  0.00000000000E+00 0. -1.
     999901    1    3    3    0    0  0.18113035826E-01 -0.14592737177E+00  0.23410727598E-02  0.89220421458E+00  0.88000000000E+00 0.  1.
        -11    1    4    4    0    0 -0.12453892677E-01  0.10308231617E+00 -0.13124267773E-02  0.10384145095E+00  0.51100000000E-03 0.  1.
         11    1    4    4    0    0 -0.26453043621E-02  0.25822276019E-01  0.94966095436E-02  0.27644787715E-01  0.51100000000E-03 0. -1.
</event>
<event>
 8    1  0.1101883E+005  0.1043930E+01  0.7957747E-01            NaN
         13   -1    0    0    0    0  0.00000000000E+00  0.00000000000E+00  0.74505805969E-08  0.10566000000E+00  0.10566000000E+00 0.  1.
     999900   -1    0    0    0    0 -0.00000000000E+00 -0.00000000000E+00 -0.74505805969E-08  0.93827000000E+00  0.93827000000E+00 0. -1.
     999902    2    1    2    0    0  0.11441628987E-01  0.20064061015E-01  0.74113728460E-02  0.10196729213E+01  0.10193843537E+01 0.  0.
     999903    2    3    3    0    0  0.12970308465E+00  0.70843896207E-02  0.41480850106E-02  0.13166115743E+00  0.21080204534E-01 0.  0.
         14    1    1    2    0    0 -0.11441628987E-01 -0.20064061015E-01 -0.74113728460E-02  0.24257078673E-01  0.00000000000E+00 0. -1.
     999901    1    3    3    0    0 -0.11826145566E+00  0.12979671395E-01  0.32632878353E-02  0.88801176389E+00  0.88000000000E+00 0.  1.
        -11    1    4    4    0    0  0.71468196404E-01 -0.85577621872E-03 -0.70710228722E-02  0.71824062372E-01  0.51100000000E-03 0. -1.
         11    1    4    4    0    0  0.58234888247E-01  0.79401658394E-02  0.11219107883E-01  0.59837095061E-01  0.51100000000E-03 0.  1.
</event>
<event>
 8    1  0.1101883E+005  0.1043930E+01  0.7957747E-01            NaN
         13   -1    0    0    0    0  0.00000000000E+00  0.00000000000E+00  0.74505805969E-08  0.10566000000E+00  0.10566000000E+00 0. -1.
     999900   -1    0    0    0    0 -0.00000000000E+00 -0.00000000000E+00 -0.74505805969E-08  0.93827000000E+00  0.93827000000E+00 0. -1.
     999902    2    1    2    0    0  0.64786896824E-03  0.32114948131E-01 -0.75622373823E-03  0.10117996172E+01  0.10112893274E+01 0.  0.
     999903    2    3    3    0    0  0.11306311266E+00 -0.39519430392E-01 -0.75759232816E-02  0.12173491192E+00  0.20419141616E-01 0.  0.
         14    1    1    2    0    0 -0.64786896824E-03 -0.32114948131E-01  0.75622373823E-03  0.32130382849E-01  0.00000000000E+00 0.  1.
     999901    1    3    3    0    0 -0.11241524369E+00  0.71634378523E-01  0.68196995433E-02  0.89006470523E+00  0.88000000000E+00 0. -1.
        -11    1    4    4    0    0  0.43651532507E-01 -0.99875590635E-02 -0.11375989738E-01  0.46204782109E-01  0.51100000000E-03 0. -1.
         11    1    4    4    0    0  0.69411580149E-01 -0.29531871328E-01  0.38000664566E-02  0.75530129809E-01  0.51100000000E-03 0.  1.
</event>
<event>
 8    1  0.1101883E+005  0.1043930E+01  0.7957747E-01            NaN
         13   -1    0    0    0    0  0.00000000000E+00  0.00000000000E+00  0.74505805969E-08  0.10566000000E+00  0.10566000000E+00 0.  1.
     999900   -1    0    0    0    0 -0.00000000000E+00 -0.00000000000E+00 -0.74505805969E-08  0.93827000000E+00  0.93827000000E+00 0. -1.
     999902    2    1    2    0    0  0.22865743171E-01  0.11815650758E-01 -0.11040784514E-01  0.10159237376E+01  0.10155376358E+01 0.  0.
     999903    2    3    3    0    0 -0.31142744247E-01  0.13740062869E-01  0.11878883580E+00  0.12475801201E+00  0.17178888286E-01 0.  0.
         14    1    1    2    0    0 -0.22865743171E-01 -0.11815650758E-01  0.11040784514E-01  0.28006262448E-01  0.00000000000E+00 0.  1.
     999901    1    3    3    0    0  0.54008487418E-01 -0.19244121114E-02 -0.12982962031E+00  0.89116572554E+00  0.88000000000E+00 0. -1.
        -11    1    4    4    0    0 -0.24075267241E-01  0.56104484081E-02  0.10076476178E+00  0.10375400697E+00  0.51100000000E-03 0. -1.
         11    1    4    4    0    0 -0.70674770056E-02  0.81296144613E-02  0.18024074019E-01  0.21004005041E-01  0.51100000000E-03 0.  1.
</event>
<event>
 8    1  0.1101883E+005  0.1043930E+01  0.7957747E-01            NaN
         13   -1    0    0    0    0  0.00000000000E+00  0.00000000000E+00  0.74505805969E-08  0.10566000000E+00  0.10566000000E+00 0.  1.
     999900   -1    0    0    0    0 -0.00000000000E+00 -0.00000000000E+00 -0.74505805969E-08  0.93827000000E+00  0.93827000000E+00 0.  1.
     999902    2    1    2    0    0 -0.51271369767E-02  0.12079651678E-01  0.19207784741E-01  0.10206674870E+01  0.10204023591E+01 0.  0.
     999903    2    3    3    0    0  0.48231081072E-01  0.74533286293E-01 -0.92430942554E-01  0.12981914895E+00  0.20690199248E-01 0.  0.
         14    1    1    2    0    0  0.51271369767E-02 -0.12079651678E-01 -0.19207784741E-01  0.23262513039E-01  0.00000000000E+00 0. -1.
     999901    1    3    3    0    0 -0.53358218049E-01 -0.62453634615E-01  0.11163872729E+00  0.89084833801E+00  0.88000000000E+00 0. -1.
        -11    1    4    4    0    0  0.30331829062E-02 -0.33872864925E-03 -0.65530055579E-02  0.72469261403E-02  0.51100000000E-03 0.  1.
         11    1    4    4    0    0  0.45197898166E-01  0.74872014942E-01 -0.85877936996E-01  0.12257222281E+00  0.51100000000E-03 0. -1.
</event>
<event>
 8    1  0.1236231E+005  0.1043930E+01  0.7957747E-01            NaN
         13   -1    0    0    0    0  0.00000000000E+00  0.00000000000E+00  0.74505805969E-08  0.10566000000E+00  0.10566000000E+00 0.  1.
     999900   -1    0    0    0    0 -0.00000000000E+00 -0.00000000000E+00 -0.74505805969E-08  0.93827000000E+00  0.93827000000E+00 0. -1.
     999902    2    1    2    0    0  0.21158287924E-01  0.89872916906E-02 -0.48025641253E-02  0.10204457674E+01  0.10201755020E+01 0.  0.
     999903    2    3    3    0    0  0.93633138428E-01  0.27894973137E-02 -0.92344889734E-01  0.13311568483E+00  0.20426967019E-01 0.  0.
         14    1    1    2    0    0 -0.21158287924E-01 -0.89872916906E-02  0.48025641253E-02  0.23484232625E-01  0.00000000000E+00 0.  1.
     999901    1    3    3    0    0 -0.72474850504E-01  0.61977943769E-02  0.87542325608E-01  0.88733008254E+00  0.88000000000E+00 0.  1.
        -11    1    4    4    0    0  0.55049564415E-01  0.74741909216E-02 -0.42736334632E-01  0.70092606536E-01  0.51100000000E-03 0.  1.
         11    1    4    4    0    0  0.38583574013E-01 -0.46846936079E-02 -0.49608555101E-01  0.63023078297E-01  0.51100000000E-03 0. -1.
</event>
<event>
 8    1  0.1101883E+005  0.1043930E+01  0.7957747E-01            NaN
         13   -1    0    0    0    0  0.00000000000E+00  0.00000000000E+00  0.74505805969E-08  0.10566000000E+00  0.10566000000E+00 0.  1.
     999900   -1    0    0    0    0 -0.00000000000E+00 -0.00000000000E+00 -0.74505805969E-08  0.93827000000E+00  0.93827000000E+00 0. -1.
     999902    2    1    2    0    0  0.17731917212E-01  0.32765020946E-02  0.14896334957E-01  0.10205407471E+01  0.10202726888E+01 0.  0.
     999903    2    3    3    0    0  0.27432863705E-01  0.12719684565E+00 -0.15558389950E-02  0.13165322111E+00  0.19963728068E-01 0.  0.
         14    1    1    2    0    0 -0.17731917212E-01 -0.32765020946E-02 -0.14896334957E-01  0.23389252856E-01  0.00000000000E+00 0. -1.
     999901    1    3    3    0    0 -0.97009464931E-02 -0.12392034356E+00  0.16452173952E-01  0.88888752603E+00  0.88000000000E+00 0.  1.
        -11    1    4    4    0    0  0.16400614838E-01  0.49384012965E-01 -0.86039637932E-02  0.52745144019E-01  0.51100000000E-03 0. -1.
         11    1    4    4    0    0  0.11032248867E-01  0.77812832689E-01  0.70481247981E-02  0.78908077092E-01  0.51100000000E-03 0.  1.
</event>
<event>
 8    1  0.1121233E+005  0.1043930E+01  0.7957747E-01            NaN
         13   -1    0    0    0    0  0.00000000000E+00  0.00000000000E+00  0.74505805969E-08  0.10566000000E+00  0.10566000000E+00 0.  1.
     999900   -1    0    0    0    0 -0.00000000000E+00 -0.00000000000E+00 -0.74505805969E-08  0.93827000000E+00  0.93827000000E+00 0. -1.
     999902    2    1    2    0    0  0.14506811978E-01  0.18741413967E-02  0.17737552239E-01  0.10209391157E+01  0.10206802130E+01 0.  0.
     999903    2    3    3    0    0  0.12027671765E+00  0.12137948197E-02  0.55073326618E-01  0.13381924275E+00  0.20163241754E-01 0.  0.
         14    1    1    2    0    0 -0.14506811978E-01 -0.18741413967E-02 -0.17737552239E-01  0.22990884263E-01  0.00000000000E+00 0. -1.
     999901    1    3    3    0    0 -0.10576990567E+00  0.66034657702E-03 -0.37335774379E-01  0.88711987299E+00  0.88000000000E+00 0. -1.
        -11    1    4    4    0    0  0.74689531639E-01 -0.80833079722E-02  0.38577553216E-01  0.84453269548E-01  0.51100000000E-03 0.  1.
         11    1    4    4    0    0  0.45587186012E-01  0.92971027918E-02  0.16495773403E-01  0.49365973200E-01  0.51100000000E-03 0. -1.
</event>
<event>
 8    1  0.1101883E+005  0.1043930E+01  0.7957747E-01            NaN
         13   -1    0    0    0    0  0.00000000000E+00  0.00000000000E+00  0.74505805969E-08  0.10566000000E+00  0.10566000000E+00 0. -1.
     999900   -1    0    0    0    0 -0.00000000000E+00 -0.00000000000E+00 -0.74505805969E-08  0.93827000000E+00  0.93827000000E+00 0.  1.
     999902    2    1    2    0    0 -0.14956164605E-01  0.74256267015E-02  0.18163932741E-01  0.10192570341E+01  0.10189583634E+01 0.  0.
     999903    2    3    3    0    0 -0.49517748209E-01 -0.33739299832E-01  0.11615750463E+00  0.13218781792E+00  0.19766273901E-01 0.  0.
         14    1    1    2    0    0  0.14956164605E-01 -0.74256267015E-02 -0.18163932741E-01  0.24672965858E-01  0.00000000000E+00 0.  1.
     999901    1    3    3    0    0  0.34561583605E-01  0.41164926534E-01 -0.97993571887E-01  0.88706921622E+00  0.88000000000E+00 0.  1.
        -11    1    4    4    0    0 -0.34273477246E-01 -0.11597583354E-01  0.64887135819E-01  0.74295199697E-01  0.51100000000E-03 0.  1.
         11    1    4    4    0    0 -0.15244270963E-01 -0.22141716479E-01  0.51270368810E-01  0.57892618223E-01  0.51100000000E-03 0. -1.
</event>
<event>
 8    1  0.1101883E+005  0.1043930E+01  0.7957747E-01            NaN
         13   -1    0    0    0    0  0.00000000000E+00  0.00000000000E+00  0.74505805969E-08  0.10566000000E+00  0.10566000000E+00 0. -1.
     999900   -1    0    0    0    0 -0.00000000000E+00 -0.00000000000E+00 -0.74505805969E-08  0.93827000000E+00  0.93827000000E+00 0.  1.
     999902    2    1    2    0    0 -0.19828151572E-01 -0.16018185220E-01 -0.18550568147E-02  0.10183726314E+01  0.10180518834E+01 0.  0.
     999903    2    3    3    0    0  0.32695374624E-01 -0.54676651417E-01 -0.11088157338E+00  0.12924947960E+00  0.18766484208E-01 0.  0.
         14    1    1    2    0    0  0.19828151572E-01  0.16018185220E-01  0.18550568147E-02  0.25557368572E-01  0.00000000000E+00 0.  1.
     999901    1    3    3    0    0 -0.52523526196E-01  0.38658466197E-01  0.10902651656E+00  0.88912315183E+00  0.88000000000E+00 0. -1.
        -11    1    4    4    0    0  0.23394612962E-01 -0.38279657998E-01 -0.59520759672E-01  0.74536045542E-01  0.51100000000E-03 0. -1.
         11    1    4    4    0    0  0.93007616614E-02 -0.16396993419E-01 -0.51360813703E-01  0.54713434054E-01  0.51100000000E-03 0.  1.
</event>
<event>
 8    1  0.1101883E+005  0.1043930E+01  0.7957747E-01            NaN
         13   -1    0    0    0    0  0.00000000000E+00  0.00000000000E+00  0.74505805969E-08  0.10566000000E+00  0.10566000000E+00 0.  1.
     999900   -1    0    0    0    0 -0.00000000000E+00 -0.00000000000E+00 -0.74505805969E-08  0.93827000000E+00  0.93827000000E+00 0.  1.
     999902    2    1    2    0    0 -0.13715949447E-01 -0.77909167183E-03 -0.18495177944E-01  0.10208907756E+01  0.10206307706E+01 0.  0.
     999903    2    3    3    0    0  0.55444147161E-01  0.73314749872E-01 -0.92559919600E-01  0.13198211761E+00  0.20070741134E-01 0.  0.
         14    1    1    2    0    0  0.13715949447E-01  0.77909167183E-03  0.18495177944E-01  0.23039224385E-01  0.00000000000E+00 0.  1.
     999901    1    3    3    0    0 -0.69160096608E-01 -0.74093841544E-01  0.74064741656E-01  0.88890865800E+00  0.88000000000E+00 0. -1.
        -11    1    4    4    0    0  0.10319447828E-01  0.89491128185E-02 -0.56371111031E-02  0.14785660834E-01  0.51100000000E-03 0.  1.
         11    1    4    4    0    0  0.45124699333E-01  0.64365637054E-01 -0.86922808497E-01  0.11719645678E+00  0.51100000000E-03 0. -1.
</event>
<event>
 8    1  0.1296297E+005  0.1043930E+01  0.7957747E-01            NaN
         13   -1    0    0    0    0  0.00000000000E+00  0.00000000000E+00  0.74505805969E-08  0.10566000000E+00  0.10566000000E+00 0.  1.
     999900   -1    0    0    0    0 -0.00000000000E+00 -0.00000000000E+00 -0.74505805969E-08  0.93827000000E+00  0.93827000000E+00 0. -1.
     999902    2    1    2    0    0  0.67096429888E-02  0.53395175959E-03  0.23014345903E-01  0.10199515820E+01  0.10196696843E+01 0.  0.
     999903    2    3    3    0    0  0.77193872643E-01 -0.33883035599E-01  0.10089458829E+00  0.13303676769E+00  0.20300481195E-01 0.  0.
         14    1    1    2    0    0 -0.67096429888E-02 -0.53395175959E-03 -0.23014345903E-01  0.23978418023E-01  0.00000000000E+00 0. -1.
     999901    1    3    3    0    0 -0.70484229654E-01  0.34416987358E-01 -0.77880242384E-01  0.88691481429E+00  0.88000000000E+00 0. -1.
        -11    1    4    4    0    0  0.47754029029E-01 -0.10008294220E-01  0.57829343132E-01  0.75664438739E-01  0.51100000000E-03 0.  1.
         11    1    4    4    0    0  0.29439843614E-01 -0.23874741379E-01  0.43065245155E-01  0.57372328950E-01  0.51100000000E-03 0. -1.
</event>
<event>
 8    1  0.1101883E+005  0.1043930E+01  0.7957747E-01            NaN
         13   -1    0    0    0    0  0.00000000000E+00  0.00000000000E+00  0.74505805969E-08  0.10566000000E+00  0.10566000000E+00 0. -1.
     999900   -1    0    0    0    0 -0.00000000000E+00 -0.00000000000E+00 -0.74505805969E-08  0.93827000000E+00  0.93827000000E+00 0. -1.
     999902    2    1    2    0    0  0.95406489490E-02  0.18452827970E-02  0.21760775856E-01  0.10200980799E+01  0.10198196567E+01 0.  0.
     999903    2    3    3    0    0  0.11789900893E+00 -0.34632863498E-01 -0.39766623186E-01  0.13057134606E+00  0.19180212533E-01 0.  0.
         14    1    1    2    0    0 -0.95406489490E-02 -0.18452827970E-02 -0.21760775856E-01  0.23831920125E-01  0.00000000000E+00 0.  1.
     999901    1    3    3    0    0 -0.10835835998E+00  0.36478146295E-01  0.61527399042E-01  0.88952673381E+00  0.88000000000E+00 0.  1.
        -11    1    4    4    0    0  0.81647378124E-01 -0.15142160992E-01 -0.23404851768E-01  0.86276460296E-01  0.51100000000E-03 0. -1.
         11    1    4    4    0    0  0.36251630804E-01 -0.19490702506E-01 -0.16361771418E-01  0.44294885766E-01  0.51100000000E-03 0.  1.
</event>
<event>
 8    1  0.1101883E+005  0.1043930E+01  0.7957747E-01            NaN
         13   -1    0    0    0    0  0.00000000000E+00  0.00000000000E+00  0.74505805969E-08  0.10566000000E+00  0.10566000000E+00 0.  1.
     999900   -1    0    0    0    0 -0.00000000000E+00 -0.00000000000E+00 -0.74505805969E-08  0.93827000000E+00  0.93827000000E+00 0.  1.
     999902    2    1    2    0    0  0.13153457642E-01  0.54131265023E-02 -0.20374315022E-01  0.10190818995E+01  0.10187789209E+01 0.  0.
     999903    2    3    3    0    0 -0.52020306451E-01  0.43078209290E-01  0.10541274430E+00  0.12695597660E+00  0.21074366800E-01 0.  0.
         14    1    1    2    0    0 -0.13153457642E-01 -0.54131265023E-02  0.20374315022E-01  0.24848100513E-01  0.00000000000E+00 0.  1.
     999901    1    3    3    0    0  0.65173764093E-01 -0.37665082788E-01 -0.12578705932E+00  0.89212592288E+00  0.88000000000E+00 0.  1.
        -11    1    4    4    0    0 -0.18132547920E-01  0.41496607015E-02  0.35161910093E-01  0.39782282745E-01  0.51100000000E-03 0.  1.
         11    1    4    4    0    0 -0.33887758531E-01  0.38928548589E-01  0.70250834206E-01  0.87173693859E-01  0.51100000000E-03 0. -1.
</event>
<event>
 8    1  0.1101883E+005  0.1043930E+01  0.7957747E-01            NaN
         13   -1    0    0    0    0  0.00000000000E+00  0.00000000000E+00  0.74505805969E-08  0.10566000000E+00  0.10566000000E+00 0. -1.
     999900   -1    0    0    0    0 -0.00000000000E+00 -0.00000000000E+00 -0.74505805969E-08  0.93827000000E+00  0.93827000000E+00 0.  1.
     999902    2    1    2    0    0 -0.13934757168E-01 -0.85488714174E-02 -0.16889761413E-01  0.10204241560E+01  0.10201533873E+01 0.  0.
     999903    2    3    3    0    0 -0.34036680182E-01  0.12391167563E+00  0.37945369645E-02  0.13004349361E+00  0.19603896650E-01 0.  0.
         14    1    1    2    0    0  0.13934757168E-01  0.85488714174E-02  0.16889761413E-01  0.23505843963E-01  0.00000000000E+00 0. -1.
     999901    1    3    3    0    0  0.20101923014E-01 -0.13246054704E+00 -0.20684298378E-01  0.89038066243E+00  0.88000000000E+00 0.  1.
        -11    1    4    4    0    0 -0.14849845174E-01  0.34019370680E-01  0.82069625076E-02  0.38019085178E-01  0.51100000000E-03 0. -1.
         11    1    4    4    0    0 -0.19186835008E-01  0.89892304947E-01 -0.44124255431E-02  0.92024408427E-01  0.51100000000E-03 0.  1.
</event>
<event>
 8    1  0.1101883E+005  0.1043930E+01  0.7957747E-01            NaN
         13   -1    0    0    0    0  0.00000000000E+00  0.00000000000E+00  0.74505805969E-08  0.10566000000E+00  0.10566000000E+00 0. -1.
     999900   -1    0    0    0    0 -0.00000000000E+00 -0.00000000000E+00 -0.74505805969E-08  0.93827000000E+00  0.93827000000E+00 0. -1.
     999902    2    1    2    0    0  0.51202581406E-02  0.21509849021E-01  0.89302510837E-02  0.10200838256E+01  0.10198050653E+01 0.  0.
     999903    2    3    3    0    0 -0.46627392140E-02  0.13059737524E+00 -0.14108271081E-01  0.13299500880E+00  0.20278399734E-01 0.  0.
         14    1    1    2    0    0 -0.51202581406E-02 -0.21509849021E-01 -0.89302510837E-02  0.23846174384E-01  0.00000000000E+00 0. -1.
     999901    1    3    3    0    0  0.97829973546E-02 -0.10908752622E+00  0.23038522165E-01  0.88708881681E+00  0.88000000000E+00 0. -1.
        -11    1    4    4    0    0  0.68916889983E-02  0.73154696891E-01 -0.45102159331E-02  0.73618667628E-01  0.51100000000E-03 0. -1.
         11    1    4    4    0    0 -0.11554428212E-01  0.57442678351E-01 -0.95980551483E-02  0.59376341173E-01  0.51100000000E-03 0.  1.
</event>
<event>
 8    1  0.1101883E+005  0.1043930E+01  0.7957747E-01            NaN
         13   -1    0    0    0    0  0.00000000000E+00  0.00000000000E+00  0.74505805969E-08  0.10566000000E+00  0.10566000000E+00 0.  1.
     999900   -1    0    0    0    0 -0.00000000000E+00 -0.00000000000E+00 -0.74505805969E-08  0.93827000000E+00  0.93827000000E+00 0.  1.
     999902    2    1    2    0    0 -0.16271592555E-01  0.79196059064E-02 -0.13738834538E-01  0.10212090745E+01  0.10209562838E+01 0.  0.
     999903    2    3    3    0    0 -0.11711454233E+00 -0.43487322407E-01 -0.42484179600E-01  0.13349387935E+00  0.20217494249E-01 0.  0.
         14    1    1    2    0    0  0.16271592555E-01 -0.79196059064E-02  0.13738834538E-01  0.22720925520E-01  0.00000000000E+00 0. -1.
     999901    1    3    3    0    0  0.10084294977E+00  0.51406928314E-01  0.28745345062E-01  0.88771519513E+00  0.88000000000E+00 0.  1.
        -11    1    4    4    0    0 -0.23005333156E-01 -0.10441726898E-01 -0.17287303363E-01  0.30616776330E-01  0.51100000000E-03 0. -1.
         11    1    4    4    0    0 -0.94109209171E-01 -0.33045595509E-01 -0.25196876236E-01  0.10287710302E+00  0.51100000000E-03 0.  1.
</event>
<event>
 7    1  0.1101883E+005  0.1043930E+01  0.7957747E-01            NaN
         13   -1    0    0    0    0  0.00000000000E+00  0.00000000000E+00  0.74505805969E-08  0.10566000000E+00  0.10566000000E+00 0.  1.
     999900   -1    0    0    0    0 -0.00000000000E+00 -0.00000000000E+00 -0.74505805969E-08  0.93827000000E+00  0.93827000000E+00 0. -1.
     999903    2    1    2    0    0 -0.77549335575E-01  0.71890994370E-01 -0.22477034383E-01  0.10993829885E+00  0.19974933306E-01 0.  0.
         14    1    1    2    0    0  0.61919479364E-02 -0.50185290409E-01  0.13620714602E-02  0.50584175701E-01  0.00000000000E+00 0. -1.
     999901    1    1    2    0    0  0.71357387638E-01 -0.21705703962E-01  0.21114962923E-01  0.88340752545E+00  0.88000000000E+00 0. -1.
        -11    1    3    3    0    0 -0.10049671832E-01  0.93367888339E-02  0.37763045764E-02  0.14237033642E-01  0.51100000000E-03 0.  1.
         11    1    3    3    0    0 -0.67499663742E-01  0.62554205537E-01 -0.26253338959E-01  0.95701265212E-01  0.51100000000E-03 0. -1.
</event>
<event>
 8    1  0.1101883E+005  0.1043930E+01  0.7957747E-01            NaN
         13   -1    0    0    0    0  0.00000000000E+00  0.00000000000E+00  0.74505805969E-08  0.10566000000E+00  0.10566000000E+00 0. -1.
     999900   -1    0    0    0    0 -0.00000000000E+00 -0.00000000000E+00 -0.74505805969E-08  0.93827000000E+00  0.93827000000E+00 0.  1.
     999902    2    1    2    0    0  0.22019214119E-01 -0.25949958990E-03 -0.74007747493E-02  0.10206988873E+01  0.10204344829E+01 0.  0.
     999903    2    3    3    0    0 -0.10212809227E+00  0.68054232665E-01 -0.34358277699E-01  0.12895563576E+00  0.19686008566E-01 0.  0.
         14    1    1    2    0    0 -0.22019214119E-01  0.25949958990E-03  0.74007747493E-02  0.23231112701E-01  0.00000000000E+00 0.  1.
     999901    1    3    3    0    0  0.12414730639E+00 -0.68313732255E-01  0.26957502949E-01  0.89174325154E+00  0.88000000000E+00 0. -1.
        -11    1    4    4    0    0 -0.44730735810E-01  0.37269399586E-01 -0.83466405367E-02  0.58819846998E-01  0.51100000000E-03 0. -1.
         11    1    4    4    0    0 -0.57397356462E-01  0.30784833080E-01 -0.26011637162E-01  0.70135788763E-01  0.51100000000E-03 0.  1.
</event>
<event>
 8    1  0.1101883E+005  0.1043930E+01  0.7957747E-01            NaN
         13   -1    0    0    0    0  0.00000000000E+00  0.00000000000E+00  0.74505805969E-08  0.10566000000E+00  0.10566000000E+00 0. -1.
     999900   -1    0    0    0    0 -0.00000000000E+00 -0.00000000000E+00 -0.74505805969E-08  0.93827000000E+00  0.93827000000E+00 0.  1.
     999902    2    1    2    0    0 -0.18575510196E-01  0.11943598904E-01  0.87806582546E-02  0.10201644978E+01  0.10198876426E+01 0.  0.
     999903    2    3    3    0    0  0.10473146791E+00 -0.20681402571E-01  0.70064052662E-01  0.12885946812E+00  0.17302897589E-01 0.  0.
         14    1    1    2    0    0  0.18575510196E-01 -0.11943598904E-01 -0.87806582546E-02  0.23765502166E-01  0.00000000000E+00 0.  1.
     999901    1    3    3    0    0 -0.12330697811E+00  0.32625001475E-01 -0.61283394407E-01  0.89130502972E+00  0.88000000000E+00 0. -1.
        -11    1    4    4    0    0  0.71003373474E-01 -0.15321383327E-01  0.56835216729E-01  0.92231918626E-01  0.51100000000E-03 0.  1.
         11    1    4    4    0    0  0.33728094434E-01 -0.53600192443E-02  0.13228835933E-01  0.36627549490E-01  0.51100000000E-03 0. -1.
</event>
<event>
 8    1  0.1101883E+005  0.1043930E+01  0.7957747E-01            NaN
         13   -1    0    0    0    0  0.00000000000E+00  0.00000000000E+00  0.74505805969E-08  0.10566000000E+00  0.10566000000E+00 0. -1.
     999900   -1    0    0    0    0 -0.00000000000E+00 -0.00000000000E+00 -0.74505805969E-08  0.93827000000E+00  0.93827000000E+00 0. -1.
     999902    2    1    2    0    0 -0.17411570974E-01 -0.95699632120E-02  0.12754251619E-01  0.10203203000E+01  0.10200471051E+01 0.  0.
     999903    2    3    3    0    0  0.16218335030E-01  0.99000191694E-01 -0.77659217204E-01  0.12841613225E+00  0.19891622806E-01 0.  0.
         14    1    1    2    0    0  0.17411570974E-01  0.95699632120E-02 -0.12754251619E-01  0.23609699999E-01  0.00000000000E+00 0.  1.
     999901    1    3    3    0    0 -0.33629906004E-01 -0.10857015491E+00  0.90413468822E-01  0.89190416775E+00  0.88000000000E+00 0.  1.
        -11    1    4    4    0    0  0.59030126041E-02  0.61530090950E-01 -0.58399487667E-01  0.85038573194E-01  0.51100000000E-03 0. -1.
         11    1    4    4    0    0  0.10315322425E-01  0.37470100744E-01 -0.19259729537E-01  0.43377559053E-01  0.51100000000E-03 0.  1.
</event>
<event>
 8    1  0.1101883E+005  0.1043930E+01  0.7957747E-01            NaN
         13   -1    0    0    0    0  0.00000000000E+00  0.00000000000E+00  0.74505805969E-08  0.10566000000E+00  0.10566000000E+00 0.  1.
     999900   -1    0    0    0    0 -0.00000000000E+00 -0.00000000000E+00 -0.74505805969E-08  0.93827000000E+00  0.93827000000E+00 0.  1.
     999902    2    1    2    0    0  0.17933178612E-01  0.12321452794E-01  0.10013027240E-01  0.10199784278E+01  0.10196971685E+01 0.  0.
     999903    2    3    3    0    0 -0.95419296499E-01 -0.61730475964E-01 -0.54025714765E-01  0.12732315718E+00  0.19414290922E-01 0.  0.
         14    1    1    2    0    0 -0.17933178612E-01 -0.12321452794E-01 -0.10013027240E-01  0.23951572153E-01  0.00000000000E+00 0.  1.
     999901    1    3    3    0    0  0.11335247511E+00  0.74051928757E-01  0.64038742006E-01  0.89265527066E+00  0.88000000000E+00 0. -1.
        -11    1    4    4    0    0 -0.52496671749E-01 -0.28294895735E-01 -0.37538444888E-01  0.70469125402E-01  0.51100000000E-03 0. -1.
         11    1    4    4    0    0 -0.42922624750E-01 -0.33435580229E-01 -0.16487269877E-01  0.56854031781E-01  0.51100000000E-03 0.  1.
</event>
<event>
 8    1  0.1101883E+005  0.1043930E+01  0.7957747E-01            NaN
         13   -1    0    0    0    0  0.00000000000E+00  0.00000000000E+00  0.74505805969E-08  0.10566000000E+00  0.10566000000E+00 0. -1.
     999900   -1    0    0    0    0 -0.00000000000E+00 -0.00000000000E+00 -0.74505805969E-08  0.93827000000E+00  0.93827000000E+00 0.  1.
     999902    2    1    2    0    0 -0.14132751656E-01  0.15751676173E-01  0.30262253556E-02  0.10225522543E+01  0.10223287655E+01 0.  0.
     999903    2    3    3    0    0  0.65668461924E-01 -0.13783984800E-01  0.11106879721E+00  0.13187061291E+00  0.23478409393E-01 0.  0.
         14    1    1    2    0    0  0.14132751656E-01 -0.15751676173E-01 -0.30262253556E-02  0.21377745707E-01  0.00000000000E+00 0. -1.
     999901    1    3    3    0    0 -0.79801213580E-01  0.29535660973E-01 -0.10804257186E+00  0.89068164138E+00  0.88000000000E+00 0.  1.
        -11    1    4    4    0    0  0.20131434308E-01 -0.15542964802E-01  0.42747577834E-01  0.49744094462E-01  0.51100000000E-03 0.  1.
         11    1    4    4    0    0  0.45537027616E-01  0.17589800015E-02  0.68321219377E-01  0.82126518451E-01  0.51100000000E-03 0. -1.
</event>
<event>
 7    1  0.1101883E+005  0.1043930E+01  0.7957747E-01            NaN
         13   -1    0    0    0    0  0.00000000000E+00  0.00000000000E+00  0.74505805969E-08  0.10566000000E+00  0.10566000000E+00 0. -1.
     999900   -1    0    0    0    0 -0.00000000000E+00 -0.00000000000E+00 -0.74505805969E-08  0.93827000000E+00  0.93827000000E+00 0.  1.
     999903    2    1    2    0    0  0.28824270853E-01  0.20926354144E-01 -0.22950022806E-01  0.46943179247E-01  0.20204149155E-01 0.  0.
         14    1    1    2    0    0 -0.74947786637E-01 -0.82345688302E-01  0.22722307996E-01  0.11364104181E+00  0.00000000000E+00 0.  1.
     999901    1    1    2    0    0  0.46123515784E-01  0.61419334158E-01  0.22771480993E-03  0.88334577894E+00  0.88000000000E+00 0.  1.
        -11    1    3    3    0    0  0.35903878355E-02 -0.10542654218E-02  0.28112257112E-02  0.47081282256E-02  0.51100000000E-03 0. -1.
         11    1    3    3    0    0  0.25233883017E-01  0.21980619566E-01 -0.25761248518E-01  0.42235051022E-01  0.51100000000E-03 0.  1.
</event>
<event>
 8    1  0.1101883E+005  0.1043930E+01  0.7957747E-01            NaN
         13   -1    0    0    0    0  0.00000000000E+00  0.00000000000E+00  0.74505805969E-08  0.10566000000E+00  0.10566000000E+00 0.  1.
     999900   -1    0    0    0    0 -0.00000000000E+00 -0.00000000000E+00 -0.74505805969E-08  0.93827000000E+00  0.93827000000E+00 0. -1.
     999902    2    1    2    0    0 -0.16748593992E-01 -0.48628203602E-02 -0.15899544578E-01  0.10203300436E+01  0.10200570768E+01 0.  0.
     999903    2    3    3    0    0  0.19394464125E-01  0.54048075707E-03  0.12526426379E+00  0.12833075154E+00  0.20030193453E-01 0.  0.
         14    1    1    2    0    0  0.16748593992E-01  0.48628203602E-02  0.15899544578E-01  0.23599956364E-01  0.00000000000E+00 0.  1.
     999901    1    3    3    0    0 -0.36143058117E-01 -0.54033011173E-02 -0.14116380837E+00  0.89199929210E+00  0.88000000000E+00 0. -1.
        -11    1    4    4    0    0  0.56052982233E-02 -0.72844571957E-02  0.21896541120E-01  0.23752943372E-01  0.51100000000E-03 0. -1.
         11    1    4    4    0    0  0.13789165901E-01  0.78249379528E-02  0.10336772267E+00  0.10457780817E+00  0.51100000000E-03 0.  1.
</event>
<event>
 8    1  0.1101883E+005  0.1043930E+01  0.7957747E-01            NaN
         13   -1    0    0    0    0  0.00000000000E+00  0.00000000000E+00  0.74505805969E-08  0.10566000000E+00  0.10566000000E+00 0.  1.
     999900   -1    0    0    0    0 -0.00000000000E+00 -0.00000000000E+00 -0.74505805969E-08  0.93827000000E+00  0.93827000000E+00 0. -1.
     999902    2    1    2    0    0  0.18078657528E-01 -0.35367269594E-02 -0.16242521713E-01  0.10193705658E+01  0.10190746708E+01 0.  0.
     999903    2    3    3    0    0  0.88487713262E-03 -0.12410388441E+00  0.35231397645E-01  0.12949325410E+00  0.11166662126E-01 0.  0.
         14    1    1    2    0    0 -0.18078657528E-01  0.35367269594E-02  0.16242521713E-01  0.24559434179E-01  0.00000000000E+00 0.  1.
     999901    1    3    3    0    0  0.17193780396E-01  0.12056715746E+00 -0.51473919358E-01  0.88987731172E+00  0.88000000000E+00 0. -1.
        -11    1    4    4    0    0  0.34280816048E-02 -0.17702466136E-01  0.72708893862E-02  0.19448804700E-01  0.51100000000E-03 0.  1.
         11    1    4    4    0    0 -0.25432044722E-02 -0.10640141828E+00  0.27960508259E-01  0.11004444940E+00  0.51100000000E-03 0. -1.
</event>
<event>
 8    1  0.1101883E+005  0.1043930E+01  0.7957747E-01            NaN
         13   -1    0    0    0    0  0.00000000000E+00  0.00000000000E+00  0.74505805969E-08  0.10566000000E+00  0.10566000000E+00 0. -1.
     999900   -1    0    0    0    0 -0.00000000000E+00 -0.00000000000E+00 -0.74505805969E-08  0.93827000000E+00  0.93827000000E+00 0. -1.
     999902    2    1    2    0    0 -0.27768390255E-02  0.23481691609E-01  0.16378055127E-03  0.10202841230E+01  0.10200100804E+01 0.  0.
     999903    2    3    3    0    0 -0.12864114025E+00  0.62894357251E-02 -0.67509763456E-02  0.13113553594E+00  0.23724526099E-01 0.  0.
         14    1    1    2    0    0  0.27768390255E-02 -0.23481691609E-01 -0.16378055127E-03  0.23645877016E-01  0.00000000000E+00 0. -1.
     999901    1    3    3    0    0  0.12586430122E+00  0.17192255884E-01  0.69147568968E-02  0.88914858705E+00  0.88000000000E+00 0.  1.
        -11    1    4    4    0    0 -0.45219763519E-01 -0.40539021943E-03 -0.13435083105E-01  0.47177896658E-01  0.51100000000E-03 0.  1.
         11    1    4    4    0    0 -0.83421376726E-01  0.66948259445E-02  0.66841067597E-02  0.83957639280E-01  0.51100000000E-03 0. -1.
</event>
<event>
 8    1  0.1101883E+005  0.1043930E+01  0.7957747E-01            NaN
         13   -1    0    0    0    0  0.00000000000E+00  0.00000000000E+00  0.74505805969E-08  0.10566000000E+00  0.10566000000E+00 0. -1.
     999900   -1    0    0    0    0 -0.00000000000E+00 -0.00000000000E+00 -0.74505805969E-08  0.93827000000E+00  0.93827000000E+00 0.  1.
     999902    2    1    2    0    0 -0.11709893730E-01 -0.63246141831E-03  0.21572040759E-01  0.10193764960E+01  0.10190807455E+01 0.  0.
     999903    2    3    3    0    0 -0.11985592299E+00  0.43880961208E-01  0.26800462409E-01  0.13162408405E+00  0.17766645250E-01 0.  0.
         14    1    1    2    0    0  0.11709893730E-01  0.63246141831E-03 -0.21572040759E-01  0.24553504050E-01  0.00000000000E+00 0.  1.
     999901    1    3    3    0    0  0.10814602927E+00 -0.44513422627E-01 -0.52284216495E-02  0.88775241190E+00  0.88000000000E+00 0. -1.
        -11    1    4    4    0    0 -0.33759172645E-01  0.20491347111E-01  0.11195446881E-01  0.41050897627E-01  0.51100000000E-03 0. -1.
         11    1    4    4    0    0 -0.86096750350E-01  0.23389614098E-01  0.15605015527E-01  0.90573186425E-01  0.51100000000E-03 0.  1.
</event>
<event>
 8    1  0.1101883E+005  0.1043930E+01  0.7957747E-01            NaN
         13   -1    0    0    0    0  0.00000000000E+00  0.00000000000E+00  0.74505805969E-08  0.10566000000E+00  0.10566000000E+00 0.  1.
     999900   -1    0    0    0    0 -0.00000000000E+00 -0.00000000000E+00 -0.74505805969E-08  0.93827000000E+00  0.93827000000E+00 0.  1.
     999902    2    1    2    0    0 -0.10286627071E-01 -0.10024902458E-01 -0.18375903800E-01  0.10206064667E+01  0.10203399299E+01 0.  0.
     999903    2    3    3    0    0 -0.25057422706E-01  0.12096286614E+00 -0.37079112460E-01  0.13059198257E+00  0.20482087615E-01 0.  0.
         14    1    1    2    0    0  0.10286627071E-01  0.10024902458E-01  0.18375903800E-01  0.23323533314E-01  0.00000000000E+00 0.  1.
     999901    1    3    3    0    0  0.14770795635E-01 -0.13098776860E+00  0.18703208660E-01  0.89001448412E+00  0.88000000000E+00 0. -1.
        -11    1    4    4    0    0 -0.12086875163E-01  0.45020150166E-01 -0.41361112769E-02  0.46800374033E-01  0.51100000000E-03 0.  1.
         11    1    4    4    0    0 -0.12970547543E-01  0.75942715973E-01 -0.32943001183E-01  0.83791608535E-01  0.51100000000E-03 0. -1.
</event>
<event>
 8    1  0.1101883E+005  0.1043930E+01  0.7957747E-01            NaN
         13   -1    0    0    0    0  0.00000000000E+00  0.00000000000E+00  0.74505805969E-08  0.10566000000E+00  0.10566000000E+00 0.  1.
     999900   -1    0    0    0    0 -0.00000000000E+00 -0.00000000000E+00 -0.74505805969E-08  0.93827000000E+00  0.93827000000E+00 0. -1.
     999902    2    1    2    0    0  0.17940881218E-02  0.18141245499E-01 -0.15175503693E-01  0.10202103994E+01  0.10199346252E+01 0.  0.
     999903    2    3    3    0    0  0.25220329263E-01 -0.11666892342E+00  0.40934035132E-01  0.12787030125E+00  0.20676460259E-01 0.  0.
         14    1    1    2    0    0 -0.17940881218E-02 -0.18141245499E-01  0.15175503693E-01  0.23719600603E-01  0.00000000000E+00 0.  1.
     999901    1    3    3    0    0 -0.23426241141E-01  0.13481016892E+00 -0.56109538826E-01  0.89234009815E+00  0.88000000000E+00 0.  1.
        -11    1    4    4    0    0  0.25726576838E-03 -0.94235020456E-02 -0.20562319837E-02  0.96621833687E-02  0.51100000000E-03 0.  1.
         11    1    4    4    0    0  0.24963063494E-01 -0.10724542137E+00  0.42990267116E-01  0.11820811788E+00  0.51100000000E-03 0. -1.
</event>
<event>
 8    1  0.1101883E+005  0.1043930E+01  0.7957747E-01            NaN
         13   -1    0    0    0    0  0.00000000000E+00  0.00000000000E+00  0.74505805969E-08  0.10566000000E+00  0.10566000000E+00 0. -1.
     999900   -1    0    0    0    0 -0.00000000000E+00 -0.00000000000E+00 -0.74505805969E-08  0.93827000000E+00  0.93827000000E+00 0. -1.
     999902    2    1    2    0    0  0.21952919299E-01  0.41936222998E-02  0.30150767542E-02  0.10213776648E+01  0.10211286532E+01 0.  0.
     999903    2    3    3    0    0  0.49226908075E-01  0.49104052232E-01 -0.11091761100E+00  0.13247864103E+00  0.20331686487E-01 0.  0.
         14    1    1    2    0    0 -0.21952919299E-01 -0.41936222998E-02 -0.30150767542E-02  0.22552335169E-01  0.00000000000E+00 0. -1.
     999901    1    3    3    0    0 -0.27273988777E-01 -0.44910429933E-01  0.11393268775E+00  0.88889902380E+00  0.88000000000E+00 0.  1.
        -11    1    4    4    0    0  0.33881969058E-01  0.26938311506E-01 -0.83325502281E-01  0.93899206096E-01  0.51100000000E-03 0.  1.
         11    1    4    4    0    0  0.15344939017E-01  0.22165740726E-01 -0.27592108715E-01  0.38579434933E-01  0.51100000000E-03 0. -1.
</event>
<event>
 8    1  0.1101883E+005  0.1043930E+01  0.7957747E-01            NaN
         13   -1    0    0    0    0  0.00000000000E+00  0.00000000000E+00  0.74505805969E-08  0.10566000000E+00  0.10566000000E+00 0.  1.
     999900   -1    0    0    0    0 -0.00000000000E+00 -0.00000000000E+00 -0.74505805969E-08  0.93827000000E+00  0.93827000000E+00 0. -1.
     999902    2    1    2    0    0 -0.12452100716E-01 -0.78077462399E-03  0.19324854345E-01  0.10209275128E+01  0.10206683457E+01 0.  0.
     999903    2    3    3    0    0  0.19723037753E-01 -0.11023295726E-01  0.13016548683E+00  0.13333199988E+00  0.17996026297E-01 0.  0.
         14    1    1    2    0    0  0.12452100716E-01  0.78077462399E-03 -0.19324854345E-01  0.23002487186E-01  0.00000000000E+00 0. -1.
     999901    1    3    3    0    0 -0.32175138469E-01  0.10242521102E-01 -0.11084063249E+00  0.88759551294E+00  0.88000000000E+00 0. -1.
        -11    1    4    4    0    0  0.10023739208E-01 -0.18570727265E-02  0.20963218265E-01  0.23316125490E-01  0.51100000000E-03 0.  1.
         11    1    4    4    0    0  0.96992985446E-02 -0.91662229995E-02  0.10920226857E+00  0.11001587439E+00  0.51100000000E-03 0. -1.
</event>
<event>
 8    1  0.1101883E+005  0.1043930E+01  0.7957747E-01            NaN
         13   -1    0    0    0    0  0.00000000000E+00  0.00000000000E+00  0.74505805969E-08  0.10566000000E+00  0.10566000000E+00 0. -1.
     999900   -1    0    0    0    0 -0.00000000000E+00 -0.00000000000E+00 -0.74505805969E-08  0.93827000000E+00  0.93827000000E+00 0.  1.
     999902    2    1    2    0    0  0.39753906377E-02 -0.23406788201E-01 -0.75246223152E-02  0.10190241492E+01  0.10187197432E+01 0.  0.
     999903    2    3    3    0    0  0.84574609783E-01 -0.58573400355E-01  0.77791000063E-01  0.13053572484E+00  0.20110393357E-01 0.  0.
         14    1    1    2    0    0 -0.39753906377E-02  0.23406788201E-01  0.75246223152E-02  0.24905850830E-01  0.00000000000E+00 0.  1.
     999901    1    3    3    0    0 -0.80599219145E-01  0.35166612155E-01 -0.85315622378E-01  0.88848842432E+00  0.88000000000E+00 0.  1.
        -11    1    4    4    0    0  0.54347907066E-01 -0.25752010775E-01  0.42478391300E-01  0.73631079782E-01  0.51100000000E-03 0.  1.
         11    1    4    4    0    0  0.30226702716E-01 -0.32821389581E-01  0.35312608762E-01  0.56904645063E-01  0.51100000000E-03 0. -1.
</event>
<event>
 8    1  0.1101883E+005  0.1043930E+01  0.7957747E-01            NaN
         13   -1    0    0    0    0  0.00000000000E+00  0.00000000000E+00  0.74505805969E-08  0.10566000000E+00  0.10566000000E+00 0. -1.
     999900   -1    0    0    0    0 -0.00000000000E+00 -0.00000000000E+00 -0.74505805969E-08  0.93827000000E+00  0.93827000000E+00 0. -1.
     999902    2    1    2    0    0 -0.58067036599E-02 -0.22273678833E-01 -0.24155097192E-02  0.10207854701E+01  0.10205230555E+01 0.  0.
     999903    2    3    3    0    0  0.12438064238E+00  0.30220505832E-01  0.43612890932E-02  0.12963435527E+00  0.20055474379E-01 0.  0.
         14    1    1    2    0    0  0.58067036599E-02  0.22273678833E-01  0.24155097192E-02  0.23144529880E-01  0.00000000000E+00 0. -1.
     999901    1    3    3    0    0 -0.13018734604E+00 -0.52494184665E-01 -0.67767988124E-02  0.89115111485E+00  0.88000000000E+00 0. -1.
        -11    1    4    4    0    0  0.41531742977E-01  0.94468311985E-03  0.42604762828E-02  0.41763511347E-01  0.51100000000E-03 0.  1.
         11    1    4    4    0    0  0.82848899404E-01  0.29275822712E-01  0.10081281040E-03  0.87870843925E-01  0.51100000000E-03 0. -1.
</event>
<event>
 8    1  0.1101883E+005  0.1043930E+01  0.7957747E-01            NaN
         13   -1    0    0    0    0  0.00000000000E+00  0.00000000000E+00  0.74505805969E-08  0.10566000000E+00  0.10566000000E+00 0.  1.
     999900   -1    0    0    0    0 -0.00000000000E+00 -0.00000000000E+00 -0.74505805969E-08  0.93827000000E+00  0.93827000000E+00 0.  1.
     999902    2    1    2    0    0  0.21546514132E-01  0.22259815283E-02  0.72417493859E-02  0.10210903371E+01  0.10208348674E+01 0.  0.
     999903    2    3    3    0    0  0.88386058570E-01 -0.83307682731E-01  0.51093029994E-01  0.13333672987E+00  0.20394128248E-01 0.  0.
         14    1    1    2    0    0 -0.21546514132E-01 -0.22259815283E-02 -0.72417493859E-02  0.22839662852E-01  0.00000000000E+00 0. -1.
     999901    1    3    3    0    0 -0.66839544438E-01  0.85533664260E-01 -0.43851280609E-01  0.88775360728E+00  0.88000000000E+00 0.  1.
        -11    1    4    4    0    0  0.39902078304E-01 -0.50896415911E-01  0.23448270764E-01  0.68794647528E-01  0.51100000000E-03 0. -1.
         11    1    4    4    0    0  0.48483980266E-01 -0.32411266820E-01  0.27644759230E-01  0.64542082343E-01  0.51100000000E-03 0.  1.
</event>
<event>
 8    1  0.1101883E+005  0.1043930E+01  0.7957747E-01            NaN
         13   -1    0    0    0    0  0.00000000000E+00  0.00000000000E+00  0.74505805969E-08  0.10566000000E+00  0.10566000000E+00 0.  1.
     999900   -1    0    0    0    0 -0.00000000000E+00 -0.00000000000E+00 -0.74505805969E-08  0.93827000000E+00  0.93827000000E+00 0.  1.
     999902    2    1    2    0    0 -0.19989209856E-02  0.24209101252E-01 -0.42089333393E-02  0.10192765745E+01  0.10189783825E+01 0.  0.
     999903    2    3    3    0    0  0.64971059527E-01  0.63021872741E-01 -0.93158550548E-01  0.13141203308E+00  0.19940207600E-01 0.  0.
         14    1    1    2    0    0  0.19989209856E-02 -0.24209101252E-01  0.42089333393E-02  0.24653425490E-01  0.00000000000E+00 0.  1.
     999901    1    3    3    0    0 -0.66969980513E-01 -0.38812771488E-01  0.88949617209E-01  0.88786454143E+00  0.88000000000E+00 0. -1.
        -11    1    4    4    0    0  0.39292859000E-01  0.34662477761E-01 -0.67030953525E-01  0.85081290449E-01  0.51100000000E-03 0.  1.
         11    1    4    4    0    0  0.25678200527E-01  0.28359394979E-01 -0.26127597023E-01  0.46330742635E-01  0.51100000000E-03 0. -1.
</event>
<event>
 8    1  0.1101883E+005  0.1043930E+01  0.7957747E-01            NaN
         13   -1    0    0    0    0  0.00000000000E+00  0.00000000000E+00  0.74505805969E-08  0.10566000000E+00  0.10566000000E+00 0. -1.
     999900   -1    0    0    0    0 -0.00000000000E+00 -0.00000000000E+00 -0.74505805969E-08  0.93827000000E+00  0.93827000000E+00 0. -1.
     999902    2    1    2    0    0 -0.14387602343E-01  0.15084849038E-01 -0.96125311662E-02  0.10209744663E+01  0.10207163682E+01 0.  0.
     999903    2    3    3    0    0  0.44299281743E-01  0.10183931963E+00  0.67993911999E-01  0.13137160629E+00  0.17368174491E-01 0.  0.
         14    1    1    2    0    0  0.14387602343E-01 -0.15084849038E-01  0.96125311662E-02  0.22955533692E-01  0.00000000000E+00 0.  1.
     999901    1    3    3    0    0 -0.58686884085E-01 -0.86754470589E-01 -0.77606443165E-01  0.88960286002E+00  0.88000000000E+00 0. -1.
        -11    1    4    4    0    0  0.14108325895E-02  0.15617755411E-01  0.57695445670E-02  0.16716862690E-01  0.51100000000E-03 0.  1.
         11    1    4    4    0    0  0.42888449153E-01  0.86221564216E-01  0.62224367432E-01  0.11465474360E+00  0.51100000000E-03 0. -1.
</event>
<event>
 8    1  0.1101883E+005  0.1043930E+01  0.7957747E-01            NaN
         13   -1    0    0    0    0  0.00000000000E+00  0.00000000000E+00  0.74505805969E-08  0.10566000000E+00  0.10566000000E+00 0.  1.
     999900   -1    0    0    0    0 -0.00000000000E+00 -0.00000000000E+00 -0.74505805969E-08  0.93827000000E+00  0.93827000000E+00 0.  1.
     999902    2    1    2    0    0  0.66132481601E-03 -0.15714088679E-01 -0.17070029242E-01  0.10207188856E+01  0.10204549415E+01 0.  0.
     999903    2    3    3    0    0 -0.13360354954E-01  0.12634650920E+00 -0.13108674912E-01  0.12920696010E+00  0.19510553777E-01 0.  0.
         14    1    1    2    0    0 -0.66132481601E-03  0.15714088679E-01  0.17070029242E-01  0.23211114404E-01  0.00000000000E+00 0.  1.
     999901    1    3    3    0    0  0.14021679770E-01 -0.14206059788E+00 -0.39613543300E-02  0.89151192550E+00  0.88000000000E+00 0.  1.
        -11    1    4    4    0    0 -0.20198674569E-02  0.29619014094E-01  0.51029119213E-02  0.30127507224E-01  0.51100000000E-03 0.  1.
         11    1    4    4    0    0 -0.11340487497E-01  0.96727495107E-01 -0.18211586833E-01  0.99079452876E-01  0.51100000000E-03 0. -1.
</event>
<event>
 8    1  0.1101883E+005  0.1043930E+01  0.7957747E-01            NaN
         13   -1    0    0    0    0  0.00000000000E+00  0.00000000000E+00  0.74505805969E-08  0.10566000000E+00  0.10566000000E+00 0. -1.
     999900   -1    0    0    0    0 -0.00000000000E+00 -0.00000000000E+00 -0.74505805969E-08  0.93827000000E+00  0.93827000000E+00 0. -1.
     999902    2    1    2    0    0 -0.22962797082E-01 -0.27494326667E-02  0.62795931656E-02  0.10199658034E+01  0.10196842439E+01 0.  0.
     999903    2    3    3    0    0  0.78376966139E-02  0.10441620415E+00  0.70315561826E-01  0.13062124168E+00  0.33962587737E-01 0.  0.
         14    1    1    2    0    0  0.22962797082E-01  0.27494326667E-02 -0.62795931656E-02  0.23964196630E-01  0.00000000000E+00 0.  1.
     999901    1    3    3    0    0 -0.30800493696E-01 -0.10716563682E+00 -0.64035968660E-01  0.88934456169E+00  0.88000000000E+00 0.  1.
        -11    1    4    4    0    0  0.20877836369E-01  0.65233800073E-01  0.39259295664E-01  0.78948629757E-01  0.51100000000E-03 0.  1.
         11    1    4    4    0    0 -0.13040139755E-01  0.39182404076E-01  0.31056266162E-01  0.51672611923E-01  0.51100000000E-03 0. -1.
</event>
<event>
 8    1  0.1101883E+005  0.1043930E+01  0.7957747E-01            NaN
         13   -1    0    0    0    0  0.00000000000E+00  0.00000000000E+00  0.74505805969E-08  0.10566000000E+00  0.10566000000E+00 0. -1.
     999900   -1    0    0    0    0 -0.00000000000E+00 -0.00000000000E+00 -0.74505805969E-08  0.93827000000E+00  0.93827000000E+00 0. -1.
     999902    2    1    2    0    0  0.37698630558E-02  0.22861836609E-01 -0.50352019308E-02  0.10202186378E+01  0.10199430573E+01 0.  0.
     999903    2    3    3    0    0 -0.11180436398E+00 -0.16871742901E-01  0.59827282530E-01  0.12940816343E+00  0.19552429860E-01 0.  0.
         14    1    1    2    0    0 -0.37698630558E-02 -0.22861836609E-01  0.50352019308E-02  0.23711362236E-01  0.00000000000E+00 0.  1.
     999901    1    3    3    0    0  0.11557422704E+00  0.39733579510E-01 -0.64862484460E-01  0.89081047434E+00  0.88000000000E+00 0. -1.
        -11    1    4    4    0    0 -0.33737000388E-01 -0.14167737388E-01  0.20640173186E-01  0.42014138668E-01  0.51100000000E-03 0.  1.
         11    1    4    4    0    0 -0.78067363593E-01 -0.27040055133E-02  0.39187109343E-01  0.87394024760E-01  0.51100000000E-03 0. -1.
</event>
<event>
 8    1  0.1101883E+005  0.1043930E+01  0.7957747E-01            NaN
         13   -1    0    0    0    0  0.00000000000E+00  0.00000000000E+00  0.74505805969E-08  0.10566000000E+00  0.10566000000E+00 0. -1.
     999900   -1    0    0    0    0 -0.00000000000E+00 -0.00000000000E+00 -0.74505805969E-08  0.93827000000E+00  0.93827000000E+00 0.  1.
     999902    2    1    2    0    0 -0.13341560649E-01 -0.10606873532E-02  0.19511666500E-01  0.10202693274E+01  0.10199949377E+01 0.  0.
     999903    2    3    3    0    0  0.48750027677E-01  0.73365151093E-01  0.95735217845E-01  0.13167234308E+00  0.20331340394E-01 0.  0.
         14    1    1    2    0    0  0.13341560649E-01  0.10606873532E-02 -0.19511666500E-01  0.23660672599E-01  0.00000000000E+00 0.  1.
     999901    1    3    3    0    0 -0.62091588326E-01 -0.74425838447E-01 -0.76223551345E-01  0.88859698432E+00  0.88000000000E+00 0. -1.
        -11    1    4    4    0    0  0.45363019995E-01  0.53769644247E-01  0.71313293291E-01  0.10017397440E+00  0.51100000000E-03 0. -1.
         11    1    4    4    0    0  0.33870076822E-02  0.19595506847E-01  0.24421924554E-01  0.31498368680E-01  0.51100000000E-03 0.  1.
</event>
<event>
 8    1  0.1101883E+005  0.1043930E+01  0.7957747E-01            NaN
         13   -1    0    0    0    0  0.00000000000E+00  0.00000000000E+00  0.74505805969E-08  0.10566000000E+00  0.10566000000E+00 0. -1.
     999900   -1    0    0    0    0 -0.00000000000E+00 -0.00000000000E+00 -0.74505805969E-08  0.93827000000E+00  0.93827000000E+00 0.  1.
     999902    2    1    2    0    0  0.17617218852E-01 -0.89236695389E-02 -0.13264965430E-01  0.10201401369E+01  0.10198627071E+01 0.  0.
     999903    2    3    3    0    0 -0.55007790175E-01 -0.31360866117E-01 -0.11310860642E+00  0.13123824560E+00  0.20507543898E-01 0.  0.
         14    1    1    2    0    0 -0.17617218852E-01  0.89236695389E-02  0.13264965430E-01  0.23789863093E-01  0.00000000000E+00 0. -1.
     999901    1    3    3    0    0  0.72625009027E-01  0.22437196578E-01  0.99843640995E-01  0.88890189131E+00  0.88000000000E+00 0. -1.
        -11    1    4    4    0    0 -0.17785239404E-02 -0.74075399718E-02 -0.19245561562E-01  0.20704771350E-01  0.51100000000E-03 0.  1.
         11    1    4    4    0    0 -0.53229266235E-01 -0.23953326145E-01 -0.93863044863E-01  0.11053347425E+00  0.51100000000E-03 0. -1.
</event>
<event>
 8    1  0.1101883E+005  0.1043930E+01  0.7957747E-01            NaN
         13   -1    0    0    0    0  0.00000000000E+00  0.00000000000E+00  0.74505805969E-08  0.10566000000E+00  0.10566000000E+00 0.  1.
     999900   -1    0    0    0    0 -0.00000000000E+00 -0.00000000000E+00 -0.74505805969E-08  0.93827000000E+00  0.93827000000E+00 0. -1.
     999902    2    1    2    0    0  0.21653152766E-01 -0.86245008482E-02  0.10049888733E-01  0.10185480910E+01  0.10182317872E+01 0.  0.
     999903    2    3    3    0    0 -0.73569555625E-01  0.16094578640E-01 -0.98657107449E-01  0.12641827530E+00  0.24017504118E-01 0.  0.
         14    1    1    2    0    0 -0.21653152766E-01  0.86245008482E-02 -0.10049888733E-01  0.25381908973E-01  0.00000000000E+00 0. -1.
     999901    1    3    3    0    0  0.95222708390E-01 -0.24719079488E-01  0.10870699618E+00  0.89212981572E+00  0.88000000000E+00 0.  1.
        -11    1    4    4    0    0 -0.12494635136E-01  0.52993496480E-02 -0.58373430398E-02  0.14782919490E-01  0.51100000000E-03 0.  1.
         11    1    4    4    0    0 -0.61074920489E-01  0.10795228992E-01 -0.92819764409E-01  0.11163535581E+00  0.51100000000E-03 0. -1.
</event>
<event>
 8    1  0.1101883E+005  0.1043930E+01  0.7957747E-01            NaN
         13   -1    0    0    0    0  0.00000000000E+00  0.00000000000E+00  0.74505805969E-08  0.10566000000E+00  0.10566000000E+00 0.  1.
     999900   -1    0    0    0    0 -0.00000000000E+00 -0.00000000000E+00 -0.74505805969E-08  0.93827000000E+00  0.93827000000E+00 0. -1.
     999902    2    1    2    0    0 -0.46696192693E-02  0.17376109410E-01  0.14739614425E-01  0.10206707920E+01  0.10204057403E+01 0.  0.
     999903    2    3    3    0    0  0.10771857231E+00  0.33100025394E-01  0.65561878373E-01  0.13192940689E+00  0.20201633686E-01 0.  0.
         14    1    1    2    0    0  0.46696192693E-02 -0.17376109410E-01 -0.14739614425E-01  0.23259207977E-01  0.00000000000E+00 0. -1.
     999901    1    3    3    0    0 -0.11238819158E+00 -0.15723915984E-01 -0.50822263949E-01  0.88874138514E+00  0.88000000000E+00 0.  1.
        -11    1    4    4    0    0  0.98535840781E-01  0.26370355339E-01  0.64017052787E-01  0.12042903191E+00  0.51100000000E-03 0.  1.
         11    1    4    4    0    0  0.91827315309E-02  0.67296700554E-02  0.15448255859E-02  0.11500374973E-01  0.51100000000E-03 0. -1.
</event>
<event>
 8    1  0.1101883E+005  0.1043930E+01  0.7957747E-01            NaN
         13   -1    0    0    0    0  0.00000000000E+00  0.00000000000E+00  0.74505805969E-08  0.10566000000E+00  0.10566000000E+00 0.  1.
     999900   -1    0    0    0    0 -0.00000000000E+00 -0.00000000000E+00 -0.74505805969E-08  0.93827000000E+00  0.93827000000E+00 0. -1.
     999902    2    1    2    0    0 -0.18585723600E-01 -0.98815996261E-02 -0.16880923708E-01  0.10169477703E+01  0.10165897535E+01 0.  0.
     999903    2    3    3    0    0 -0.12384828797E-01  0.48785797726E-01  0.11313270800E+00  0.12544125939E+00  0.20076401437E-01 0.  0.
         14    1    1    2    0    0  0.18585723600E-01  0.98815996261E-02  0.16880923708E-01  0.26982229673E-01  0.00000000000E+00 0.  1.
     999901    1    3    3    0    0 -0.62008948031E-02 -0.58667397352E-01 -0.13001363171E+00  0.89150651093E+00  0.88000000000E+00 0. -1.
        -11    1    4    4    0    0  0.31802553146E-02  0.22694464881E-01  0.37740070883E-01  0.44155711197E-01  0.51100000000E-03 0. -1.
         11    1    4    4    0    0 -0.15565084112E-01  0.26091332845E-01  0.75392637117E-01  0.81285548196E-01  0.51100000000E-03 0.  1.
</event>
<event>
 8    1  0.1101883E+005  0.1043930E+01  0.7957747E-01            NaN
         13   -1    0    0    0    0  0.00000000000E+00  0.00000000000E+00  0.74505805969E-08  0.10566000000E+00  0.10566000000E+00 0.  1.
     999900   -1    0    0    0    0 -0.00000000000E+00 -0.00000000000E+00 -0.74505805969E-08  0.93827000000E+00  0.93827000000E+00 0. -1.
     999902    2    1    2    0    0  0.59171577311E-02  0.21643083555E-01 -0.11729650684E-01  0.10186116168E+01  0.10182969142E+01 0.  0.
     999903    2    3    3    0    0  0.10840750173E+00 -0.59462339789E-01 -0.33074899921E-01  0.12870264397E+00  0.13507970792E-01 0.  0.
         14    1    1    2    0    0 -0.59171577311E-02 -0.21643083555E-01  0.11729650684E-01  0.25318383174E-01  0.00000000000E+00 0.  1.
     999901    1    3    3    0    0 -0.10249034400E+00  0.81105423345E-01  0.21345249237E-01  0.88990897286E+00  0.88000000000E+00 0.  1.
        -11    1    4    4    0    0  0.82979774241E-01 -0.46577075424E-01 -0.19551518050E-01  0.97147258671E-01  0.51100000000E-03 0. -1.
         11    1    4    4    0    0  0.25427727488E-01 -0.12885264366E-01 -0.13523381871E-01  0.31555385297E-01  0.51100000000E-03 0.  1.
</event>
<event>
 8    1  0.1101883E+005  0.1043930E+01  0.7957747E-01            NaN
         13   -1    0    0    0    0  0.00000000000E+00  0.00000000000E+00  0.74505805969E-08  0.10566000000E+00  0.10566000000E+00 0. -1.
     999900   -1    0    0    0    0 -0.00000000000E+00 -0.00000000000E+00 -0.74505805969E-08  0.93827000000E+00  0.93827000000E+00 0. -1.
     999902    2    1    2    0    0 -0.70410187869E-02 -0.11067945483E-01  0.19763366025E-01  0.10202094182E+01  0.10199336209E+01 0.  0.
     999903    2    3    3    0    0 -0.25934306040E-01  0.69534325075E-01 -0.10210049851E+00  0.12796254443E+00  0.21030701085E-01 0.  0.
         14    1    1    2    0    0  0.70410187869E-02  0.11067945483E-01 -0.19763366025E-01  0.23720581768E-01  0.00000000000E+00 0.  1.
     999901    1    3    3    0    0  0.18893287253E-01 -0.80602270558E-01  0.12186386454E+00  0.89224687380E+00  0.88000000000E+00 0.  1.
        -11    1    4    4    0    0 -0.10464658036E-01  0.13351005380E-01 -0.12500312714E-01  0.21077887736E-01  0.51100000000E-03 0.  1.
         11    1    4    4    0    0 -0.15469648004E-01  0.56183319695E-01 -0.89600185799E-01  0.10688465670E+00  0.51100000000E-03 0. -1.
</event>
<event>
 8    1  0.1101883E+005  0.1043930E+01  0.7957747E-01            NaN
         13   -1    0    0    0    0  0.00000000000E+00  0.00000000000E+00  0.74505805969E-08  0.10566000000E+00  0.10566000000E+00 0.  1.
     999900   -1    0    0    0    0 -0.00000000000E+00 -0.00000000000E+00 -0.74505805969E-08  0.93827000000E+00  0.93827000000E+00 0.  1.
     999902    2    1    2    0    0 -0.60739854344E-02  0.10564765990E-01  0.19465422023E-01  0.10209645861E+01  0.10207062633E+01 0.  0.
     999903    2    3    3    0    0  0.12311269381E+00 -0.32265826213E-01  0.20506922262E-01  0.13050136823E+00  0.20304047144E-01 0.  0.
         14    1    1    2    0    0  0.60739854344E-02 -0.10564765990E-01 -0.19465422023E-01  0.22965413865E-01  0.00000000000E+00 0. -1.
     999901    1    3    3    0    0 -0.12918667924E+00  0.42830592203E-01 -0.10415002391E-02  0.89046321791E+00  0.88000000000E+00 0.  1.
        -11    1    4    4    0    0  0.22235279888E-01 -0.96425105146E-02 -0.31490109030E-02  0.24445103219E-01  0.51100000000E-03 0.  1.
         11    1    4    4    0    0  0.10087741392E+00 -0.22623315698E-01  0.23655933165E-01  0.10605626501E+00  0.51100000000E-03 0. -1.
</event>
<event>
 8    1  0.1101883E+005  0.1043930E+01  0.7957747E-01            NaN
         13   -1    0    0    0    0  0.00000000000E+00  0.00000000000E+00  0.74505805969E-08  0.10566000000E+00  0.10566000000E+00 0.  1.
     999900   -1    0    0    0    0 -0.00000000000E+00 -0.00000000000E+00 -0.74505805969E-08  0.93827000000E+00  0.93827000000E+00 0.  1.
     999902    2    1    2    0    0  0.89867729492E-02  0.44096908523E-02  0.21554206550E-01  0.10201646622E+01  0.10198878108E+01 0.  0.
     999903    2    3    3    0    0 -0.81658548488E-01  0.98115292761E-01 -0.13016669199E-01  0.12988804249E+00  0.20167813219E-01 0.  0.
         14    1    1    2    0    0 -0.89867729492E-02 -0.44096908523E-02 -0.21554206550E-01  0.23765337814E-01  0.00000000000E+00 0. -1.
     999901    1    3    3    0    0  0.90645321437E-01 -0.93705601908E-01  0.34570875748E-01  0.89027661970E+00  0.88000000000E+00 0.  1.
        -11    1    4    4    0    0 -0.79529195573E-02  0.19135203219E-01  0.19741808060E-02  0.20822186307E-01  0.51100000000E-03 0. -1.
         11    1    4    4    0    0 -0.73705628931E-01  0.78980089541E-01 -0.14990850005E-01  0.10906585618E+00  0.51100000000E-03 0.  1.
</event>
<event>
 8    1  0.1101883E+005  0.1043930E+01  0.7957747E-01            NaN
         13   -1    0    0    0    0  0.00000000000E+00  0.00000000000E+00  0.74505805969E-08  0.10566000000E+00  0.10566000000E+00 0. -1.
     999900   -1    0    0    0    0 -0.00000000000E+00 -0.00000000000E+00 -0.74505805969E-08  0.93827000000E+00  0.93827000000E+00 0.  1.
     999902    2    1    2    0    0  0.17453573352E-01  0.75923933351E-03 -0.55877117662E-02  0.10255880756E+01  0.10254240463E+01 0.  0.
     999903    2    3    3    0    0  0.83275790419E-01  0.32576026382E-01  0.10075181544E+00  0.13617649078E+00  0.19926202921E-01 0.  0.
         14    1    1    2    0    0 -0.17453573352E-01 -0.75923933351E-03  0.55877117662E-02  0.18341924378E-01  0.00000000000E+00 0.  1.
     999901    1    3    3    0    0 -0.65822217068E-01 -0.31816787049E-01 -0.10633952721E+00  0.88941158484E+00  0.88000000000E+00 0.  1.
        -11    1    4    4    0    0  0.44575741077E-01  0.15162999155E-01  0.38441491878E-01  0.60785875455E-01  0.51100000000E-03 0. -1.
         11    1    4    4    0    0  0.38700049342E-01  0.17413027227E-01  0.62310323562E-01  0.75390615329E-01  0.51100000000E-03 0.  1.
</event>
<event>
 8    1  0.1101883E+005  0.1043930E+01  0.7957747E-01            NaN
         13   -1    0    0    0    0  0.00000000000E+00  0.00000000000E+00  0.74505805969E-08  0.10566000000E+00  0.10566000000E+00 0. -1.
     999900   -1    0    0    0    0 -0.00000000000E+00 -0.00000000000E+00 -0.74505805969E-08  0.93827000000E+00  0.93827000000E+00 0.  1.
     999902    2    1    2    0    0  0.16038326034E-01  0.16595401327E-01 -0.19726255321E-02  0.10207669583E+01  0.10205041189E+01 0.  0.
     999903    2    3    3    0    0  0.84395939423E-01  0.70535798814E-01 -0.74242522844E-01  0.13352106918E+00  0.14763136878E-01 0.  0.
         14    1    1    2    0    0 -0.16038326034E-01 -0.16595401327E-01  0.19726255321E-02  0.23163041654E-01  0.00000000000E+00 0.  1.
     999901    1    3    3    0    0 -0.68357613389E-01 -0.53940397487E-01  0.72269897312E-01  0.88724588917E+00  0.88000000000E+00 0.  1.
        -11    1    4    4    0    0  0.26531816736E-01  0.13879580479E-01 -0.18357469585E-01  0.35126028301E-01  0.51100000000E-03 0.  1.
         11    1    4    4    0    0  0.57864122687E-01  0.56656218335E-01 -0.55885053259E-01  0.98395040877E-01  0.51100000000E-03 0. -1.
</event>
<event>
 8    1  0.1101883E+005  0.1043930E+01  0.7957747E-01            NaN
         13   -1    0    0    0    0  0.00000000000E+00  0.00000000000E+00  0.74505805969E-08  0.10566000000E+00  0.10566000000E+00 0.  1.
     999900   -1    0    0    0    0 -0.00000000000E+00 -0.00000000000E+00 -0.74505805969E-08  0.93827000000E+00  0.93827000000E+00 0.  1.
     999902    2    1    2    0    0  0.45222610351E-02 -0.36187917148E-02 -0.23388773090E-01  0.10198347473E+01  0.10195500628E+01 0.  0.
     999903    2    3    3    0    0 -0.12668725413E+00 -0.18311730151E-01 -0.82071190707E-02  0.12985592620E+00  0.20254010606E-01 0.  0.
         14    1    1    2    0    0 -0.45222610351E-02  0.36187917148E-02  0.23388773090E-01  0.24095252748E-01  0.00000000000E+00 0.  1.
     999901    1    3    3    0    0  0.13120951516E+00  0.14692938436E-01 -0.15181654019E-01  0.88997882106E+00  0.88000000000E+00 0.  1.
        -11    1    4    4    0    0 -0.45123362758E-01 -0.29100418110E-02  0.60852136284E-02  0.45627592046E-01  0.51100000000E-03 0.  1.
         11    1    4    4    0    0 -0.81563891368E-01 -0.15401688340E-01 -0.14292332699E-01  0.84228334150E-01  0.51100000000E-03 0. -1.
</event>
<event>
 8    1  0.1101883E+005  0.1043930E+01  0.7957747E-01            NaN
         13   -1    0    0    0    0  0.00000000000E+00  0.00000000000E+00  0.74505805969E-08  0.10566000000E+00  0.10566000000E+00 0.  1.
     999900   -1    0    0    0    0 -0.00000000000E+00 -0.00000000000E+00 -0.74505805969E-08  0.93827000000E+00  0.93827000000E+00 0. -1.
     999902    2    1    2    0    0  0.32326224453E-01  0.14560074606E-01 -0.14168706312E-01  0.10057497329E+01  0.10050247720E+01 0.  0.
     999903    2    3    3    0    0  0.10679357411E+00  0.34722104061E-01  0.39746185608E-01  0.12073068834E+00  0.19637918850E-01 0.  0.
         14    1    1    2    0    0 -0.32326224453E-01 -0.14560074606E-01  0.14168706312E-01  0.38180267134E-01  0.00000000000E+00 0.  1.
     999901    1    3    3    0    0 -0.74467349654E-01 -0.20162029455E-01 -0.53914891919E-01  0.88501904452E+00  0.88000000000E+00 0.  1.
        -11    1    4    4    0    0  0.40041587783E-01  0.73759267663E-02  0.22651097802E-01  0.46594703567E-01  0.51100000000E-03 0. -1.
         11    1    4    4    0    0  0.66751986323E-01  0.27346177295E-01  0.17095087806E-01  0.74135984776E-01  0.51100000000E-03 0.  1.
</event>
<event>
 8    1  0.1101883E+005  0.1043930E+01  0.7957747E-01            NaN
         13   -1    0    0    0    0  0.00000000000E+00  0.00000000000E+00  0.74505805969E-08  0.10566000000E+00  0.10566000000E+00 0. -1.
     999900   -1    0    0    0    0 -0.00000000000E+00 -0.00000000000E+00 -0.74505805969E-08  0.93827000000E+00  0.93827000000E+00 0.  1.
     999902    2    1    2    0    0  0.73518823431E-02 -0.10112621526E-01  0.19671014680E-01  0.10206219733E+01  0.10203557950E+01 0.  0.
     999903    2    3    3    0    0  0.85850755913E-01 -0.98256337896E-01  0.11693531216E-01  0.13270585786E+00  0.21200137050E-01 0.  0.
         14    1    1    2    0    0 -0.73518823431E-02  0.10112621526E-01 -0.19671014680E-01  0.23308026658E-01  0.00000000000E+00 0.  1.
     999901    1    3    3    0    0 -0.78498873570E-01  0.88143716370E-01  0.79774834643E-02  0.88791611548E+00  0.88000000000E+00 0. -1.
        -11    1    4    4    0    0  0.42549718176E-01 -0.43422180226E-01  0.15464835014E-01  0.62732658923E-01  0.51100000000E-03 0.  1.
         11    1    4    4    0    0  0.43301037737E-01 -0.54834157670E-01 -0.37713037982E-02  0.69973198939E-01  0.51100000000E-03 0. -1.
</event>
<event>
 8    1  0.1101883E+005  0.1043930E+01  0.7957747E-01            NaN
         13   -1    0    0    0    0  0.00000000000E+00  0.00000000000E+00  0.74505805969E-08  0.10566000000E+00  0.10566000000E+00 0. -1.
     999900   -1    0    0    0    0 -0.00000000000E+00 -0.00000000000E+00 -0.74505805969E-08  0.93827000000E+00  0.93827000000E+00 0. -1.
     999902    2    1    2    0    0  0.84321893830E-02  0.14030936475E-01 -0.15470446956E-01  0.10214065961E+01  0.10211582300E+01 0.  0.
     999903    2    3    3    0    0  0.18900345483E-01 -0.87329865623E-01 -0.94917622929E-01  0.13197113001E+00  0.20574146988E-01 0.  0.
         14    1    1    2    0    0 -0.84321893830E-02 -0.14030936475E-01  0.15470446956E-01  0.22523403943E-01  0.00000000000E+00 0. -1.
     999901    1    3    3    0    0 -0.10468156100E-01  0.10136080210E+00  0.79447175973E-01  0.88943546605E+00  0.88000000000E+00 0.  1.
        -11    1    4    4    0    0  0.13281870644E-01 -0.61757139964E-01 -0.79642773233E-01  0.10165424179E+00  0.51100000000E-03 0.  1.
         11    1    4    4    0    0  0.56184748388E-02 -0.25572725659E-01 -0.15274849695E-01  0.30316888220E-01  0.51100000000E-03 0. -1.
</event>
<event>
 8    1  0.1101883E+005  0.1043930E+01  0.7957747E-01            NaN
         13   -1    0    0    0    0  0.00000000000E+00  0.00000000000E+00  0.74505805969E-08  0.10566000000E+00  0.10566000000E+00 0. -1.
     999900   -1    0    0    0    0 -0.00000000000E+00 -0.00000000000E+00 -0.74505805969E-08  0.93827000000E+00  0.93827000000E+00 0. -1.
     999902    2    1    2    0    0  0.21746595831E-02  0.56295188282E-02 -0.22038404987E-01  0.10210802315E+01  0.10208245330E+01 0.  0.
     999903    2    3    3    0    0 -0.74230952936E-03 -0.95458450192E-01  0.84521438951E-01  0.12890183760E+00  0.18945800516E-01 0.  0.
         14    1    1    2    0    0 -0.21746595831E-02 -0.56295188282E-02  0.22038404987E-01  0.22849768509E-01  0.00000000000E+00 0. -1.
     999901    1    3    3    0    0  0.29169691125E-02  0.10108796902E+00 -0.10655984394E+00  0.89217839389E+00  0.88000000000E+00 0.  1.
        -11    1    4    4    0    0 -0.65618258570E-02 -0.79675165721E-01  0.64320102015E-01  0.10260860702E+00  0.51100000000E-03 0.  1.
         11    1    4    4    0    0  0.58195163276E-02 -0.15783284471E-01  0.20201336936E-01  0.26293230573E-01  0.51100000000E-03 0. -1.
</event>
<event>
 8    1  0.1101883E+005  0.1043930E+01  0.7957747E-01            NaN
         13   -1    0    0    0    0  0.00000000000E+00  0.00000000000E+00  0.74505805969E-08  0.10566000000E+00  0.10566000000E+00 0.  1.
     999900   -1    0    0    0    0 -0.00000000000E+00 -0.00000000000E+00 -0.74505805969E-08  0.93827000000E+00  0.93827000000E+00 0.  1.
     999902    2    1    2    0    0  0.14497725463E-02 -0.23174566203E-01  0.12143018789E-02  0.10206784003E+01  0.10204135240E+01 0.  0.
     999903    2    3    3    0    0 -0.65295442865E-01  0.10531946986E+00  0.28663514413E-01  0.12842333568E+00  0.17755858137E-01 0.  0.
         14    1    1    2    0    0 -0.14497725463E-02  0.23174566203E-01 -0.12143018789E-02  0.23251599690E-01  0.00000000000E+00 0. -1.
     999901    1    3    3    0    0  0.66745215411E-01 -0.12849403606E+00 -0.27449212534E-01  0.89225506463E+00  0.88000000000E+00 0.  1.
        -11    1    4    4    0    0 -0.83976223659E-02  0.20455720715E-01  0.11113277494E-01  0.24753234719E-01  0.51100000000E-03 0.  1.
         11    1    4    4    0    0 -0.56897820499E-01  0.84863749147E-01  0.17550236919E-01  0.10367010096E+00  0.51100000000E-03 0. -1.
</event>
<event>
 8    1  0.1101883E+005  0.1043930E+01  0.7957747E-01            NaN
         13   -1    0    0    0    0  0.00000000000E+00  0.00000000000E+00  0.74505805969E-08  0.10566000000E+00  0.10566000000E+00 0. -1.
     999900   -1    0    0    0    0 -0.00000000000E+00 -0.00000000000E+00 -0.74505805969E-08  0.93827000000E+00  0.93827000000E+00 0.  1.
     999902    2    1    2    0    0 -0.20686095905E-01  0.96297911867E-02  0.57273465570E-02  0.10204044832E+01  0.10201332557E+01 0.  0.
     999903    2    3    3    0    0 -0.57102873107E-02  0.29454066845E-01 -0.12530925279E+00  0.13035512102E+00  0.19745868118E-01 0.  0.
         14    1    1    2    0    0  0.20686095905E-01 -0.96297911867E-02 -0.57273465570E-02  0.23525516799E-01  0.00000000000E+00 0.  1.
     999901    1    3    3    0    0 -0.14975808594E-01 -0.19824275658E-01  0.13103659934E+00  0.89004936218E+00  0.88000000000E+00 0. -1.
        -11    1    4    4    0    0 -0.47248538217E-02  0.17019916335E-02 -0.46922892105E-01  0.47193643043E-01  0.51100000000E-03 0. -1.
         11    1    4    4    0    0 -0.98543348907E-03  0.27752075211E-01 -0.78386360682E-01  0.83161477979E-01  0.51100000000E-03 0.  1.
</event>
<event>
 8    1  0.1101883E+005  0.1043930E+01  0.7957747E-01            NaN
         13   -1    0    0    0    0  0.00000000000E+00  0.00000000000E+00  0.74505805969E-08  0.10566000000E+00  0.10566000000E+00 0.  1.
     999900   -1    0    0    0    0 -0.00000000000E+00 -0.00000000000E+00 -0.74505805969E-08  0.93827000000E+00  0.93827000000E+00 0. -1.
     999902    2    1    2    0    0 -0.35241402120E-02 -0.15995851405E-01 -0.17388743246E-01  0.10200416091E+01  0.10197618492E+01 0.  0.
     999903    2    3    3    0    0  0.55552159480E-01 -0.11787188673E+00 -0.93978273146E-02  0.13216065400E+00  0.19957334564E-01 0.  0.
         14    1    1    2    0    0  0.35241402120E-02  0.15995851405E-01  0.17388743246E-01  0.23888390864E-01  0.00000000000E+00 0.  1.
     999901    1    3    3    0    0 -0.59076299692E-01  0.10187603532E+00 -0.79909159317E-02  0.88788095514E+00  0.88000000000E+00 0. -1.
        -11    1    4    4    0    0  0.49167617904E-01 -0.87090942933E-01 -0.28932088325E-02  0.10005457895E+00  0.51100000000E-03 0. -1.
         11    1    4    4    0    0  0.63845415759E-02 -0.30780943796E-01 -0.65046184821E-02  0.32106075044E-01  0.51100000000E-03 0.  1.
</event>
<event>
 8    1  0.1101883E+005  0.1043930E+01  0.7957747E-01            NaN
         13   -1    0    0    0    0  0.00000000000E+00  0.00000000000E+00  0.74505805969E-08  0.10566000000E+00  0.10566000000E+00 0.  1.
     999900   -1    0    0    0    0 -0.00000000000E+00 -0.00000000000E+00 -0.74505805969E-08  0.93827000000E+00  0.93827000000E+00 0. -1.
     999902    2    1    2    0    0  0.13006197511E-01  0.16866499694E-01  0.10359054122E-01  0.10202456172E+01  0.10199706709E+01 0.  0.
     999903    2    3    3    0    0  0.70131392894E-01  0.67651175578E-01  0.88896728477E-01  0.13344770475E+00  0.20262471317E-01 0.  0.
         14    1    1    2    0    0 -0.13006197511E-01 -0.16866499694E-01 -0.10359054122E-01  0.23684382785E-01  0.00000000000E+00 0. -1.
     999901    1    3    3    0    0 -0.57125195382E-01 -0.50784675884E-01 -0.78537674355E-01  0.88679791246E+00  0.88000000000E+00 0. -1.
        -11    1    4    4    0    0  0.39362054924E-01  0.27493763037E-01  0.34267931833E-01  0.58990089396E-01  0.51100000000E-03 0.  1.
         11    1    4    4    0    0  0.30769337970E-01  0.40157412541E-01  0.54628796644E-01  0.74457615358E-01  0.51100000000E-03 0. -1.
</event>
<event>
 8    1  0.1101883E+005  0.1043930E+01  0.7957747E-01            NaN
         13   -1    0    0    0    0  0.00000000000E+00  0.00000000000E+00  0.74505805969E-08  0.10566000000E+00  0.10566000000E+00 0. -1.
     999900   -1    0    0    0    0 -0.00000000000E+00 -0.00000000000E+00 -0.74505805969E-08  0.93827000000E+00  0.93827000000E+00 0.  1.
     999902    2    1    2    0    0 -0.17960794775E-01 -0.16893821649E-01  0.78904643954E-03  0.10192598976E+01  0.10189612970E+01 0.  0.
     999903    2    3    3    0    0 -0.12941886856E+00 -0.10535565127E-01  0.14987139685E-01  0.13209310634E+00  0.19071777961E-01 0.  0.
         14    1    1    2    0    0  0.17960794775E-01  0.16893821649E-01 -0.78904643954E-03  0.24670102414E-01  0.00000000000E+00 0. -1.
     999901    1    3    3    0    0  0.11145807379E+00 -0.63582565222E-02 -0.14198093246E-01  0.88716679125E+00  0.88000000000E+00 0. -1.
        -11    1    4    4    0    0 -0.74228348860E-01  0.58908229113E-03  0.17400880146E-02  0.74252837116E-01  0.51100000000E-03 0.  1.
         11    1    4    4    0    0 -0.55190519700E-01 -0.11124647418E-01  0.13247051671E-01  0.57840269224E-01  0.51100000000E-03 0. -1.
</event>
<event>
 8    1  0.1101883E+005  0.1043930E+01  0.7957747E-01            NaN
         13   -1    0    0    0    0  0.00000000000E+00  0.00000000000E+00  0.74505805969E-08  0.10566000000E+00  0.10566000000E+00 0. -1.
     999900   -1    0    0    0    0 -0.00000000000E+00 -0.00000000000E+00 -0.74505805969E-08  0.93827000000E+00  0.93827000000E+00 0. -1.
     999902    2    1    2    0    0  0.45153067318E-02 -0.67324686024E-02  0.22863146196E-01  0.10196722676E+01  0.10193836842E+01 0.  0.
     999903    2    3    3    0    0 -0.91258623183E-01  0.72286280020E-01 -0.49659877446E-01  0.12800181430E+00  0.19102838847E-01 0.  0.
         14    1    1    2    0    0 -0.45153067318E-02  0.67324686024E-02 -0.22863146196E-01  0.24257732424E-01  0.00000000000E+00 0.  1.
     999901    1    3    3    0    0  0.95773929915E-01 -0.79018748623E-01  0.72523023642E-01  0.89167045327E+00  0.88000000000E+00 0.  1.
        -11    1    4    4    0    0 -0.36805673978E-01  0.40909751936E-01 -0.25762685752E-01  0.60763825905E-01  0.51100000000E-03 0.  1.
         11    1    4    4    0    0 -0.54452949205E-01  0.31376528085E-01 -0.23897191694E-01  0.67237988396E-01  0.51100000000E-03 0. -1.
</event>
<event>
 8    1  0.1101883E+005  0.1043930E+01  0.7957747E-01            NaN
         13   -1    0    0    0    0  0.00000000000E+00  0.00000000000E+00  0.74505805969E-08  0.10566000000E+00  0.10566000000E+00 0. -1.
     999900   -1    0    0    0    0 -0.00000000000E+00 -0.00000000000E+00 -0.74505805969E-08  0.93827000000E+00  0.93827000000E+00 0. -1.
     999902    2    1    2    0    0 -0.15652704881E-02 -0.65501258666E-02 -0.23291430437E-01  0.10196844859E+01  0.10193961967E+01 0.  0.
     999903    2    3    3    0    0  0.14325147786E-01 -0.84361046077E-01 -0.99722994027E-01  0.13280860476E+00  0.19273142078E-01 0.  0.
         14    1    1    2    0    0  0.15652704881E-02  0.65501258666E-02  0.23291430437E-01  0.24245514067E-01  0.00000000000E+00 0. -1.
     999901    1    3    3    0    0 -0.15890418274E-01  0.77810920210E-01  0.76431563590E-01  0.88687588117E+00  0.88000000000E+00 0.  1.
        -11    1    4    4    0    0  0.14857044664E-01 -0.52962461323E-01 -0.52127407883E-01  0.75784443385E-01  0.51100000000E-03 0. -1.
         11    1    4    4    0    0 -0.53189687784E-03 -0.31398584754E-01 -0.47595586144E-01  0.57024161373E-01  0.51100000000E-03 0.  1.
</event>
<event>
 8    1  0.1101883E+005  0.1043930E+01  0.7957747E-01            NaN
         13   -1    0    0    0    0  0.00000000000E+00  0.00000000000E+00  0.74505805969E-08  0.10566000000E+00  0.10566000000E+00 0. -1.
     999900   -1    0    0    0    0 -0.00000000000E+00 -0.00000000000E+00 -0.74505805969E-08  0.93827000000E+00  0.93827000000E+00 0.  1.
     999902    2    1    2    0    0 -0.16859443670E-01 -0.88230786206E-02  0.13451076578E-01  0.10206272315E+01  0.10203611746E+01 0.  0.
     999903    2    3    3    0    0  0.15549642877E-01  0.26649263303E-01  0.12682161194E+00  0.13205449156E+00  0.20067208491E-01 0.  0.
         14    1    1    2    0    0  0.16859443670E-01  0.88230786206E-02 -0.13451076578E-01  0.23302768469E-01  0.00000000000E+00 0. -1.
     999901    1    3    3    0    0 -0.32409086547E-01 -0.35472341924E-01 -0.11337053537E+00  0.88857273997E+00  0.88000000000E+00 0.  1.
        -11    1    4    4    0    0  0.10623287013E-02  0.17766038860E-01  0.43260722633E-01  0.46781533993E-01  0.51100000000E-03 0. -1.
         11    1    4    4    0    0  0.14487314175E-01  0.88832244428E-02  0.83560889311E-01  0.85272957566E-01  0.51100000000E-03 0.  1.
</event>
<event>
 8    1  0.1101883E+005  0.1043930E+01  0.7957747E-01            NaN
         13   -1    0    0    0    0  0.00000000000E+00  0.00000000000E+00  0.74505805969E-08  0.10566000000E+00  0.10566000000E+00 0.  1.
     999900   -1    0    0    0    0 -0.00000000000E+00 -0.00000000000E+00 -0.74505805969E-08  0.93827000000E+00  0.93827000000E+00 0.  1.
     999902    2    1    2    0    0 -0.14614656094E-01 -0.87497334857E-02  0.17300717770E-01  0.10196511853E+01  0.10193620941E+01 0.  0.
     999903    2    3    3    0    0  0.20994168582E-01  0.56998911325E-01  0.11448111546E+00  0.13114969266E+00  0.20116786098E-01 0.  0.
         14    1    1    2    0    0  0.14614656094E-01  0.87497334857E-02 -0.17300717770E-01  0.24278814719E-01  0.00000000000E+00 0. -1.
     999901    1    3    3    0    0 -0.35608824676E-01 -0.65748644811E-01 -0.97180397687E-01  0.88850149262E+00  0.88000000000E+00 0. -1.
        -11    1    4    4    0    0  0.71126439319E-02  0.32194726891E-02  0.21022462381E-01  0.22431222741E-01  0.51100000000E-03 0. -1.
         11    1    4    4    0    0  0.13881524650E-01  0.53779438636E-01  0.93458653075E-01  0.10871846992E+00  0.51100000000E-03 0.  1.
</event>
<event>
 8    1  0.1101883E+005  0.1043930E+01  0.7957747E-01            NaN
         13   -1    0    0    0    0  0.00000000000E+00  0.00000000000E+00  0.74505805969E-08  0.10566000000E+00  0.10566000000E+00 0.  1.
     999900   -1    0    0    0    0 -0.00000000000E+00 -0.00000000000E+00 -0.74505805969E-08  0.93827000000E+00  0.93827000000E+00 0. -1.
     999902    2    1    2    0    0 -0.11866197953E-01 -0.17582300768E-01 -0.10847612030E-01  0.10201053355E+01  0.10198270838E+01 0.  0.
     999903    2    3    3    0    0 -0.36471201273E-01 -0.94915460349E-01 -0.83932556754E-01  0.13335439358E+00  0.19990674545E-01 0.  0.
         14    1    1    2    0    0  0.11866197953E-01  0.17582300768E-01  0.10847612030E-01  0.23824664550E-01  0.00000000000E+00 0. -1.
     999901    1    3    3    0    0  0.24605003320E-01  0.77333159581E-01  0.73084944724E-01  0.88675094187E+00  0.88000000000E+00 0. -1.
        -11    1    4    4    0    0 -0.16052076800E-01 -0.45770466387E-01 -0.52791389243E-01  0.71692375202E-01  0.51100000000E-03 0.  1.
         11    1    4    4    0    0 -0.20419124473E-01 -0.49144993961E-01 -0.31141167511E-01  0.61662018380E-01  0.51100000000E-03 0. -1.
</event>
<event>
 8    1  0.1101883E+005  0.1043930E+01  0.7957747E-01            NaN
         13   -1    0    0    0    0  0.00000000000E+00  0.00000000000E+00  0.74505805969E-08  0.10566000000E+00  0.10566000000E+00 0.  1.
     999900   -1    0    0    0    0 -0.00000000000E+00 -0.00000000000E+00 -0.74505805969E-08  0.93827000000E+00  0.93827000000E+00 0.  1.
     999902    2    1    2    0    0  0.16623296311E-02  0.22002962611E-01 -0.10402454059E-01  0.10195352310E+01  0.10192433382E+01 0.  0.
     999903    2    3    3    0    0  0.89737859862E-01 -0.18804502224E-02 -0.93079250574E-01  0.13096155983E+00  0.20754847155E-01 0.  0.
         14    1    1    2    0    0 -0.16623296311E-02 -0.22002962611E-01  0.10402454059E-01  0.24394768987E-01  0.00000000000E+00 0.  1.
     999901    1    3    3    0    0 -0.88075530231E-01  0.23883412834E-01  0.82676796515E-01  0.88857367118E+00  0.88000000000E+00 0.  1.
        -11    1    4    4    0    0  0.34813791804E-01  0.79389969579E-02 -0.43847067372E-01  0.56549573036E-01  0.51100000000E-03 0.  1.
         11    1    4    4    0    0  0.54924068058E-01 -0.98194471804E-02 -0.49232183202E-01  0.74411986796E-01  0.51100000000E-03 0. -1.
</event>
<event>
 8    1  0.1101883E+005  0.1043930E+01  0.7957747E-01            NaN
         13   -1    0    0    0    0  0.00000000000E+00  0.00000000000E+00  0.74505805969E-08  0.10566000000E+00  0.10566000000E+00 0.  1.
     999900   -1    0    0    0    0 -0.00000000000E+00 -0.00000000000E+00 -0.74505805969E-08  0.93827000000E+00  0.93827000000E+00 0.  1.
     999902    2    1    2    0    0 -0.19327738397E-01 -0.15018774575E-01  0.54767238101E-03  0.10194468424E+01  0.10191528048E+01 0.  0.
     999903    2    3    3    0    0  0.72342653013E-01 -0.99895218025E-01  0.35552796414E-01  0.12993414995E+00  0.20158570408E-01 0.  0.
         14    1    1    2    0    0  0.19327738397E-01  0.15018774575E-01 -0.54767238101E-03  0.24483157605E-01  0.00000000000E+00 0.  1.
     999901    1    3    3    0    0 -0.91670391410E-01  0.84876443451E-01 -0.35005124033E-01  0.88951269245E+00  0.88000000000E+00 0. -1.
        -11    1    4    4    0    0  0.43375309376E-02 -0.51817041488E-02  0.72983494415E-02  0.99594808143E-02  0.51100000000E-03 0. -1.
         11    1    4    4    0    0  0.68005122076E-01 -0.94713513876E-01  0.28254446972E-01  0.11997466914E+00  0.51100000000E-03 0.  1.
</event>
<event>
 8    1  0.1101883E+005  0.1043930E+01  0.7957747E-01            NaN
         13   -1    0    0    0    0  0.00000000000E+00  0.00000000000E+00  0.74505805969E-08  0.10566000000E+00  0.10566000000E+00 0.  1.
     999900   -1    0    0    0    0 -0.00000000000E+00 -0.00000000000E+00 -0.74505805969E-08  0.93827000000E+00  0.93827000000E+00 0. -1.
     999902    2    1    2    0    0 -0.37856164646E-02  0.23040147730E-01 -0.44643985774E-02  0.10201579544E+01  0.10198809449E+01 0.  0.
     999903    2    3    3    0    0 -0.79960369547E-02 -0.25155770913E-01 -0.12611360925E+00  0.13047311989E+00  0.20538820800E-01 0.  0.
         14    1    1    2    0    0  0.37856164646E-02 -0.23040147730E-01  0.44643985774E-02  0.23772045644E-01  0.00000000000E+00 0. -1.
     999901    1    3    3    0    0  0.42104204901E-02  0.48195918643E-01  0.12164921067E+00  0.88968483446E+00  0.88000000000E+00 0.  1.
        -11    1    4    4    0    0 -0.13141572094E-01 -0.15816259758E-01 -0.58255352194E-01  0.61780273309E-01  0.51100000000E-03 0. -1.
         11    1    4    4    0    0  0.51455351391E-02 -0.93395111548E-02 -0.67858257055E-01  0.68692846585E-01  0.51100000000E-03 0.  1.
</event>
<event>
 7    1  0.1101883E+005  0.1043930E+01  0.7957747E-01            NaN
         13   -1    0    0    0    0  0.00000000000E+00  0.00000000000E+00  0.74505805969E-08  0.10566000000E+00  0.10566000000E+00 0.  1.
     999900   -1    0    0    0    0 -0.00000000000E+00 -0.00000000000E+00 -0.74505805969E-08  0.93827000000E+00  0.93827000000E+00 0.  1.
     999903    2    1    2    0    0  0.78396648458E-01  0.64407828680E-01  0.43339837486E-01  0.11212166753E+00  0.19963064180E-01 0.  0.
         14    1    1    2    0    0  0.25188356925E-01  0.30182419385E-01 -0.71987926557E-02  0.39965665017E-01  0.00000000000E+00 0.  1.
     999901    1    1    2    0    0 -0.10358500538E+00 -0.94590248066E-01 -0.36141044830E-01  0.89184266745E+00  0.88000000000E+00 0.  1.
        -11    1    3    3    0    0  0.19971054006E-01  0.25549613173E-01  0.73264274227E-02  0.33250013401E-01  0.51100000000E-03 0. -1.
         11    1    3    3    0    0  0.58425594452E-01  0.38858215507E-01  0.36013410063E-01  0.78871654128E-01  0.51100000000E-03 0.  1.
</event>
<event>
 8    1  0.1101883E+005  0.1043930E+01  0.7957747E-01            NaN
         13   -1    0    0    0    0  0.00000000000E+00  0.00000000000E+00  0.74505805969E-08  0.10566000000E+00  0.10566000000E+00 0.  1.
     999900   -1    0    0    0    0 -0.00000000000E+00 -0.00000000000E+00 -0.74505805969E-08  0.93827000000E+00  0.93827000000E+00 0.  1.
     999902    2    1    2    0    0 -0.14534891002E-01 -0.55948865311E-02  0.17881957210E-01  0.10202164974E+01  0.10199408666E+01 0.  0.
     999903    2    3    3    0    0  0.11908360971E+00  0.68937415091E-02 -0.42363930108E-01  0.12800607575E+00  0.19037412697E-01 0.  0.
         14    1    1    2    0    0  0.14534891002E-01  0.55948865311E-02 -0.17881957210E-01  0.23713502597E-01  0.00000000000E+00 0. -1.
     999901    1    3    3    0    0 -0.13361850071E+00 -0.12488628040E-01  0.60245887318E-01  0.89221042165E+00  0.88000000000E+00 0.  1.
        -11    1    4    4    0    0  0.68238121178E-01 -0.51320838203E-02 -0.21322353258E-01  0.71677634836E-01  0.51100000000E-03 0.  1.
         11    1    4    4    0    0  0.50845488531E-01  0.12025825329E-01 -0.21041576850E-01  0.56328440917E-01  0.51100000000E-03 0. -1.
</event>
<event>
 8    1  0.1101883E+005  0.1043930E+01  0.7957747E-01            NaN
         13   -1    0    0    0    0  0.00000000000E+00  0.00000000000E+00  0.74505805969E-08  0.10566000000E+00  0.10566000000E+00 0. -1.
     999900   -1    0    0    0    0 -0.00000000000E+00 -0.00000000000E+00 -0.74505805969E-08  0.93827000000E+00  0.93827000000E+00 0. -1.
     999902    2    1    2    0    0  0.21862318725E-01 -0.59866841980E-02  0.66591240640E-02  0.10203049010E+01  0.10200313455E+01 0.  0.
     999903    2    3    3    0    0  0.11107147353E+00 -0.69725306279E-01  0.14980620002E-01  0.13346211196E+00  0.19728805981E-01 0.  0.
         14    1    1    2    0    0 -0.21862318725E-01  0.59866841980E-02 -0.66591240640E-02  0.23625098963E-01  0.00000000000E+00 0. -1.
     999901    1    3    3    0    0 -0.89209154803E-01  0.63738622081E-01 -0.83214959377E-02  0.88684278908E+00  0.88000000000E+00 0. -1.
        -11    1    4    4    0    0  0.10459396902E+00 -0.70061355659E-01  0.15897087493E-01  0.12689156956E+00  0.51100000000E-03 0. -1.
         11    1    4    4    0    0  0.64775045035E-02  0.33604938013E-03 -0.91646749091E-03  0.65705424008E-02  0.51100000000E-03 0.  1.
</event>
<event>
 8    1  0.1101883E+005  0.1043930E+01  0.7957747E-01            NaN
         13   -1    0    0    0    0  0.00000000000E+00  0.00000000000E+00  0.74505805969E-08  0.10566000000E+00  0.10566000000E+00 0.  1.
     999900   -1    0    0    0    0 -0.00000000000E+00 -0.00000000000E+00 -0.74505805969E-08  0.93827000000E+00  0.93827000000E+00 0. -1.
     999902    2    1    2    0    0  0.10241098947E-02  0.16942714508E-01 -0.15593512290E-01  0.10208808785E+01  0.10206206475E+01 0.  0.
     999903    2    3    3    0    0 -0.54584252023E-01 -0.37474466165E-01 -0.11237333523E+00  0.13216278283E+00  0.21341473955E-01 0.  0.
         14    1    1    2    0    0 -0.10241098947E-02 -0.16942714508E-01  0.15593512290E-01  0.23049121491E-01  0.00000000000E+00 0.  1.
     999901    1    3    3    0    0  0.55608361918E-01  0.54417180673E-01  0.96779822938E-01  0.88871809568E+00  0.88000000000E+00 0.  1.
        -11    1    4    4    0    0 -0.25559451060E-01 -0.66215625488E-02 -0.33758992129E-01  0.42860953089E-01  0.51100000000E-03 0.  1.
         11    1    4    4    0    0 -0.29024800963E-01 -0.30852903616E-01 -0.78614343098E-01  0.89301829737E-01  0.51100000000E-03 0. -1.
</event>
<event>
 8    1  0.1101883E+005  0.1043930E+01  0.7957747E-01            NaN
         13   -1    0    0    0    0  0.00000000000E+00  0.00000000000E+00  0.74505805969E-08  0.10566000000E+00  0.10566000000E+00 0. -1.
     999900   -1    0    0    0    0 -0.00000000000E+00 -0.00000000000E+00 -0.74505805969E-08  0.93827000000E+00  0.93827000000E+00 0. -1.
     999902    2    1    2    0    0 -0.13908211333E-01  0.48368037894E-02  0.19449438003E-01  0.10195350486E+01  0.10192431514E+01 0.  0.
     999903    2    3    3    0    0 -0.21212497773E-01  0.98002943137E-01 -0.78933296317E-01  0.12913488886E+00  0.19768847401E-01 0.  0.
         14    1    1    2    0    0  0.13908211333E-01 -0.48368037894E-02 -0.19449438003E-01  0.24394951363E-01  0.00000000000E+00 0.  1.
     999901    1    3    3    0    0  0.73042864400E-02 -0.93166139348E-01  0.98382734320E-01  0.89040015978E+00  0.88000000000E+00 0.  1.
        -11    1    4    4    0    0 -0.11502652073E-01  0.43337956861E-01 -0.47539820790E-01  0.65351244758E-01  0.51100000000E-03 0.  1.
         11    1    4    4    0    0 -0.97098457008E-02  0.54664986276E-01 -0.31393475527E-01  0.63783644100E-01  0.51100000000E-03 0. -1.
</event>
<event>
 8    1  0.1101883E+005  0.1043930E+01  0.7957747E-01            NaN
         13   -1    0    0    0    0  0.00000000000E+00  0.00000000000E+00  0.74505805969E-08  0.10566000000E+00  0.10566000000E+00 0.  1.
     999900   -1    0    0    0    0 -0.00000000000E+00 -0.00000000000E+00 -0.74505805969E-08  0.93827000000E+00  0.93827000000E+00 0.  1.
     999902    2    1    2    0    0 -0.20295977443E-01 -0.15999062472E-03 -0.16584249016E-01  0.10177195133E+01  0.10173819431E+01 0.  0.
     999903    2    3    3    0    0  0.99819724425E-01  0.23445867956E-01 -0.72830514829E-01  0.12746749235E+00  0.20736238989E-01 0.  0.
         14    1    1    2    0    0  0.20295977443E-01  0.15999062472E-03  0.16584249016E-01  0.26210486695E-01  0.00000000000E+00 0.  1.
     999901    1    3    3    0    0 -0.12011570187E+00 -0.23605858581E-01  0.56246265813E-01  0.89025202095E+00  0.88000000000E+00 0. -1.
        -11    1    4    4    0    0  0.69376030237E-01  0.25370078197E-01 -0.47613488050E-01  0.87886175275E-01  0.51100000000E-03 0. -1.
         11    1    4    4    0    0  0.30443694188E-01 -0.19242102414E-02 -0.25217026779E-01  0.39581317076E-01  0.51100000000E-03 0.  1.
</event>
<event>
 8    1  0.1101883E+005  0.1043930E+01  0.7957747E-01            NaN
         13   -1    0    0    0    0  0.00000000000E+00  0.00000000000E+00  0.74505805969E-08  0.10566000000E+00  0.10566000000E+00 0. -1.
     999900   -1    0    0    0    0 -0.00000000000E+00 -0.00000000000E+00 -0.74505805969E-08  0.93827000000E+00  0.93827000000E+00 0.  1.
     999902    2    1    2    0    0 -0.17976047138E-01  0.62051489918E-02 -0.11218554797E-01  0.10218506405E+01  0.10216120758E+01 0.  0.
     999903    2    3    3    0    0 -0.18915266932E-01  0.31460918629E-01 -0.12717648247E+00  0.13388387477E+00  0.20086251657E-01 0.  0.
         14    1    1    2    0    0  0.17976047138E-01 -0.62051489918E-02  0.11218554797E-01  0.22079359512E-01  0.00000000000E+00 0. -1.
     999901    1    3    3    0    0  0.93921979389E-03 -0.25255769637E-01  0.11595792767E+00  0.88796676572E+00  0.88000000000E+00 0. -1.
        -11    1    4    4    0    0  0.39410010906E-02  0.54452784372E-02 -0.29142669285E-01  0.29912185492E-01  0.51100000000E-03 0. -1.
         11    1    4    4    0    0 -0.22856268022E-01  0.26015640191E-01 -0.98033813184E-01  0.10397168928E+00  0.51100000000E-03 0.  1.
</event>
<event>
 8    1  0.1101883E+005  0.1043930E+01  0.7957747E-01            NaN
         13   -1    0    0    0    0  0.00000000000E+00  0.00000000000E+00  0.74505805969E-08  0.10566000000E+00  0.10566000000E+00 0. -1.
     999900   -1    0    0    0    0 -0.00000000000E+00 -0.00000000000E+00 -0.74505805969E-08  0.93827000000E+00  0.93827000000E+00 0. -1.
     999902    2    1    2    0    0  0.19688141157E-01  0.86705104697E-02  0.98965359398E-02  0.10202500068E+01  0.10199751636E+01 0.  0.
     999903    2    3    3    0    0 -0.12616033560E+00 -0.46114525660E-02  0.77525458439E-02  0.12814419167E+00  0.20570272691E-01 0.  0.
         14    1    1    2    0    0 -0.19688141157E-01 -0.86705104697E-02 -0.98965359398E-02  0.23679993194E-01  0.00000000000E+00 0.  1.
     999901    1    3    3    0    0  0.14584847675E+00  0.13281963036E-01  0.21439900959E-02  0.89210581514E+00  0.88000000000E+00 0.  1.
        -11    1    4    4    0    0 -0.54014367182E-01 -0.12069245043E-01  0.46971445929E-02  0.55547662653E-01  0.51100000000E-03 0. -1.
         11    1    4    4    0    0 -0.72145968414E-01  0.74577924767E-02  0.30554012510E-02  0.72596529013E-01  0.51100000000E-03 0.  1.
</event>
<event>
 8    1  0.1101883E+005  0.1043930E+01  0.7957747E-01            NaN
         13   -1    0    0    0    0  0.00000000000E+00  0.00000000000E+00  0.74505805969E-08  0.10566000000E+00  0.10566000000E+00 0.  1.
     999900   -1    0    0    0    0 -0.00000000000E+00 -0.00000000000E+00 -0.74505805969E-08  0.93827000000E+00  0.93827000000E+00 0.  1.
     999902    2    1    2    0    0 -0.77060869224E-02  0.85040981857E-02 -0.26707722255E-01  0.10148610150E+01  0.10144446135E+01 0.  0.
     999903    2    3    3    0    0 -0.45546202795E-01  0.90626005638E-01  0.70058122048E-01  0.12495118210E+00  0.20423710617E-01 0.  0.
         14    1    1    2    0    0  0.77060869224E-02 -0.85040981857E-02  0.26707722255E-01  0.29068985012E-01  0.00000000000E+00 0.  1.
     999901    1    3    3    0    0  0.37840115873E-01 -0.82121907453E-01 -0.96765844303E-01  0.88990983289E+00  0.88000000000E+00 0.  1.
        -11    1    4    4    0    0 -0.32263301486E-01  0.74612544263E-01  0.63429819859E-01  0.10310943484E+00  0.51100000000E-03 0. -1.
         11    1    4    4    0    0 -0.13282901309E-01  0.16013461375E-01  0.66283021892E-02  0.21841747259E-01  0.51100000000E-03 0.  1.
</event>
<event>
 8    1  0.1101883E+005  0.1043930E+01  0.7957747E-01            NaN
         13   -1    0    0    0    0  0.00000000000E+00  0.00000000000E+00  0.74505805969E-08  0.10566000000E+00  0.10566000000E+00 0. -1.
     999900   -1    0    0    0    0 -0.00000000000E+00 -0.00000000000E+00 -0.74505805969E-08  0.93827000000E+00  0.93827000000E+00 0. -1.
     999902    2    1    2    0    0 -0.39710141329E-02  0.12682897707E-01  0.19591489169E-01  0.10202561474E+01  0.10199814484E+01 0.  0.
     999903    2    3    3    0    0 -0.33802240866E-01 -0.51868985727E-01 -0.11011303485E+00  0.12791086040E+00  0.20082942902E-01 0.  0.
         14    1    1    2    0    0  0.39710141329E-02 -0.12682897707E-01 -0.19591489169E-01  0.23673852567E-01  0.00000000000E+00 0.  1.
     999901    1    3    3    0    0  0.29831226733E-01  0.64551883434E-01  0.12970452402E+00  0.89234528704E+00  0.88000000000E+00 0.  1.
        -11    1    4    4    0    0 -0.34090507086E-02 -0.12860938583E-01 -0.11505254189E-01  0.17597083932E-01  0.51100000000E-03 0. -1.
         11    1    4    4    0    0 -0.30393190157E-01 -0.39008047144E-01 -0.98607780662E-01  0.11031377646E+00  0.51100000000E-03 0.  1.
</event>
<event>
 8    1  0.1101883E+005  0.1043930E+01  0.7957747E-01            NaN
         13   -1    0    0    0    0  0.00000000000E+00  0.00000000000E+00  0.74505805969E-08  0.10566000000E+00  0.10566000000E+00 0. -1.
     999900   -1    0    0    0    0 -0.00000000000E+00 -0.00000000000E+00 -0.74505805969E-08  0.93827000000E+00  0.93827000000E+00 0.  1.
     999902    2    1    2    0    0 -0.28446085509E-02 -0.23198216665E-01 -0.16974953144E-02  0.10204964654E+01  0.10202273792E+01 0.  0.
     999903    2    3    3    0    0  0.10593132543E+00 -0.12685490754E-02 -0.73126177674E-01  0.13065649618E+00  0.22374700176E-01 0.  0.
         14    1    1    2    0    0  0.28446085509E-02  0.23198216665E-01  0.16974953144E-02  0.23433534616E-01  0.00000000000E+00 0. -1.
     999901    1    3    3    0    0 -0.10877593398E+00 -0.21929667590E-01  0.71428682360E-01  0.88983996921E+00  0.88000000000E+00 0.  1.
        -11    1    4    4    0    0  0.79430468712E-01  0.80373917491E-02 -0.49394998633E-01  0.93882511880E-01  0.51100000000E-03 0.  1.
         11    1    4    4    0    0  0.26500856718E-01 -0.93059408245E-02 -0.23731179041E-01  0.36773984298E-01  0.51100000000E-03 0. -1.
</event>
<event>
 8    1  0.1101883E+005  0.1043930E+01  0.7957747E-01            NaN
         13   -1    0    0    0    0  0.00000000000E+00  0.00000000000E+00  0.74505805969E-08  0.10566000000E+00  0.10566000000E+00 0.  1.
     999900   -1    0    0    0    0 -0.00000000000E+00 -0.00000000000E+00 -0.74505805969E-08  0.93827000000E+00  0.93827000000E+00 0.  1.
     999902    2    1    2    0    0  0.85818996237E-02  0.17401281024E-01 -0.14434910062E-01  0.10197469437E+01  0.10194601557E+01 0.  0.
     999903    2    3    3    0    0 -0.56606738975E-01 -0.86964771504E-01  0.70658920876E-01  0.12712003869E+00  0.19990666750E-01 0.  0.
         14    1    1    2    0    0 -0.85818996237E-02 -0.17401281024E-01  0.14434910062E-01  0.24183056278E-01  0.00000000000E+00 0.  1.
     999901    1    3    3    0    0  0.65188638598E-01  0.10436605253E+00 -0.85093830938E-01  0.89262690503E+00  0.88000000000E+00 0. -1.
        -11    1    4    4    0    0 -0.10504189349E-01 -0.14920206934E-01  0.22452578629E-01  0.28936654557E-01  0.51100000000E-03 0.  1.
         11    1    4    4    0    0 -0.46102549626E-01 -0.72044564570E-01  0.48206342247E-01  0.98183384133E-01  0.51100000000E-03 0. -1.
</event>
<event>
 8    1  0.1101883E+005  0.1043930E+01  0.7957747E-01            NaN
         13   -1    0    0    0    0  0.00000000000E+00  0.00000000000E+00  0.74505805969E-08  0.10566000000E+00  0.10566000000E+00 0. -1.
     999900   -1    0    0    0    0 -0.00000000000E+00 -0.00000000000E+00 -0.74505805969E-08  0.93827000000E+00  0.93827000000E+00 0. -1.
     999902    2    1    2    0    0  0.54697455705E-02 -0.67359964779E-02 -0.21678057133E-01  0.10205798410E+01  0.10203126883E+01 0.  0.
     999903    2    3    3    0    0  0.20697391630E-01 -0.12423876712E+00 -0.35845248094E-01  0.13252607481E+00  0.20362352929E-01 0.  0.
         14    1    1    2    0    0 -0.54697455705E-02  0.67359964779E-02  0.21678057133E-01  0.23350159019E-01  0.00000000000E+00 0. -1.
     999901    1    3    3    0    0 -0.15227646060E-01  0.11750277064E+00  0.14167190961E-01  0.88805376617E+00  0.88000000000E+00 0.  1.
        -11    1    4    4    0    0  0.23276713486E-01 -0.87863409858E-01 -0.29075141834E-01  0.95432746875E-01  0.51100000000E-03 0.  1.
         11    1    4    4    0    0 -0.25793218559E-02 -0.36375357264E-01 -0.67701062606E-02  0.37093327933E-01  0.51100000000E-03 0. -1.
</event>
<event>
 8    1  0.1101883E+005  0.1043930E+01  0.7957747E-01            NaN
         13   -1    0    0    0    0  0.00000000000E+00  0.00000000000E+00  0.74505805969E-08  0.10566000000E+00  0.10566000000E+00 0.  1.
     999900   -1    0    0    0    0 -0.00000000000E+00 -0.00000000000E+00 -0.74505805969E-08  0.93827000000E+00  0.93827000000E+00 0.  1.
     999902    2    1    2    0    0  0.13570042748E-01  0.12197978239E-01  0.15008660947E-01  0.10203038146E+01  0.10200302336E+01 0.  0.
     999903    2    3    3    0    0 -0.91864646834E-01 -0.70896864735E-01  0.53341799659E-01  0.12929839586E+00  0.20180406676E-01 0.  0.
         14    1    1    2    0    0 -0.13570042748E-01 -0.12197978239E-01 -0.15008660947E-01  0.23626185404E-01  0.00000000000E+00 0. -1.
     999901    1    3    3    0    0  0.10543468958E+00  0.83094842974E-01 -0.38333138711E-01  0.89100541874E+00  0.88000000000E+00 0. -1.
        -11    1    4    4    0    0 -0.61729936882E-01 -0.58913699681E-01  0.37697610556E-01  0.93288692135E-01  0.51100000000E-03 0. -1.
         11    1    4    4    0    0 -0.30134709952E-01 -0.11983165053E-01  0.15644189103E-01  0.36009703724E-01  0.51100000000E-03 0.  1.
</event>
<event>
 8    1  0.1101883E+005  0.1043930E+01  0.7957747E-01            NaN
         13   -1    0    0    0    0  0.00000000000E+00  0.00000000000E+00  0.74505805969E-08  0.10566000000E+00  0.10566000000E+00 0.  1.
     999900   -1    0    0    0    0 -0.00000000000E+00 -0.00000000000E+00 -0.74505805969E-08  0.93827000000E+00  0.93827000000E+00 0.  1.
     999902    2    1    2    0    0  0.16278770715E-01 -0.13514094566E-01 -0.10399129695E-01  0.10203552036E+01  0.10200828253E+01 0.  0.
     999903    2    3    3    0    0 -0.12660587108E+00 -0.11921324221E-01  0.70361776186E-03  0.12876009997E+00  0.20186720987E-01 0.  0.
         14    1    1    2    0    0 -0.16278770715E-01  0.13514094566E-01  0.10399129695E-01  0.23574796422E-01  0.00000000000E+00 0.  1.
     999901    1    3    3    0    0  0.14288464179E+00 -0.15927703449E-02 -0.11102747457E-01  0.89159510361E+00  0.88000000000E+00 0.  1.
        -11    1    4    4    0    0 -0.16266956108E-01 -0.68670616349E-02 -0.43381011615E-02  0.18189300130E-01  0.51100000000E-03 0. -1.
         11    1    4    4    0    0 -0.11033891497E+00 -0.50542625858E-02  0.50417189233E-02  0.11057079984E+00  0.51100000000E-03 0.  1.
</event>
<event>
 8    1  0.1101883E+005  0.1043930E+01  0.7957747E-01            NaN
         13   -1    0    0    0    0  0.00000000000E+00  0.00000000000E+00  0.74505805969E-08  0.10566000000E+00  0.10566000000E+00 0.  1.
     999900   -1    0    0    0    0 -0.00000000000E+00 -0.00000000000E+00 -0.74505805969E-08  0.93827000000E+00  0.93827000000E+00 0. -1.
     999902    2    1    2    0    0 -0.98365806845E-02  0.17049808658E-01 -0.13404691234E-01  0.10201152978E+01  0.10198372815E+01 0.  0.
     999903    2    3    3    0    0 -0.25693459811E-01 -0.15354292498E-01 -0.12716442608E+00  0.13205970061E+00  0.19314892997E-01 0.  0.
         14    1    1    2    0    0  0.98365806845E-02 -0.17049808658E-01  0.13404691234E-01  0.23814702221E-01  0.00000000000E+00 0. -1.
     999901    1    3    3    0    0  0.15856879126E-01  0.32404101155E-01  0.11375973484E+00  0.88805559717E+00  0.88000000000E+00 0.  1.
        -11    1    4    4    0    0 -0.88280284280E-02 -0.15002141740E-02 -0.12797471507E-01  0.15627575835E-01  0.51100000000E-03 0.  1.
         11    1    4    4    0    0 -0.16865431383E-01 -0.13854078324E-01 -0.11436695457E+00  0.11643212478E+00  0.51100000000E-03 0. -1.
</event>
<event>
 8    1  0.1101883E+005  0.1043930E+01  0.7957747E-01            NaN
         13   -1    0    0    0    0  0.00000000000E+00  0.00000000000E+00  0.74505805969E-08  0.10566000000E+00  0.10566000000E+00 0. -1.
     999900   -1    0    0    0    0 -0.00000000000E+00 -0.00000000000E+00 -0.74505805969E-08  0.93827000000E+00  0.93827000000E+00 0. -1.
     999902    2    1    2    0    0  0.15170341580E-02  0.22736505433E-01 -0.69980061174E-02  0.10200925890E+01  0.10198140360E+01 0.  0.
     999903    2    3    3    0    0  0.29803404591E-02  0.50020111165E-01 -0.12087767578E+00  0.13233411086E+00  0.19748682096E-01 0.  0.
         14    1    1    2    0    0 -0.15170341580E-02 -0.22736505433E-01  0.69980061174E-02  0.23837410966E-01  0.00000000000E+00 0. -1.
     999901    1    3    3    0    0 -0.14633063010E-02 -0.27283605732E-01  0.11387966966E+00  0.88775847817E+00  0.88000000000E+00 0.  1.
        -11    1    4    4    0    0 -0.79117024460E-02  0.17633278646E-01 -0.36622786958E-01  0.41412766111E-01  0.51100000000E-03 0. -1.
         11    1    4    4    0    0  0.10892042905E-01  0.32386832519E-01 -0.84254888823E-01  0.90921344749E-01  0.51100000000E-03 0.  1.
</event>
<event>
 7    1  0.1101883E+005  0.1043930E+01  0.7957747E-01            NaN
         13   -1    0    0    0    0  0.00000000000E+00  0.00000000000E+00  0.74505805969E-08  0.10566000000E+00  0.10566000000E+00 0.  1.
     999900   -1    0    0    0    0 -0.00000000000E+00 -0.00000000000E+00 -0.74505805969E-08  0.93827000000E+00  0.93827000000E+00 0. -1.
     999903    2    1    2    0    0  0.47903222257E-01 -0.93141695266E-01  0.35855829404E-01  0.11271792471E+00  0.21203677749E-01 0.  0.
         14    1    1    2    0    0  0.65585183254E-02 -0.36332202670E-01 -0.14938465710E-01  0.39827137372E-01  0.00000000000E+00 0. -1.
     999901    1    1    2    0    0 -0.54461740583E-01  0.12947389794E+00 -0.20917363694E-01  0.89138493791E+00  0.88000000000E+00 0.  1.
        -11    1    3    3    0    0  0.38424119827E-01 -0.54054899789E-01  0.18080766417E-01  0.68742420753E-01  0.51100000000E-03 0.  1.
         11    1    3    3    0    0  0.94791024302E-02 -0.39086795477E-01  0.17775062987E-01  0.43975503962E-01  0.51100000000E-03 0. -1.
</event>
<event>
 8    1  0.1101883E+005  0.1043930E+01  0.7957747E-01            NaN
         13   -1    0    0    0    0  0.00000000000E+00  0.00000000000E+00  0.74505805969E-08  0.10566000000E+00  0.10566000000E+00 0.  1.
     999900   -1    0    0    0    0 -0.00000000000E+00 -0.00000000000E+00 -0.74505805969E-08  0.93827000000E+00  0.93827000000E+00 0. -1.
     999902    2    1    2    0    0 -0.14235420248E-01  0.34442812653E-02 -0.22918271926E-01  0.10167315175E+01  0.10163676604E+01 0.  0.
     999903    2    3    3    0    0  0.27806443952E-01  0.12528611003E-01  0.11882303946E+00  0.12435231404E+00  0.20357280772E-01 0.  0.
         14    1    1    2    0    0  0.14235420248E-01 -0.34442812653E-02  0.22918271926E-01  0.27198482515E-01  0.00000000000E+00 0.  1.
     999901    1    3    3    0    0 -0.42041864201E-01 -0.90843297379E-02 -0.14174131139E+00  0.89237920345E+00  0.88000000000E+00 0. -1.
        -11    1    4    4    0    0  0.88967544866E-02  0.12334880963E-01  0.76425685598E-01  0.77925913975E-01  0.51100000000E-03 0. -1.
         11    1    4    4    0    0  0.18909689466E-01  0.19373004062E-03  0.42397353864E-01  0.46426400062E-01  0.51100000000E-03 0.  1.
</event>
<event>
 8    1  0.1101883E+005  0.1043930E+01  0.7957747E-01            NaN
         13   -1    0    0    0    0  0.00000000000E+00  0.00000000000E+00  0.74505805969E-08  0.10566000000E+00  0.10566000000E+00 0.  1.
     999900   -1    0    0    0    0 -0.00000000000E+00 -0.00000000000E+00 -0.74505805969E-08  0.93827000000E+00  0.93827000000E+00 0.  1.
     999902    2    1    2    0    0 -0.11896609065E-01 -0.19146375722E-01 -0.43413732289E-02  0.10209743791E+01  0.10207162790E+01 0.  0.
     999903    2    3    3    0    0 -0.36369540143E-01  0.16137066579E-01 -0.12391134226E+00  0.13185075260E+00  0.21153057749E-01 0.  0.
         14    1    1    2    0    0  0.11896609065E-01  0.19146375722E-01  0.43413732289E-02  0.22955620925E-01  0.00000000000E+00 0.  1.
     999901    1    3    3    0    0  0.24472931078E-01 -0.35283442301E-01  0.11956996904E+00  0.88912362647E+00  0.88000000000E+00 0. -1.
        -11    1    4    4    0    0 -0.56936239756E-02 -0.18018706837E-02 -0.43823124806E-01  0.44231114395E-01  0.51100000000E-03 0.  1.
         11    1    4    4    0    0 -0.30675916168E-01  0.17938937263E-01 -0.80088217458E-01  0.87619638207E-01  0.51100000000E-03 0. -1.
</event>
<event>
 8    1  0.1101883E+005  0.1043930E+01  0.7957747E-01            NaN
         13   -1    0    0    0    0  0.00000000000E+00  0.00000000000E+00  0.74505805969E-08  0.10566000000E+00  0.10566000000E+00 0. -1.
     999900   -1    0    0    0    0 -0.00000000000E+00 -0.00000000000E+00 -0.74505805969E-08  0.93827000000E+00  0.93827000000E+00 0. -1.
     999902    2    1    2    0    0 -0.15827218915E-01  0.72007264731E-02 -0.12426964462E-01  0.10225575700E+01  0.10223341935E+01 0.  0.
     999903    2    3    3    0    0  0.63829066167E-01 -0.11060626517E+00  0.19643998792E-01  0.13056420803E+00  0.18794417979E-01 0.  0.
         14    1    1    2    0    0  0.15827218915E-01 -0.72007264731E-02  0.12426964462E-01  0.21372430046E-01  0.00000000000E+00 0.  1.
     999901    1    3    3    0    0 -0.79656285083E-01  0.11780699164E+00 -0.32070963254E-01  0.89199336192E+00  0.88000000000E+00 0. -1.
        -11    1    4    4    0    0  0.37858538881E-01 -0.53630827355E-01  0.17358520676E-01  0.67905183675E-01  0.51100000000E-03 0.  1.
         11    1    4    4    0    0  0.25970527287E-01 -0.56975437815E-01  0.22854781160E-02  0.62659024354E-01  0.51100000000E-03 0. -1.
</event>
<event>
 8    1  0.1101883E+005  0.1043930E+01  0.7957747E-01            NaN
         13   -1    0    0    0    0  0.00000000000E+00  0.00000000000E+00  0.74505805969E-08  0.10566000000E+00  0.10566000000E+00 0. -1.
     999900   -1    0    0    0    0 -0.00000000000E+00 -0.00000000000E+00 -0.74505805969E-08  0.93827000000E+00  0.93827000000E+00 0.  1.
     999902    2    1    2    0    0  0.20523442755E-01 -0.11425335776E-01  0.30812938397E-02  0.10202394033E+01  0.10199643110E+01 0.  0.
     999903    2    3    3    0    0  0.70618650549E-01 -0.83425591564E-01  0.73328051740E-01  0.13309331969E+00  0.19748555405E-01 0.  0.
         14    1    1    2    0    0 -0.20523442755E-01  0.11425335776E-01 -0.30812938397E-02  0.23690596696E-01  0.00000000000E+00 0. -1.
     999901    1    3    3    0    0 -0.50095207794E-01  0.72000255788E-01 -0.70246757901E-01  0.88714608361E+00  0.88000000000E+00 0.  1.
        -11    1    4    4    0    0  0.66899944553E-01 -0.72735268786E-01  0.60051456358E-01  0.11563935506E+00  0.51100000000E-03 0.  1.
         11    1    4    4    0    0  0.37187059960E-02 -0.10690322778E-01  0.13276595382E-01  0.17453964630E-01  0.51100000000E-03 0. -1.
</event>
<event>
 8    1  0.1101883E+005  0.1043930E+01  0.7957747E-01            NaN
         13   -1    0    0    0    0  0.00000000000E+00  0.00000000000E+00  0.74505805969E-08  0.10566000000E+00  0.10566000000E+00 0. -1.
     999900   -1    0    0    0    0 -0.00000000000E+00 -0.00000000000E+00 -0.74505805969E-08  0.93827000000E+00  0.93827000000E+00 0. -1.
     999902    2    1    2    0    0 -0.75046598406E-02  0.66574664313E-02 -0.19109168066E-01  0.10223475515E+01  0.10221197161E+01 0.  0.
     999903    2    3    3    0    0  0.54840064485E-01  0.62548263347E-01  0.98562567576E-01  0.13057556092E+00  0.20388218710E-01 0.  0.
         14    1    1    2    0    0  0.75046598406E-02 -0.66574664313E-02  0.19109168066E-01  0.21582448489E-01  0.00000000000E+00 0. -1.
     999901    1    3    3    0    0 -0.62344724326E-01 -0.55890796916E-01 -0.11767173564E+00  0.89177199059E+00  0.88000000000E+00 0. -1.
        -11    1    4    4    0    0  0.38216824953E-01  0.50199213088E-01  0.84836923104E-01  0.10572630395E+00  0.51100000000E-03 0.  1.
         11    1    4    4    0    0  0.16623239532E-01  0.12349050260E-01  0.13725644473E-01  0.24849256972E-01  0.51100000000E-03 0. -1.
</event>
<event>
 8    1  0.1101883E+005  0.1043930E+01  0.7957747E-01            NaN
         13   -1    0    0    0    0  0.00000000000E+00  0.00000000000E+00  0.74505805969E-08  0.10566000000E+00  0.10566000000E+00 0.  1.
     999900   -1    0    0    0    0 -0.00000000000E+00 -0.00000000000E+00 -0.74505805969E-08  0.93827000000E+00  0.93827000000E+00 0.  1.
     999902    2    1    2    0    0 -0.10497523485E-01 -0.21257618942E-01 -0.80594883284E-02  0.10188892389E+01  0.10185814850E+01 0.  0.
     999903    2    3    3    0    0  0.47864640853E-01  0.98778910785E-01 -0.61215657591E-01  0.12723880910E+00  0.19850963403E-01 0.  0.
         14    1    1    2    0    0  0.10497523485E-01  0.21257618942E-01  0.80594883284E-02  0.25040761061E-01  0.00000000000E+00 0. -1.
     999901    1    3    3    0    0 -0.58362164338E-01 -0.12003652973E+00  0.53156169263E-01  0.89165042984E+00  0.88000000000E+00 0.  1.
        -11    1    4    4    0    0  0.24782142034E-01  0.46759325750E-01 -0.18442521418E-01  0.56044418328E-01  0.51100000000E-03 0.  1.
         11    1    4    4    0    0  0.23082498819E-01  0.52019585035E-01 -0.42773136174E-01  0.71194390776E-01  0.51100000000E-03 0. -1.
</event>
<event>
 8    1  0.1101883E+005  0.1043930E+01  0.7957747E-01            NaN
         13   -1    0    0    0    0  0.00000000000E+00  0.00000000000E+00  0.74505805969E-08  0.10566000000E+00  0.10566000000E+00 0. -1.
     999900   -1    0    0    0    0 -0.00000000000E+00 -0.00000000000E+00 -0.74505805969E-08  0.93827000000E+00  0.93827000000E+00 0. -1.
     999902    2    1    2    0    0  0.19539064813E-01  0.13148230672E-01 -0.44438807826E-02  0.10199633753E+01  0.10196817581E+01 0.  0.
     999903    2    3    3    0    0 -0.40753468559E-01  0.11807580089E+00 -0.33436896730E-01  0.13120830242E+00  0.22245282819E-01 0.  0.
         14    1    1    2    0    0 -0.19539064813E-01 -0.13148230672E-01  0.44438807826E-02  0.23966624710E-01  0.00000000000E+00 0. -1.
     999901    1    3    3    0    0  0.60292533372E-01 -0.10492757021E+00  0.28993015947E-01  0.88875507287E+00  0.88000000000E+00 0.  1.
        -11    1    4    4    0    0 -0.29211890670E-01  0.75936516551E-01 -0.32180703261E-01  0.87495987827E-01  0.51100000000E-03 0.  1.
         11    1    4    4    0    0 -0.11541577889E-01  0.42139284335E-01 -0.12561934686E-02  0.43712314597E-01  0.51100000000E-03 0. -1.
</event>
<event>
 8    1  0.1101883E+005  0.1043930E+01  0.7957747E-01            NaN
         13   -1    0    0    0    0  0.00000000000E+00  0.00000000000E+00  0.74505805969E-08  0.10566000000E+00  0.10566000000E+00 0. -1.
     999900   -1    0    0    0    0 -0.00000000000E+00 -0.00000000000E+00 -0.74505805969E-08  0.93827000000E+00  0.93827000000E+00 0.  1.
     999902    2    1    2    0    0  0.13369038954E-01 -0.13789790777E-01 -0.14217726068E-01  0.10200336976E+01  0.10197537502E+01 0.  0.
     999903    2    3    3    0    0 -0.41363603165E-01  0.10209186003E+00  0.61529270372E-01  0.12753057351E+00  0.18560725070E-01 0.  0.
         14    1    1    2    0    0 -0.13369038954E-01  0.13789790777E-01  0.14217726068E-01  0.23896302366E-01  0.00000000000E+00 0. -1.
     999901    1    3    3    0    0  0.54732642120E-01 -0.11588165081E+00 -0.75746996440E-01  0.89250312413E+00  0.88000000000E+00 0.  1.
        -11    1    4    4    0    0 -0.24864131428E-02  0.21214469461E-01  0.17265787422E-01  0.27470065546E-01  0.51100000000E-03 0. -1.
         11    1    4    4    0    0 -0.38877190022E-01  0.80877390569E-01  0.44263482950E-01  0.10006050796E+00  0.51100000000E-03 0.  1.
</event>
<event>
 8    1  0.1101883E+005  0.1043930E+01  0.7957747E-01            NaN
         13   -1    0    0    0    0  0.00000000000E+00  0.00000000000E+00  0.74505805969E-08  0.10566000000E+00  0.10566000000E+00 0.  1.
     999900   -1    0    0    0    0 -0.00000000000E+00 -0.00000000000E+00 -0.74505805969E-08  0.93827000000E+00  0.93827000000E+00 0.  1.
     999902    2    1    2    0    0  0.88487845177E-03  0.53766235949E-02  0.23234728575E-01  0.10200648852E+01  0.10197856767E+01 0.  0.
     999903    2    3    3    0    0  0.15221849718E-01 -0.12707500731E+00  0.10307124105E-01  0.12994348551E+00  0.19982753295E-01 0.  0.
         14    1    1    2    0    0 -0.88487845177E-03 -0.53766235949E-02 -0.23234728575E-01  0.23865114773E-01  0.00000000000E+00 0. -1.
     999901    1    3    3    0    0 -0.14336971266E-01  0.13245163090E+00  0.12927604470E-01  0.89012139971E+00  0.88000000000E+00 0. -1.
        -11    1    4    4    0    0  0.20129162508E-02 -0.72889433572E-01 -0.14926652419E-02  0.72934289116E-01  0.51100000000E-03 0.  1.
         11    1    4    4    0    0  0.13208933467E-01 -0.54185573733E-01  0.11799789347E-01  0.57009196396E-01  0.51100000000E-03 0. -1.
</event>
<event>
 8    1  0.1101883E+005  0.1043930E+01  0.7957747E-01            NaN
         13   -1    0    0    0    0  0.00000000000E+00  0.00000000000E+00  0.74505805969E-08  0.10566000000E+00  0.10566000000E+00 0. -1.
     999900   -1    0    0    0    0 -0.00000000000E+00 -0.00000000000E+00 -0.74505805969E-08  0.93827000000E+00  0.93827000000E+00 0. -1.
     999902    2    1    2    0    0 -0.98366339284E-02  0.16465849670E-01  0.13582415350E-01  0.10204275410E+01  0.10201568511E+01 0.  0.
     999903    2    3    3    0    0 -0.12775315640E+00  0.89820885582E-02  0.27776533372E-01  0.13241752645E+00  0.19008382911E-01 0.  0.
         14    1    1    2    0    0  0.98366339284E-02 -0.16465849670E-01 -0.13582415350E-01  0.23502459002E-01  0.00000000000E+00 0. -1.
     999901    1    3    3    0    0  0.11791652247E+00  0.74837611114E-02 -0.14194118021E-01  0.88801001455E+00  0.88000000000E+00 0.  1.
        -11    1    4    4    0    0 -0.80013673475E-01  0.61426443676E-02  0.26710229870E-01  0.84579060786E-01  0.51100000000E-03 0.  1.
         11    1    4    4    0    0 -0.47739482921E-01  0.28394441906E-02  0.10663035021E-02  0.47838465664E-01  0.51100000000E-03 0. -1.
</event>
<event>
 8    1  0.1101883E+005  0.1043930E+01  0.7957747E-01            NaN
         13   -1    0    0    0    0  0.00000000000E+00  0.00000000000E+00  0.74505805969E-08  0.10566000000E+00  0.10566000000E+00 0.  1.
     999900   -1    0    0    0    0 -0.00000000000E+00 -0.00000000000E+00 -0.74505805969E-08  0.93827000000E+00  0.93827000000E+00 0. -1.
     999902    2    1    2    0    0  0.15258460522E-01  0.73452825426E-02  0.18178138265E-01  0.10190861174E+01  0.10187832430E+01 0.  0.
     999903    2    3    3    0    0  0.63451561401E-01 -0.76588501066E-01 -0.78698109859E-01  0.12849504261E+00  0.20632119125E-01 0.  0.
         14    1    1    2    0    0 -0.15258460522E-01 -0.73452825426E-02 -0.18178138265E-01  0.24843882626E-01  0.00000000000E+00 0. -1.
     999901    1    3    3    0    0 -0.48193100879E-01  0.83933783608E-01  0.96876248124E-01  0.89059107477E+00  0.88000000000E+00 0. -1.
        -11    1    4    4    0    0  0.46004167114E-03 -0.94180768822E-02 -0.62346530358E-02  0.11315645363E-01  0.51100000000E-03 0.  1.
         11    1    4    4    0    0  0.62991519730E-01 -0.67170424184E-01 -0.72463456823E-01  0.11717939724E+00  0.51100000000E-03 0. -1.
</event>
<event>
 8    1  0.1101883E+005  0.1043930E+01  0.7957747E-01            NaN
         13   -1    0    0    0    0  0.00000000000E+00  0.00000000000E+00  0.74505805969E-08  0.10566000000E+00  0.10566000000E+00 0.  1.
     999900   -1    0    0    0    0 -0.00000000000E+00 -0.00000000000E+00 -0.74505805969E-08  0.93827000000E+00  0.93827000000E+00 0.  1.
     999902    2    1    2    0    0 -0.14062068624E-01 -0.13882599048E-01  0.12752283833E-01  0.10204121542E+01  0.10201411056E+01 0.  0.
     999903    2    3    3    0    0  0.16260083420E-01 -0.21533756986E-02  0.12972208428E+00  0.13207722756E+00  0.18642627283E-01 0.  0.
         14    1    1    2    0    0  0.14062068624E-01  0.13882599048E-01 -0.12752283833E-01  0.23517845846E-01  0.00000000000E+00 0. -1.
     999901    1    3    3    0    0 -0.30322152044E-01 -0.11729223349E-01 -0.11696980044E+00  0.88833492659E+00  0.88000000000E+00 0.  1.
        -11    1    4    4    0    0  0.15282311526E-01  0.40441111684E-02  0.59257220789E-01  0.61331747222E-01  0.51100000000E-03 0. -1.
         11    1    4    4    0    0  0.97777189475E-03 -0.61974868670E-02  0.70464863488E-01  0.70745480341E-01  0.51100000000E-03 0.  1.
</event>
<event>
 8    1  0.1101883E+005  0.1043930E+01  0.7957747E-01            NaN
         13   -1    0    0    0    0  0.00000000000E+00  0.00000000000E+00  0.74505805969E-08  0.10566000000E+00  0.10566000000E+00 0. -1.
     999900   -1    0    0    0    0 -0.00000000000E+00 -0.00000000000E+00 -0.74505805969E-08  0.93827000000E+00  0.93827000000E+00 0.  1.
     999902    2    1    2    0    0 -0.21064093742E-01  0.42494906720E-02  0.10849570008E-01  0.10198578712E+01  0.10195737394E+01 0.  0.
     999903    2    3    3    0    0  0.11940790742E-01 -0.58040663289E-01  0.11491376352E+00  0.13092663535E+00  0.20623038553E-01 0.  0.
         14    1    1    2    0    0  0.21064093742E-01 -0.42494906720E-02 -0.10849570008E-01  0.24072128811E-01  0.00000000000E+00 0.  1.
     999901    1    3    3    0    0 -0.33004884484E-01  0.62290153961E-01 -0.10406419351E+00  0.88893123584E+00  0.88000000000E+00 0.  1.
        -11    1    4    4    0    0  0.12020106520E-01 -0.14053633253E-01  0.39567874919E-01  0.43679118752E-01  0.51100000000E-03 0.  1.
         11    1    4    4    0    0 -0.79315777953E-04 -0.43987030037E-01  0.75345888600E-01  0.87247516597E-01  0.51100000000E-03 0. -1.
</event>
<event>
 8    1  0.1101883E+005  0.1043930E+01  0.7957747E-01            NaN
         13   -1    0    0    0    0  0.00000000000E+00  0.00000000000E+00  0.74505805969E-08  0.10566000000E+00  0.10566000000E+00 0.  1.
     999900   -1    0    0    0    0 -0.00000000000E+00 -0.00000000000E+00 -0.74505805969E-08  0.93827000000E+00  0.93827000000E+00 0.  1.
     999902    2    1    2    0    0 -0.21672489574E-01  0.11179325885E-01  0.11822622580E-02  0.10195154167E+01  0.10192230438E+01 0.  0.
     999903    2    3    3    0    0 -0.51646740037E-01  0.11558132070E+00 -0.31386022946E-01  0.13223928982E+00  0.21811003741E-01 0.  0.
         14    1    1    2    0    0  0.21672489574E-01 -0.11179325885E-01 -0.11822622580E-02  0.24414583257E-01  0.00000000000E+00 0. -1.
     999901    1    3    3    0    0  0.29974250463E-01 -0.10440199481E+00  0.32568285204E-01  0.88727612693E+00  0.88000000000E+00 0. -1.
        -11    1    4    4    0    0 -0.39048850324E-01  0.75381841749E-01 -0.30147033303E-01  0.90090729351E-01  0.51100000000E-03 0. -1.
         11    1    4    4    0    0 -0.12597889713E-01  0.40199478949E-01 -0.12389896436E-02  0.42148560466E-01  0.51100000000E-03 0.  1.
</event>
<event>
 8    1  0.1101883E+005  0.1043930E+01  0.7957747E-01            NaN
         13   -1    0    0    0    0  0.00000000000E+00  0.00000000000E+00  0.74505805969E-08  0.10566000000E+00  0.10566000000E+00 0. -1.
     999900   -1    0    0    0    0 -0.00000000000E+00 -0.00000000000E+00 -0.74505805969E-08  0.93827000000E+00  0.93827000000E+00 0.  1.
     999902    2    1    2    0    0  0.51893203553E-02 -0.17784698909E-01 -0.83173735684E-02  0.10236222856E+01  0.10234208227E+01 0.  0.
     999903    2    3    3    0    0  0.37385933561E-01 -0.98735217964E-01 -0.83600335775E-01  0.13612178823E+00  0.19843734382E-01 0.  0.
         14    1    1    2    0    0 -0.51893203553E-02  0.17784698909E-01  0.83173735684E-02  0.20307714399E-01  0.00000000000E+00 0.  1.
     999901    1    3    3    0    0 -0.32196613206E-01  0.80950519054E-01  0.75282962207E-01  0.88750049737E+00  0.88000000000E+00 0. -1.
        -11    1    4    4    0    0  0.24183500173E-02 -0.11396601740E-01 -0.17930967666E-01  0.21389522446E-01  0.51100000000E-03 0.  1.
         11    1    4    4    0    0  0.34967583544E-01 -0.87338616224E-01 -0.65669368109E-01  0.11473226578E+00  0.51100000000E-03 0. -1.
</event>
<event>
 8    1  0.1101883E+005  0.1043930E+01  0.7957747E-01            NaN
         13   -1    0    0    0    0  0.00000000000E+00  0.00000000000E+00  0.74505805969E-08  0.10566000000E+00  0.10566000000E+00 0. -1.
     999900   -1    0    0    0    0 -0.00000000000E+00 -0.00000000000E+00 -0.74505805969E-08  0.93827000000E+00  0.93827000000E+00 0.  1.
     999902    2    1    2    0    0 -0.12435689706E-01  0.10572094590E-02 -0.20898918893E-01  0.10195880839E+01  0.10192974698E+01 0.  0.
     999903    2    3    3    0    0  0.58372216351E-01 -0.25574298613E-01  0.10799130769E+00  0.12698756443E+00  0.20058878118E-01 0.  0.
         14    1    1    2    0    0  0.12435689706E-01 -0.10572094590E-02  0.20898918893E-01  0.24341916137E-01  0.00000000000E+00 0. -1.
     999901    1    3    3    0    0 -0.70807906057E-01  0.26631508072E-01 -0.12889022659E+00  0.89260051943E+00  0.88000000000E+00 0.  1.
        -11    1    4    4    0    0  0.28178956726E-01 -0.19333396397E-01  0.71236078367E-01  0.79010592964E-01  0.51100000000E-03 0. -1.
         11    1    4    4    0    0  0.30193259625E-01 -0.62409022159E-02  0.36755229326E-01  0.47976971466E-01  0.51100000000E-03 0.  1.
</event>
<event>
 8    1  0.1101883E+005  0.1043930E+01  0.7957747E-01            NaN
         13   -1    0    0    0    0  0.00000000000E+00  0.00000000000E+00  0.74505805969E-08  0.10566000000E+00  0.10566000000E+00 0.  1.
     999900   -1    0    0    0    0 -0.00000000000E+00 -0.00000000000E+00 -0.74505805969E-08  0.93827000000E+00  0.93827000000E+00 0.  1.
     999902    2    1    2    0    0  0.12166919141E-01 -0.19319205579E-01  0.83237004418E-02  0.10196287734E+01  0.10193391418E+01 0.  0.
     999903    2    3    3    0    0 -0.50986604501E-01  0.51558520415E-01  0.10507826928E+00  0.12925050199E+00  0.20157746018E-01 0.  0.
         14    1    1    2    0    0 -0.12166919141E-01  0.19319205579E-01 -0.83237004418E-02  0.24301226607E-01  0.00000000000E+00 0.  1.
     999901    1    3    3    0    0  0.63153523642E-01 -0.70877725994E-01 -0.96754568838E-01  0.89037827140E+00  0.88000000000E+00 0.  1.
        -11    1    4    4    0    0 -0.32468139702E-01  0.45203789554E-01  0.76475495975E-01  0.94585016209E-01  0.51100000000E-03 0.  1.
         11    1    4    4    0    0 -0.18518464799E-01  0.63547308609E-02  0.28602773306E-01  0.34665485784E-01  0.51100000000E-03 0. -1.
</event>
<event>
 8    1  0.1101883E+005  0.1043930E+01  0.7957747E-01            NaN
         13   -1    0    0    0    0  0.00000000000E+00  0.00000000000E+00  0.74505805969E-08  0.10566000000E+00  0.10566000000E+00 0. -1.
     999900   -1    0    0    0    0 -0.00000000000E+00 -0.00000000000E+00 -0.74505805969E-08  0.93827000000E+00  0.93827000000E+00 0. -1.
     999902    2    1    2    0    0 -0.11565998768E-01 -0.20737660204E-01 -0.20326165918E-02  0.10200982059E+01  0.10198197857E+01 0.  0.
     999903    2    3    3    0    0 -0.25814863164E-01 -0.12413056963E+00 -0.35990146956E-01  0.13328016500E+00  0.19836991423E-01 0.  0.
         14    1    1    2    0    0  0.11565998768E-01  0.20737660204E-01  0.20326165918E-02  0.23831794067E-01  0.00000000000E+00 0.  1.
     999901    1    3    3    0    0  0.14248864396E-01  0.10339290942E+00  0.33957530364E-01  0.88681804093E+00  0.88000000000E+00 0.  1.
        -11    1    4    4    0    0 -0.24364435528E-01 -0.69787943685E-01 -0.22461261571E-01  0.77257699906E-01  0.51100000000E-03 0.  1.
         11    1    4    4    0    0 -0.14504276363E-02 -0.54342625941E-01 -0.13528885385E-01  0.56022465094E-01  0.51100000000E-03 0. -1.
</event>
<event>
 8    1  0.1101883E+005  0.1043930E+01  0.7957747E-01            NaN
         13   -1    0    0    0    0  0.00000000000E+00  0.00000000000E+00  0.74505805969E-08  0.10566000000E+00  0.10566000000E+00 0. -1.
     999900   -1    0    0    0    0 -0.00000000000E+00 -0.00000000000E+00 -0.74505805969E-08  0.93827000000E+00  0.93827000000E+00 0.  1.
     999902    2    1    2    0    0 -0.81589662343E-02  0.17934159057E-01  0.13659492536E-01  0.10199553357E+01  0.10196735273E+01 0.  0.
     999903    2    3    3    0    0 -0.70049762080E-02 -0.61658122423E-01  0.11338281904E+00  0.13075288137E+00  0.19744836832E-01 0.  0.
         14    1    1    2    0    0  0.81589662343E-02 -0.17934159057E-01 -0.13659492536E-01  0.23974664281E-01  0.00000000000E+00 0.  1.
     999901    1    3    3    0    0 -0.11539900263E-02  0.79592281480E-01 -0.99723326505E-01  0.88920245435E+00  0.88000000000E+00 0. -1.
        -11    1    4    4    0    0 -0.16804094410E-02 -0.24781094444E-01  0.27081114832E-01  0.36750160806E-01  0.51100000000E-03 0.  1.
         11    1    4    4    0    0 -0.53245667670E-02 -0.36877027980E-01  0.86301704208E-01  0.94002720567E-01  0.51100000000E-03 0. -1.
</event>
<event>
 8    1  0.1101883E+005  0.1043930E+01  0.7957747E-01            NaN
         13   -1    0    0    0    0  0.00000000000E+00  0.00000000000E+00  0.74505805969E-08  0.10566000000E+00  0.10566000000E+00 0.  1.
     999900   -1    0    0    0    0 -0.00000000000E+00 -0.00000000000E+00 -0.74505805969E-08  0.93827000000E+00  0.93827000000E+00 0.  1.
     999902    2    1    2    0    0 -0.18532740167E-01 -0.13906774762E-01  0.60140939557E-02  0.10199919514E+01  0.10197110134E+01 0.  0.
     999903    2    3    3    0    0  0.10343966890E-01  0.10348391007E+00 -0.72380798024E-01  0.12827439741E+00  0.19985590159E-01 0.  0.
         14    1    1    2    0    0  0.18532740167E-01  0.13906774762E-01 -0.60140939557E-02  0.23938048552E-01  0.00000000000E+00 0.  1.
     999901    1    3    3    0    0 -0.28876707056E-01 -0.11739068483E+00  0.78394891980E-01  0.89171755404E+00  0.88000000000E+00 0. -1.
        -11    1    4    4    0    0  0.12945130795E-01  0.36909362652E-01 -0.23418970333E-01  0.45591520650E-01  0.51100000000E-03 0.  1.
         11    1    4    4    0    0 -0.26011639057E-02  0.66574547415E-01 -0.48961827691E-01  0.82682876758E-01  0.51100000000E-03 0. -1.
</event>
<event>
 8    1  0.1101883E+005  0.1043930E+01  0.7957747E-01            NaN
         13   -1    0    0    0    0  0.00000000000E+00  0.00000000000E+00  0.74505805969E-08  0.10566000000E+00  0.10566000000E+00 0.  1.
     999900   -1    0    0    0    0 -0.00000000000E+00 -0.00000000000E+00 -0.74505805969E-08  0.93827000000E+00  0.93827000000E+00 0. -1.
     999902    2    1    2    0    0 -0.35363754239E-02  0.23333168176E-01 -0.49126825418E-02  0.10198244584E+01  0.10195395278E+01 0.  0.
     999903    2    3    3    0    0  0.49935068289E-01  0.10566282298E+00 -0.59443888937E-01  0.13268804279E+00  0.20356757149E-01 0.  0.
         14    1    1    2    0    0  0.35363754239E-02 -0.23333168176E-01  0.49126825418E-02  0.24105541646E-01  0.00000000000E+00 0.  1.
     999901    1    3    3    0    0 -0.53471443713E-01 -0.82329654805E-01  0.54531206395E-01  0.88713641557E+00  0.88000000000E+00 0.  1.
        -11    1    4    4    0    0  0.36084180007E-01  0.55919279173E-01 -0.27804949304E-01  0.72127735004E-01  0.51100000000E-03 0.  1.
         11    1    4    4    0    0  0.13850888281E-01  0.49743543808E-01 -0.31638939633E-01  0.60560307784E-01  0.51100000000E-03 0. -1.
</event>
<event>
 8    1  0.1101883E+005  0.1043930E+01  0.7957747E-01            NaN
         13   -1    0    0    0    0  0.00000000000E+00  0.00000000000E+00  0.74505805969E-08  0.10566000000E+00  0.10566000000E+00 0.  1.
     999900   -1    0    0    0    0 -0.00000000000E+00 -0.00000000000E+00 -0.74505805969E-08  0.93827000000E+00  0.93827000000E+00 0. -1.
     999902    2    1    2    0    0  0.25618102161E-01 -0.19182398479E-01 -0.14313210693E-01  0.10088711984E+01  0.10082618585E+01 0.  0.
     999903    2    3    3    0    0 -0.70606866121E-02 -0.12046599207E+00 -0.70666086583E-02  0.12242955744E+00  0.19420376854E-01 0.  0.
         14    1    1    2    0    0 -0.25618102161E-01  0.19182398479E-01  0.14313210693E-01  0.35058801607E-01  0.00000000000E+00 0.  1.
     999901    1    3    3    0    0  0.32678788773E-01  0.10128359359E+00 -0.72466020351E-02  0.88644164095E+00  0.88000000000E+00 0.  1.
        -11    1    4    4    0    0  0.37047457955E-02 -0.23867977531E-01  0.44051795094E-02  0.24557528791E-01  0.51100000000E-03 0. -1.
         11    1    4    4    0    0 -0.10765432408E-01 -0.96598014540E-01 -0.11471788168E-01  0.97872028654E-01  0.51100000000E-03 0.  1.
</event>
<event>
 8    1  0.1101883E+005  0.1043930E+01  0.7957747E-01            NaN
         13   -1    0    0    0    0  0.00000000000E+00  0.00000000000E+00  0.74505805969E-08  0.10566000000E+00  0.10566000000E+00 0.  1.
     999900   -1    0    0    0    0 -0.00000000000E+00 -0.00000000000E+00 -0.74505805969E-08  0.93827000000E+00  0.93827000000E+00 0.  1.
     999902    2    1    2    0    0 -0.91804928009E-02 -0.72689975843E-02 -0.20870874019E-01  0.10199985739E+01  0.10197177931E+01 0.  0.
     999903    2    3    3    0    0 -0.26380734443E-01  0.36067512117E-01  0.11832742470E+00  0.12783823641E+00  0.18558735752E-01 0.  0.
         14    1    1    2    0    0  0.91804928009E-02  0.72689975843E-02  0.20870874019E-01  0.23931426122E-01  0.00000000000E+00 0.  1.
     999901    1    3    3    0    0  0.17200241642E-01 -0.43336509702E-01 -0.13919829872E+00  0.89216033747E+00  0.88000000000E+00 0.  1.
        -11    1    4    4    0    0 -0.14013917154E-02  0.52391425610E-02  0.38286006444E-02  0.66582142808E-02  0.51100000000E-03 0.  1.
         11    1    4    4    0    0 -0.24979342727E-01  0.30828369556E-01  0.11449882405E+00  0.12118002213E+00  0.51100000000E-03 0. -1.
</event>
<event>
 8    1  0.1101883E+005  0.1043930E+01  0.7957747E-01            NaN
         13   -1    0    0    0    0  0.00000000000E+00  0.00000000000E+00  0.74505805969E-08  0.10566000000E+00  0.10566000000E+00 0.  1.
     999900   -1    0    0    0    0 -0.00000000000E+00 -0.00000000000E+00 -0.74505805969E-08  0.93827000000E+00  0.93827000000E+00 0.  1.
     999902    2    1    2    0    0  0.75972494333E-02 -0.16458575850E-01  0.13364121119E-01  0.10214088399E+01  0.10211605239E+01 0.  0.
     999903    2    3    3    0    0  0.18122779133E-01 -0.42317978756E-01  0.12414250060E+00  0.13402428695E+00  0.20782266207E-01 0.  0.
         14    1    1    2    0    0 -0.75972494333E-02  0.16458575850E-01 -0.13364121119E-01  0.22521160078E-01  0.00000000000E+00 0. -1.
     999901    1    3    3    0    0 -0.10525529699E-01  0.25859402906E-01 -0.11077837948E+00  0.88738455297E+00  0.88000000000E+00 0.  1.
        -11    1    4    4    0    0  0.18913292494E-01 -0.42451656875E-01  0.10462514580E+00  0.11448378950E+00  0.51100000000E-03 0.  1.
         11    1    4    4    0    0 -0.79051336175E-03  0.13367811846E-03  0.19517354799E-01  0.19540497449E-01  0.51100000000E-03 0. -1.
</event>
<event>
 8    1  0.1101883E+005  0.1043930E+01  0.7957747E-01            NaN
         13   -1    0    0    0    0  0.00000000000E+00  0.00000000000E+00  0.74505805969E-08  0.10566000000E+00  0.10566000000E+00 0.  1.
     999900   -1    0    0    0    0 -0.00000000000E+00 -0.00000000000E+00 -0.74505805969E-08  0.93827000000E+00  0.93827000000E+00 0.  1.
     999902    2    1    2    0    0  0.57863360069E-02 -0.19742661820E-01 -0.11505501015E-01  0.10203581750E+01  0.10200858662E+01 0.  0.
     999903    2    3    3    0    0 -0.12302982875E+00  0.14394760699E-01 -0.33560295484E-01  0.13005183341E+00  0.21062716877E-01 0.  0.
         14    1    1    2    0    0 -0.57863360069E-02  0.19742661820E-01  0.11505501015E-01  0.23571824998E-01  0.00000000000E+00 0.  1.
     999901    1    3    3    0    0  0.12881616476E+00 -0.34137422519E-01  0.22054794469E-01  0.89030634159E+00  0.88000000000E+00 0.  1.
        -11    1    4    4    0    0 -0.90639340339E-01  0.11631123347E-02 -0.24793388050E-01  0.93977742362E-01  0.51100000000E-03 0. -1.
         11    1    4    4    0    0 -0.32390488412E-01  0.13231648365E-01 -0.87669074342E-02  0.36074091049E-01  0.51100000000E-03 0.  1.
</event>
<event>
 8    1  0.1101883E+005  0.1043930E+01  0.7957747E-01            NaN
         13   -1    0    0    0    0  0.00000000000E+00  0.00000000000E+00  0.74505805969E-08  0.10566000000E+00  0.10566000000E+00 0. -1.
     999900   -1    0    0    0    0 -0.00000000000E+00 -0.00000000000E+00 -0.74505805969E-08  0.93827000000E+00  0.93827000000E+00 0. -1.
     999902    2    1    2    0    0  0.73880836395E-02  0.19313764683E-01  0.17576175605E-01  0.10167909647E+01  0.10164287180E+01 0.  0.
     999903    2    3    3    0    0  0.98168129730E-01  0.77168683529E-01  0.30226159180E-01  0.13014096023E+00  0.20762018670E-01 0.  0.
         14    1    1    2    0    0 -0.73880836395E-02 -0.19313764683E-01 -0.17576175605E-01  0.27139035263E-01  0.00000000000E+00 0.  1.
     999901    1    3    3    0    0 -0.90780046091E-01 -0.57854918846E-01 -0.12649983575E-01  0.88665000450E+00  0.88000000000E+00 0. -1.
        -11    1    4    4    0    0  0.49782765765E-01  0.28849822779E-01  0.72153635906E-02  0.57991022015E-01  0.51100000000E-03 0. -1.
         11    1    4    4    0    0  0.48385363965E-01  0.48318860749E-01  0.23010795589E-01  0.72149938218E-01  0.51100000000E-03 0.  1.
</event>
<event>
 8    1  0.1101883E+005  0.1043930E+01  0.7957747E-01            NaN
         13   -1    0    0    0    0  0.00000000000E+00  0.00000000000E+00  0.74505805969E-08  0.10566000000E+00  0.10566000000E+00 0. -1.
     999900   -1    0    0    0    0 -0.00000000000E+00 -0.00000000000E+00 -0.74505805969E-08  0.93827000000E+00  0.93827000000E+00 0. -1.
     999902    2    1    2    0    0 -0.19991577867E-02  0.22768332466E-01 -0.74106627303E-02  0.10199026923E+01  0.10196196301E+01 0.  0.
     999903    2    3    3    0    0 -0.51885605088E-01 -0.72858999171E-01  0.88738484869E-01  0.12811914074E+00  0.23225971474E-01 0.  0.
         14    1    1    2    0    0  0.19991577867E-02 -0.22768332466E-01  0.74106627303E-02  0.24027307740E-01  0.00000000000E+00 0. -1.
     999901    1    3    3    0    0  0.49886447301E-01  0.95627331637E-01 -0.96149147600E-01  0.89178355152E+00  0.88000000000E+00 0. -1.
        -11    1    4    4    0    0 -0.26143660858E-01 -0.40095878204E-01  0.31437587810E-01  0.57269132177E-01  0.51100000000E-03 0.  1.
         11    1    4    4    0    0 -0.25741944230E-01 -0.32763120967E-01  0.57300897059E-01  0.70850008561E-01  0.51100000000E-03 0. -1.
</event>
<event>
 8    1  0.1101883E+005  0.1043930E+01  0.7957747E-01            NaN
         13   -1    0    0    0    0  0.00000000000E+00  0.00000000000E+00  0.74505805969E-08  0.10566000000E+00  0.10566000000E+00 0.  1.
     999900   -1    0    0    0    0 -0.00000000000E+00 -0.00000000000E+00 -0.74505805969E-08  0.93827000000E+00  0.93827000000E+00 0. -1.
     999902    2    1    2    0    0 -0.22286090306E-01  0.45844293154E-03 -0.47601556297E-02  0.10211366002E+01  0.10208821760E+01 0.  0.
     999903    2    3    3    0    0  0.43261730263E-02  0.71902481754E-01  0.10724941507E+00  0.13076667309E+00  0.20218879850E-01 0.  0.
         14    1    1    2    0    0  0.22286090306E-01 -0.45844293154E-03  0.47601556297E-02  0.22793399761E-01  0.00000000000E+00 0.  1.
     999901    1    3    3    0    0 -0.26612263332E-01 -0.71444038823E-01 -0.11200957070E+00  0.89036992715E+00  0.88000000000E+00 0. -1.
        -11    1    4    4    0    0  0.20872692871E-02  0.28212327362E-01  0.60208581187E-01  0.66525382207E-01  0.51100000000E-03 0.  1.
         11    1    4    4    0    0  0.22389037392E-02  0.43690154392E-01  0.47040833885E-01  0.64241290883E-01  0.51100000000E-03 0. -1.
</event>
<event>
 8    1  0.1101883E+005  0.1043930E+01  0.7957747E-01            NaN
         13   -1    0    0    0    0  0.00000000000E+00  0.00000000000E+00  0.74505805969E-08  0.10566000000E+00  0.10566000000E+00 0.  1.
     999900   -1    0    0    0    0 -0.00000000000E+00 -0.00000000000E+00 -0.74505805969E-08  0.93827000000E+00  0.93827000000E+00 0. -1.
     999902    2    1    2    0    0  0.15331104946E-01  0.21981401921E-02 -0.84043935353E-02  0.10263087506E+01  0.10261574651E+01 0.  0.
     999903    2    3    3    0    0  0.93042916436E-01  0.75137547016E-01  0.63523154066E-01  0.13696469188E+00  0.20530476063E-01 0.  0.
         14    1    1    2    0    0 -0.15331104946E-01 -0.21981401921E-02  0.84043935353E-02  0.17621249384E-01  0.00000000000E+00 0.  1.
     999901    1    3    3    0    0 -0.77711811490E-01 -0.72939406824E-01 -0.71927547602E-01  0.88934405874E+00  0.88000000000E+00 0.  1.
        -11    1    4    4    0    0  0.91961488118E-02  0.11101303903E-01  0.15087168807E-01  0.20873233696E-01  0.51100000000E-03 0.  1.
         11    1    4    4    0    0  0.83846767625E-01  0.64036243113E-01  0.48435985259E-01  0.11609145818E+00  0.51100000000E-03 0. -1.
</event>
<event>
 8    1  0.1101883E+005  0.1043930E+01  0.7957747E-01            NaN
         13   -1    0    0    0    0  0.00000000000E+00  0.00000000000E+00  0.74505805969E-08  0.10566000000E+00  0.10566000000E+00 0. -1.
     999900   -1    0    0    0    0 -0.00000000000E+00 -0.00000000000E+00 -0.74505805969E-08  0.93827000000E+00  0.93827000000E+00 0. -1.
     999902    2    1    2    0    0  0.20909667922E-01 -0.78944070492E-02  0.85003823384E-02  0.10200178195E+01  0.10197374955E+01 0.  0.
     999903    2    3    3    0    0 -0.11528784351E-01  0.11913688598E+00  0.41698387869E-01  0.12968568477E+00  0.27442864547E-01 0.  0.
         14    1    1    2    0    0 -0.20909667922E-01  0.78944070492E-02 -0.85003823384E-02  0.23912180477E-01  0.00000000000E+00 0. -1.
     999901    1    3    3    0    0  0.32438452272E-01 -0.12703129303E+00 -0.33198005530E-01  0.89033213475E+00  0.88000000000E+00 0. -1.
        -11    1    4    4    0    0  0.76257853388E-02  0.51015402138E-01  0.23078405927E-01  0.56511926162E-01  0.51100000000E-03 0.  1.
         11    1    4    4    0    0 -0.19154569689E-01  0.68121483843E-01  0.18619981942E-01  0.73173758613E-01  0.51100000000E-03 0. -1.
</event>
<event>
 8    1  0.1101883E+005  0.1043930E+01  0.7957747E-01            NaN
         13   -1    0    0    0    0  0.00000000000E+00  0.00000000000E+00  0.74505805969E-08  0.10566000000E+00  0.10566000000E+00 0. -1.
     999900   -1    0    0    0    0 -0.00000000000E+00 -0.00000000000E+00 -0.74505805969E-08  0.93827000000E+00  0.93827000000E+00 0. -1.
     999902    2    1    2    0    0 -0.16591379935E-01  0.75741605768E-02  0.16141854270E-01  0.10195742767E+01  0.10192833289E+01 0.  0.
     999903    2    3    3    0    0  0.10804025722E+00 -0.65118521823E-01  0.48051113301E-04  0.12767950628E+00  0.19721433807E-01 0.  0.
         14    1    1    2    0    0  0.16591379935E-01 -0.75741605768E-02 -0.16141854270E-01  0.24355723267E-01  0.00000000000E+00 0.  1.
     999901    1    3    3    0    0 -0.12463163716E+00  0.72692682399E-01  0.16093803156E-01  0.89189477045E+00  0.88000000000E+00 0.  1.
        -11    1    4    4    0    0  0.84132890601E-01 -0.43514786577E-01  0.59868828648E-02  0.94910398899E-01  0.51100000000E-03 0. -1.
         11    1    4    4    0    0  0.23907366619E-01 -0.21603735246E-01 -0.59388317515E-02  0.32769107385E-01  0.51100000000E-03 0.  1.
</event>
<event>
 8    1  0.1101883E+005  0.1043930E+01  0.7957747E-01            NaN
         13   -1    0    0    0    0  0.00000000000E+00  0.00000000000E+00  0.74505805969E-08  0.10566000000E+00  0.10566000000E+00 0. -1.
     999900   -1    0    0    0    0 -0.00000000000E+00 -0.00000000000E+00 -0.74505805969E-08  0.93827000000E+00  0.93827000000E+00 0. -1.
     999902    2    1    2    0    0  0.20706351977E-01 -0.94861537618E-02  0.77131140473E-02  0.10198835397E+01  0.10196000207E+01 0.  0.
     999903    2    3    3    0    0  0.10482162708E+00 -0.79484938423E-01 -0.11362189361E-02  0.13306139289E+00  0.19965328558E-01 0.  0.
         14    1    1    2    0    0 -0.20706351977E-01  0.94861537618E-02 -0.77131140473E-02  0.24046460315E-01  0.00000000000E+00 0. -1.
     999901    1    3    3    0    0 -0.84115275098E-01  0.69998784661E-01  0.88493329834E-02  0.88682214680E+00  0.88000000000E+00 0.  1.
        -11    1    4    4    0    0  0.34971374604E-01 -0.32894355318E-01  0.77243663531E-02  0.48630881238E-01  0.51100000000E-03 0.  1.
         11    1    4    4    0    0  0.69850252471E-01 -0.46590583105E-01 -0.88605852892E-02  0.84430511647E-01  0.51100000000E-03 0. -1.
</event>
<event>
 8    1  0.1101883E+005  0.1043930E+01  0.7957747E-01            NaN
         13   -1    0    0    0    0  0.00000000000E+00  0.00000000000E+00  0.74505805969E-08  0.10566000000E+00  0.10566000000E+00 0. -1.
     999900   -1    0    0    0    0 -0.00000000000E+00 -0.00000000000E+00 -0.74505805969E-08  0.93827000000E+00  0.93827000000E+00 0.  1.
     999902    2    1    2    0    0 -0.93827872518E-02 -0.17909973580E-01  0.88759050313E-02  0.10218486608E+01  0.10216100528E+01 0.  0.
     999903    2    3    3    0    0 -0.67923970103E-01 -0.92856732763E-01  0.67422854486E-01  0.13479069648E+00  0.19663469055E-01 0.  0.
         14    1    1    2    0    0  0.93827872518E-02  0.17909973580E-01 -0.88759050313E-02  0.22081339189E-01  0.00000000000E+00 0.  1.
     999901    1    3    3    0    0  0.58541182851E-01  0.74946759184E-01 -0.58546949454E-01  0.88705796434E+00  0.88000000000E+00 0. -1.
        -11    1    4    4    0    0 -0.69861864671E-02 -0.20078629972E-01  0.75654897871E-02  0.22571130668E-01  0.51100000000E-03 0.  1.
         11    1    4    4    0    0 -0.60937783636E-01 -0.72778102791E-01  0.59857364699E-01  0.11221956581E+00  0.51100000000E-03 0. -1.
</event>
<event>
 8    1  0.1101883E+005  0.1043930E+01  0.7957747E-01            NaN
         13   -1    0    0    0    0  0.00000000000E+00  0.00000000000E+00  0.74505805969E-08  0.10566000000E+00  0.10566000000E+00 0. -1.
     999900   -1    0    0    0    0 -0.00000000000E+00 -0.00000000000E+00 -0.74505805969E-08  0.93827000000E+00  0.93827000000E+00 0.  1.
     999902    2    1    2    0    0  0.10331312145E-01 -0.20431458099E-01 -0.29938054046E-02  0.10208401026E+01  0.10205789395E+01 0.  0.
     999903    2    3    3    0    0 -0.93709156288E-01  0.55369510273E-01 -0.66526887053E-01  0.12920864380E+00  0.20539189160E-01 0.  0.
         14    1    1    2    0    0 -0.10331312145E-01  0.20431458099E-01  0.29938054046E-02  0.23089897390E-01  0.00000000000E+00 0.  1.
     999901    1    3    3    0    0  0.10404046843E+00 -0.75800968372E-01  0.63533081649E-01  0.89163145881E+00  0.88000000000E+00 0. -1.
        -11    1    4    4    0    0 -0.39300271823E-02  0.45319455506E-03 -0.76183739604E-02  0.85994907849E-02  0.51100000000E-03 0. -1.
         11    1    4    4    0    0 -0.89779129106E-01  0.54916315718E-01 -0.58908513093E-01  0.12060915301E+00  0.51100000000E-03 0.  1.
</event>
<event>
 8    1  0.1101883E+005  0.1043930E+01  0.7957747E-01            NaN
         13   -1    0    0    0    0  0.00000000000E+00  0.00000000000E+00  0.74505805969E-08  0.10566000000E+00  0.10566000000E+00 0. -1.
     999900   -1    0    0    0    0 -0.00000000000E+00 -0.00000000000E+00 -0.74505805969E-08  0.93827000000E+00  0.93827000000E+00 0.  1.
     999902    2    1    2    0    0  0.17887111002E-01  0.15176077511E-01  0.15502987186E-02  0.10204211613E+01  0.10201503228E+01 0.  0.
     999903    2    3    3    0    0 -0.70208342443E-01  0.10482140049E+00 -0.29034058967E-01  0.13096486912E+00  0.19801086172E-01 0.  0.
         14    1    1    2    0    0 -0.17887111002E-01 -0.15176077511E-01 -0.15502987186E-02  0.23508838651E-01  0.00000000000E+00 0.  1.
     999901    1    3    3    0    0  0.88095453445E-01 -0.89645322981E-01  0.30584357685E-01  0.88945629223E+00  0.88000000000E+00 0. -1.
        -11    1    4    4    0    0 -0.31110062501E-01  0.41392991428E-01 -0.24109079788E-02  0.51839071427E-01  0.51100000000E-03 0.  1.
         11    1    4    4    0    0 -0.39098279943E-01  0.63428409065E-01 -0.26623150988E-01  0.79125797693E-01  0.51100000000E-03 0. -1.
</event>
<event>
 8    1  0.1101883E+005  0.1043930E+01  0.7957747E-01            NaN
         13   -1    0    0    0    0  0.00000000000E+00  0.00000000000E+00  0.74505805969E-08  0.10566000000E+00  0.10566000000E+00 0.  1.
     999900   -1    0    0    0    0 -0.00000000000E+00 -0.00000000000E+00 -0.74505805969E-08  0.93827000000E+00  0.93827000000E+00 0.  1.
     999902    2    1    2    0    0 -0.57236419760E-02 -0.19953888001E-02  0.23163940629E-01  0.10199861114E+01  0.10197050347E+01 0.  0.
     999903    2    3    3    0    0  0.11046059168E+00  0.59792825463E-01 -0.22017714082E-01  0.12905517052E+00  0.19842706761E-01 0.  0.
         14    1    1    2    0    0  0.57236419760E-02  0.19953888001E-02 -0.23163940629E-01  0.23943888560E-01  0.00000000000E+00 0. -1.
     999901    1    3    3    0    0 -0.11618423366E+00 -0.61788214263E-01  0.45181654711E-01  0.89093094092E+00  0.88000000000E+00 0. -1.
        -11    1    4    4    0    0  0.50375964648E-01  0.34629399409E-01 -0.30578005520E-02  0.61209022071E-01  0.51100000000E-03 0.  1.
         11    1    4    4    0    0  0.60084627036E-01  0.25163426054E-01 -0.18959913530E-01  0.67846148445E-01  0.51100000000E-03 0. -1.
</event>
<event>
 7    1  0.1101883E+005  0.1043930E+01  0.7957747E-01            NaN
         13   -1    0    0    0    0  0.00000000000E+00  0.00000000000E+00  0.74505805969E-08  0.10566000000E+00  0.10566000000E+00 0.  1.
     999900   -1    0    0    0    0 -0.00000000000E+00 -0.00000000000E+00 -0.74505805969E-08  0.93827000000E+00  0.93827000000E+00 0.  1.
     999903    2    1    2    0    0 -0.10137218872E+00 -0.29103949284E-01 -0.43476611160E-01  0.11596156980E+00  0.20820889544E-01 0.  0.
         14    1    1    2    0    0 -0.29629851572E-02  0.28813718320E-01 -0.26217099118E-01  0.39068477454E-01  0.00000000000E+00 0. -1.
     999901    1    1    2    0    0  0.10433517388E+00  0.29023096465E-03  0.69693710278E-01  0.88889995275E+00  0.88000000000E+00 0. -1.
        -11    1    3    3    0    0 -0.56217012553E-01 -0.75865579991E-02 -0.16254606348E-01  0.59011708255E-01  0.51100000000E-03 0. -1.
         11    1    3    3    0    0 -0.45155176171E-01 -0.21517391285E-01 -0.27222004812E-01  0.56949861543E-01  0.51100000000E-03 0.  1.
</event>
<event>
 8    1  0.1101883E+005  0.1043930E+01  0.7957747E-01            NaN
         13   -1    0    0    0    0  0.00000000000E+00  0.00000000000E+00  0.74505805969E-08  0.10566000000E+00  0.10566000000E+00 0. -1.
     999900   -1    0    0    0    0 -0.00000000000E+00 -0.00000000000E+00 -0.74505805969E-08  0.93827000000E+00  0.93827000000E+00 0.  1.
     999902    2    1    2    0    0 -0.10682678011E-01  0.19485819791E-01  0.92261704871E-02  0.10198688487E+01  0.10195849790E+01 0.  0.
     999903    2    3    3    0    0  0.10396485502E+00  0.25460080613E-01  0.71302280287E-01  0.13024353874E+00  0.20553769154E-01 0.  0.
         14    1    1    2    0    0  0.10682678011E-01 -0.19485819791E-01 -0.92261704871E-02  0.24061151350E-01  0.00000000000E+00 0.  1.
     999901    1    3    3    0    0 -0.11464753303E+00 -0.59742608220E-02 -0.62076109800E-01  0.88962530991E+00  0.88000000000E+00 0. -1.
        -11    1    4    4    0    0  0.74197974298E-01  0.21290845951E-01  0.40381656099E-01  0.87118188580E-01  0.51100000000E-03 0.  1.
         11    1    4    4    0    0  0.29766880719E-01  0.41692346625E-02  0.30920624188E-01  0.43125350162E-01  0.51100000000E-03 0. -1.
</event>
<event>
 8    1  0.1101883E+005  0.1043930E+01  0.7957747E-01            NaN
         13   -1    0    0    0    0  0.00000000000E+00  0.00000000000E+00  0.74505805969E-08  0.10566000000E+00  0.10566000000E+00 0.  1.
     999900   -1    0    0    0    0 -0.00000000000E+00 -0.00000000000E+00 -0.74505805969E-08  0.93827000000E+00  0.93827000000E+00 0.  1.
     999902    2    1    2    0    0  0.42261661225E-02  0.43090734385E-02  0.22054737831E-01  0.10210643040E+01  0.10208082449E+01 0.  0.
     999903    2    3    3    0    0  0.34846802117E-01 -0.36217134484E-02  0.12792306838E+00  0.13415471211E+00  0.20143458795E-01 0.  0.
         14    1    1    2    0    0 -0.42261661225E-02 -0.43090734385E-02 -0.22054737831E-01  0.22865696026E-01  0.00000000000E+00 0. -1.
     999901    1    3    3    0    0 -0.30620635994E-01  0.79307868870E-02 -0.10586833055E+00  0.88690959186E+00  0.88000000000E+00 0.  1.
        -11    1    4    4    0    0  0.86289470170E-02  0.76821259445E-02  0.29952254250E-01  0.32107202328E-01  0.51100000000E-03 0. -1.
         11    1    4    4    0    0  0.26217855100E-01 -0.11303839393E-01  0.97970814126E-01  0.10204750978E+00  0.51100000000E-03 0.  1.
</event>
<event>
 8    1  0.1107876E+005  0.1043930E+01  0.7957747E-01            NaN
         13   -1    0    0    0    0  0.00000000000E+00  0.00000000000E+00  0.74505805969E-08  0.10566000000E+00  0.10566000000E+00 0. -1.
     999900   -1    0    0    0    0 -0.00000000000E+00 -0.00000000000E+00 -0.74505805969E-08  0.93827000000E+00  0.93827000000E+00 0. -1.
     999902    2    1    2    0    0 -0.14656816085E-01 -0.16771748250E-01  0.30412986751E-02  0.10214497132E+01  0.10212023077E+01 0.  0.
     999903    2    3    3    0    0 -0.42848074455E-01  0.91578904374E-01  0.80819784654E-01  0.13095316416E+00  0.19855487910E-01 0.  0.
         14    1    1    2    0    0  0.14656816085E-01  0.16771748250E-01 -0.30412986751E-02  0.22480286803E-01  0.00000000000E+00 0.  1.
     999901    1    3    3    0    0  0.28191258370E-01 -0.10835065262E+00 -0.77778485979E-01  0.89049654904E+00  0.88000000000E+00 0. -1.
        -11    1    4    4    0    0 -0.20453542633E-01  0.27244506636E-01  0.35059135443E-01  0.48887776050E-01  0.51100000000E-03 0.  1.
         11    1    4    4    0    0 -0.22394531822E-01  0.64334397738E-01  0.45760649211E-01  0.82065388106E-01  0.51100000000E-03 0. -1.
</event>
<event>
 8    1  0.1101883E+005  0.1043930E+01  0.7957747E-01            NaN
         13   -1    0    0    0    0  0.00000000000E+00  0.00000000000E+00  0.74505805969E-08  0.10566000000E+00  0.10566000000E+00 0.  1.
     999900   -1    0    0    0    0 -0.00000000000E+00 -0.00000000000E+00 -0.74505805969E-08  0.93827000000E+00  0.93827000000E+00 0. -1.
     999902    2    1    2    0    0 -0.43349382040E-02 -0.86484854666E-02  0.21028937747E-01  0.10207825549E+01  0.10205200734E+01 0.  0.
     999903    2    3    3    0    0  0.55201282946E-01  0.10456732238E+00  0.53520314731E-01  0.13094095648E+00  0.17309056752E-01 0.  0.
         14    1    1    2    0    0  0.43349382040E-02  0.86484854666E-02 -0.21028937747E-01  0.23147445061E-01  0.00000000000E+00 0. -1.
     999901    1    3    3    0    0 -0.59536221150E-01 -0.11321580785E+00 -0.32491376984E-01  0.88984159846E+00  0.88000000000E+00 0. -1.
        -11    1    4    4    0    0  0.40302595953E-01  0.89951679276E-01  0.45692377671E-01  0.10864464250E+00  0.51100000000E-03 0.  1.
         11    1    4    4    0    0  0.14898686994E-01  0.14615643103E-01  0.78279370597E-02  0.22296313979E-01  0.51100000000E-03 0. -1.
</event>
<event>
 8    1  0.1101883E+005  0.1043930E+01  0.7957747E-01            NaN
         13   -1    0    0    0    0  0.00000000000E+00  0.00000000000E+00  0.74505805969E-08  0.10566000000E+00  0.10566000000E+00 0.  1.
     999900   -1    0    0    0    0 -0.00000000000E+00 -0.00000000000E+00 -0.74505805969E-08  0.93827000000E+00  0.93827000000E+00 0. -1.
     999902    2    1    2    0    0  0.13680358820E-01  0.18271843241E-01  0.64678146972E-02  0.10202056433E+01  0.10199297572E+01 0.  0.
     999903    2    3    3    0    0  0.11676482127E+00 -0.42177769503E-01  0.38607569756E-01  0.13154737045E+00  0.20029440936E-01 0.  0.
         14    1    1    2    0    0 -0.13680358820E-01 -0.18271843241E-01 -0.64678146972E-02  0.23724356679E-01  0.00000000000E+00 0.  1.
     999901    1    3    3    0    0 -0.10308446245E+00  0.60449612745E-01 -0.32139755059E-01  0.88865827287E+00  0.88000000000E+00 0. -1.
        -11    1    4    4    0    0  0.32934290443E-01 -0.18275054781E-01  0.44877575704E-02  0.37934762464E-01  0.51100000000E-03 0. -1.
         11    1    4    4    0    0  0.83830530828E-01 -0.23902714722E-01  0.34119812186E-01  0.93612607990E-01  0.51100000000E-03 0.  1.
</event>
<event>
 8    1  0.1101883E+005  0.1043930E+01  0.7957747E-01            NaN
         13   -1    0    0    0    0  0.00000000000E+00  0.00000000000E+00  0.74505805969E-08  0.10566000000E+00  0.10566000000E+00 0. -1.
     999900   -1    0    0    0    0 -0.00000000000E+00 -0.00000000000E+00 -0.74505805969E-08  0.93827000000E+00  0.93827000000E+00 0. -1.
     999902    2    1    2    0    0 -0.35357457940E-02  0.92767670730E-02 -0.22222076761E-01  0.10195911298E+01  0.10193005893E+01 0.  0.
     999903    2    3    3    0    0 -0.41905942156E-01 -0.11541685574E+00 -0.37168566104E-01  0.12984725147E+00  0.20041153424E-01 0.  0.
         14    1    1    2    0    0  0.35357457940E-02 -0.92767670730E-02  0.22222076761E-01  0.24338870172E-01  0.00000000000E+00 0. -1.
     999901    1    3    3    0    0  0.38370196362E-01  0.12469362281E+00  0.14946489343E-01  0.88974387836E+00  0.88000000000E+00 0.  1.
        -11    1    4    4    0    0 -0.31778272196E-01 -0.91454402051E-01 -0.20559699748E-01  0.98978424987E-01  0.51100000000E-03 0. -1.
         11    1    4    4    0    0 -0.10127669961E-01 -0.23962453688E-01 -0.16608866356E-01  0.30868826479E-01  0.51100000000E-03 0.  1.
</event>
<event>
 8    1  0.1101883E+005  0.1043930E+01  0.7957747E-01            NaN
         13   -1    0    0    0    0  0.00000000000E+00  0.00000000000E+00  0.74505805969E-08  0.10566000000E+00  0.10566000000E+00 0. -1.
     999900   -1    0    0    0    0 -0.00000000000E+00 -0.00000000000E+00 -0.74505805969E-08  0.93827000000E+00  0.93827000000E+00 0. -1.
     999902    2    1    2    0    0  0.90101785986E-02  0.16911770081E-01  0.12996081820E-01  0.10207763949E+01  0.10205137721E+01 0.  0.
     999903    2    3    3    0    0 -0.41962996017E-01 -0.11200013662E+00  0.45009376992E-01  0.12934978813E+00  0.20014995232E-01 0.  0.
         14    1    1    2    0    0 -0.90101785986E-02 -0.16911770081E-01 -0.12996081820E-01  0.23153605083E-01  0.00000000000E+00 0.  1.
     999901    1    3    3    0    0  0.50973174615E-01  0.12891190670E+00 -0.32013295172E-01  0.89142660679E+00  0.88000000000E+00 0. -1.
        -11    1    4    4    0    0 -0.35075752618E-01 -0.68766155284E-01  0.32968785740E-01  0.83942209218E-01  0.51100000000E-03 0.  1.
         11    1    4    4    0    0 -0.68872433985E-02 -0.43233981338E-01  0.12040591252E-01  0.45407578912E-01  0.51100000000E-03 0. -1.
</event>
<event>
 8    1  0.1101883E+005  0.1043930E+01  0.7957747E-01            NaN
         13   -1    0    0    0    0  0.00000000000E+00  0.00000000000E+00  0.74505805969E-08  0.10566000000E+00  0.10566000000E+00 0.  1.
     999900   -1    0    0    0    0 -0.00000000000E+00 -0.00000000000E+00 -0.74505805969E-08  0.93827000000E+00  0.93827000000E+00 0. -1.
     999902    2    1    2    0    0  0.22999503749E-01  0.15564077836E-01 -0.15015997735E-01  0.10123594777E+01  0.10118670931E+01 0.  0.
     999903    2    3    3    0    0  0.21649900313E-01  0.50708357492E-01 -0.11263120609E+00  0.12626373188E+00  0.14720247992E-01 0.  0.
         14    1    1    2    0    0 -0.22999503749E-01 -0.15564077836E-01  0.15015997735E-01  0.31570522320E-01  0.00000000000E+00 0. -1.
     999901    1    3    3    0    0  0.13496034358E-02 -0.35144279656E-01  0.97615208352E-01  0.88609574580E+00  0.88000000000E+00 0.  1.
        -11    1    4    4    0    0  0.41568712824E-02  0.25761060619E-01 -0.60309740519E-01  0.65714821353E-01  0.51100000000E-03 0.  1.
         11    1    4    4    0    0  0.17493029031E-01  0.24947296873E-01 -0.52321465568E-01  0.60548910528E-01  0.51100000000E-03 0. -1.
</event>
<event>
 8    1  0.1101883E+005  0.1043930E+01  0.7957747E-01            NaN
         13   -1    0    0    0    0  0.00000000000E+00  0.00000000000E+00  0.74505805969E-08  0.10566000000E+00  0.10566000000E+00 0.  1.
     999900   -1    0    0    0    0 -0.00000000000E+00 -0.00000000000E+00 -0.74505805969E-08  0.93827000000E+00  0.93827000000E+00 0.  1.
     999902    2    1    2    0    0  0.91532381162E-02  0.15461801020E-01  0.16388131364E-01  0.10196108736E+01  0.10193208100E+01 0.  0.
     999903    2    3    3    0    0 -0.77718898442E-01 -0.13351136742E-01 -0.97933867470E-01  0.12750859645E+00  0.21187726264E-01 0.  0.
         14    1    1    2    0    0 -0.91532381162E-02 -0.15461801020E-01 -0.16388131364E-01  0.24319126390E-01  0.00000000000E+00 0. -1.
     999901    1    3    3    0    0  0.86872136558E-01  0.28812937762E-01  0.11432199883E+00  0.89210227716E+00  0.88000000000E+00 0. -1.
        -11    1    4    4    0    0 -0.11880204702E-01 -0.73014105180E-02 -0.86820519332E-02  0.16434384871E-01  0.51100000000E-03 0.  1.
         11    1    4    4    0    0 -0.65838693739E-01 -0.60497262240E-02 -0.89251815537E-01  0.11107421158E+00  0.51100000000E-03 0. -1.
</event>
<event>
 8    1  0.1101883E+005  0.1043930E+01  0.7957747E-01            NaN
         13   -1    0    0    0    0  0.00000000000E+00  0.00000000000E+00  0.74505805969E-08  0.10566000000E+00  0.10566000000E+00 0. -1.
     999900   -1    0    0    0    0 -0.00000000000E+00 -0.00000000000E+00 -0.74505805969E-08  0.93827000000E+00  0.93827000000E+00 0.  1.
     999902    2    1    2    0    0  0.10524053274E-01 -0.10114261889E-01  0.19205855324E-01  0.10198070054E+01  0.10195216571E+01 0.  0.
     999903    2    3    3    0    0  0.12625059451E+00  0.24710282138E-01 -0.13908391146E-01  0.13093022284E+00  0.19986726870E-01 0.  0.
         14    1    1    2    0    0 -0.10524053274E-01  0.10114261889E-01 -0.19205855324E-01  0.24122994624E-01  0.00000000000E+00 0.  1.
     999901    1    3    3    0    0 -0.11572654124E+00 -0.34824544027E-01  0.33114246470E-01  0.88887678254E+00  0.88000000000E+00 0.  1.
        -11    1    4    4    0    0  0.68017838636E-01  0.73627146206E-02 -0.15478044513E-01  0.70146039961E-01  0.51100000000E-03 0.  1.
         11    1    4    4    0    0  0.58232755875E-01  0.17347567518E-01  0.15696533670E-02  0.60784182879E-01  0.51100000000E-03 0. -1.
</event>
<event>
 8    1  0.1101883E+005  0.1043930E+01  0.7957747E-01            NaN
         13   -1    0    0    0    0  0.00000000000E+00  0.00000000000E+00  0.74505805969E-08  0.10566000000E+00  0.10566000000E+00 0.  1.
     999900   -1    0    0    0    0 -0.00000000000E+00 -0.00000000000E+00 -0.74505805969E-08  0.93827000000E+00  0.93827000000E+00 0.  1.
     999902    2    1    2    0    0  0.13275322409E-01  0.18427346563E-01  0.64298115184E-02  0.10203261070E+01  0.10200530481E+01 0.  0.
     999903    2    3    3    0    0  0.50728109703E-01 -0.11106359500E+00 -0.36796361287E-01  0.12901296497E+00  0.19542509506E-01 0.  0.
         14    1    1    2    0    0 -0.13275322409E-01 -0.18427346563E-01 -0.64298115184E-02  0.23603892954E-01  0.00000000000E+00 0.  1.
     999901    1    3    3    0    0 -0.37452787294E-01  0.12949094156E+00  0.43226172805E-01  0.89131314208E+00  0.88000000000E+00 0.  1.
        -11    1    4    4    0    0  0.37028310344E-01 -0.97323614028E-01 -0.28977076642E-01  0.10808752799E+00  0.51100000000E-03 0. -1.
         11    1    4    4    0    0  0.13699799359E-01 -0.13739980973E-01 -0.78192846446E-02  0.20925436984E-01  0.51100000000E-03 0.  1.
</event>
<event>
 8    1  0.1101883E+005  0.1043930E+01  0.7957747E-01            NaN
         13   -1    0    0    0    0  0.00000000000E+00  0.00000000000E+00  0.74505805969E-08  0.10566000000E+00  0.10566000000E+00 0. -1.
     999900   -1    0    0    0    0 -0.00000000000E+00 -0.00000000000E+00 -0.74505805969E-08  0.93827000000E+00  0.93827000000E+00 0.  1.
     999902    2    1    2    0    0 -0.32294647844E-02 -0.22072577026E-01 -0.35750876410E-02  0.10213377591E+01  0.10210878555E+01 0.  0.
     999903    2    3    3    0    0 -0.11524278836E+00  0.14866565139E-01 -0.58914643787E-01  0.13174574506E+00  0.19598241260E-01 0.  0.
         14    1    1    2    0    0  0.32294647844E-02  0.22072577026E-01  0.35750876410E-02  0.22592240947E-01  0.00000000000E+00 0.  1.
     999901    1    3    3    0    0  0.11201332358E+00 -0.36939142165E-01  0.55339556146E-01  0.88959201399E+00  0.88000000000E+00 0. -1.
        -11    1    4    4    0    0 -0.23569986381E-01 -0.17126642691E-02 -0.19281523613E-01  0.30504356259E-01  0.51100000000E-03 0.  1.
         11    1    4    4    0    0 -0.91672801982E-01  0.16579229408E-01 -0.39633120173E-01  0.10124138880E+00  0.51100000000E-03 0. -1.
</event>
<event>
 8    1  0.1101883E+005  0.1043930E+01  0.7957747E-01            NaN
         13   -1    0    0    0    0  0.00000000000E+00  0.00000000000E+00  0.74505805969E-08  0.10566000000E+00  0.10566000000E+00 0. -1.
     999900   -1    0    0    0    0 -0.00000000000E+00 -0.00000000000E+00 -0.74505805969E-08  0.93827000000E+00  0.93827000000E+00 0. -1.
     999902    2    1    2    0    0  0.61092987695E-02  0.19214303113E-01 -0.11356640502E-01  0.10207894240E+01  0.10205271000E+01 0.  0.
     999903    2    3    3    0    0  0.89619565396E-01 -0.41985034113E-01 -0.84625616100E-01  0.13169569084E+00  0.19693920218E-01 0.  0.
         14    1    1    2    0    0 -0.61092987695E-02 -0.19214303113E-01  0.11356640502E-01  0.23140576032E-01  0.00000000000E+00 0. -1.
     999901    1    3    3    0    0 -0.83510266626E-01  0.61199337226E-01  0.73268975598E-01  0.88909373313E+00  0.88000000000E+00 0.  1.
        -11    1    4    4    0    0  0.22005799104E-01 -0.16173609185E-02 -0.16305714957E-01  0.27441000561E-01  0.51100000000E-03 0.  1.
         11    1    4    4    0    0  0.67613766292E-01 -0.40367673194E-01 -0.68319901143E-01  0.10425469028E+00  0.51100000000E-03 0. -1.
</event>
<event>
 8    1  0.1101883E+005  0.1043930E+01  0.7957747E-01            NaN
         13   -1    0    0    0    0  0.00000000000E+00  0.00000000000E+00  0.74505805969E-08  0.10566000000E+00  0.10566000000E+00 0.  1.
     999900   -1    0    0    0    0 -0.00000000000E+00 -0.00000000000E+00 -0.74505805969E-08  0.93827000000E+00  0.93827000000E+00 0.  1.
     999902    2    1    2    0    0  0.10329279805E-01  0.17275329518E-01 -0.12880257589E-01  0.10200337227E+01  0.10197537759E+01 0.  0.
     999903    2    3    3    0    0  0.75546186474E-01 -0.10058556718E+00  0.20570285006E-01  0.12915585531E+00  0.20818638757E-01 0.  0.
         14    1    1    2    0    0 -0.10329279805E-01 -0.17275329518E-01  0.12880257589E-01  0.23896277258E-01  0.00000000000E+00 0.  1.
     999901    1    3    3    0    0 -0.65216906668E-01  0.11786089670E+00 -0.33450542595E-01  0.89087786743E+00  0.88000000000E+00 0.  1.
        -11    1    4    4    0    0  0.57221487413E-01 -0.67024554981E-01  0.63573505178E-02  0.88358738214E-01  0.51100000000E-03 0.  1.
         11    1    4    4    0    0  0.18324699060E-01 -0.33561012197E-01  0.14212934488E-01  0.40797117093E-01  0.51100000000E-03 0. -1.
</event>
<event>
 8    1  0.1101883E+005  0.1043930E+01  0.7957747E-01            NaN
         13   -1    0    0    0    0  0.00000000000E+00  0.00000000000E+00  0.74505805969E-08  0.10566000000E+00  0.10566000000E+00 0.  1.
     999900   -1    0    0    0    0 -0.00000000000E+00 -0.00000000000E+00 -0.74505805969E-08  0.93827000000E+00  0.93827000000E+00 0. -1.
     999902    2    1    2    0    0  0.46022357462E-02 -0.20102026267E-01  0.10832063041E-01  0.10206361033E+01  0.10203702513E+01 0.  0.
     999903    2    3    3    0    0 -0.87756580365E-01  0.88033071897E-01  0.27149496340E-01  0.12907028464E+00  0.21702628421E-01 0.  0.
         14    1    1    2    0    0 -0.46022357462E-02  0.20102026267E-01 -0.10832063041E-01  0.23293896703E-01  0.00000000000E+00 0. -1.
     999901    1    3    3    0    0  0.92358816112E-01 -0.10813509816E+00 -0.16317433299E-01  0.89156581866E+00  0.88000000000E+00 0.  1.
        -11    1    4    4    0    0 -0.33740623938E-01  0.39567874583E-01  0.12621907473E-02  0.52018272263E-01  0.51100000000E-03 0.  1.
         11    1    4    4    0    0 -0.54015956427E-01  0.48465197315E-01  0.25887305593E-01  0.77052012377E-01  0.51100000000E-03 0. -1.
</event>
<event>
 8    1  0.1101883E+005  0.1043930E+01  0.7957747E-01            NaN
         13   -1    0    0    0    0  0.00000000000E+00  0.00000000000E+00  0.74505805969E-08  0.10566000000E+00  0.10566000000E+00 0. -1.
     999900   -1    0    0    0    0 -0.00000000000E+00 -0.00000000000E+00 -0.74505805969E-08  0.93827000000E+00  0.93827000000E+00 0.  1.
     999902    2    1    2    0    0  0.14974390587E-02 -0.23315671835E-01 -0.41650776026E-02  0.10201979384E+01  0.10199218709E+01 0.  0.
     999903    2    3    3    0    0  0.84195613625E-01  0.21459882513E-01 -0.94246699641E-01  0.13061458818E+00  0.25065959796E-01 0.  0.
         14    1    1    2    0    0 -0.14974390587E-02  0.23315671835E-01  0.41650776026E-02  0.23732061611E-01  0.00000000000E+00 0.  1.
     999901    1    3    3    0    0 -0.82698174566E-01 -0.44775554348E-01  0.90081622038E-01  0.88958335021E+00  0.88000000000E+00 0.  1.
        -11    1    4    4    0    0  0.16731109203E-01  0.14417863642E-01 -0.17471986608E-01  0.28166225239E-01  0.51100000000E-03 0. -1.
         11    1    4    4    0    0  0.67464504422E-01  0.70420188713E-02 -0.76774713033E-01  0.10244836294E+00  0.51100000000E-03 0.  1.
</event>
<event>
 8    1  0.1101883E+005  0.1043930E+01  0.7957747E-01            NaN
         13   -1    0    0    0    0  0.00000000000E+00  0.00000000000E+00  0.74505805969E-08  0.10566000000E+00  0.10566000000E+00 0.  1.
     999900   -1    0    0    0    0 -0.00000000000E+00 -0.00000000000E+00 -0.74505805969E-08  0.93827000000E+00  0.93827000000E+00 0. -1.
     999902    2    1    2    0    0  0.15045197660E-02 -0.18481341832E-01 -0.14017780955E-01  0.10206851778E+01  0.10204204577E+01 0.  0.
     999903    2    3    3    0    0  0.36823967931E-01  0.98666547426E-01 -0.73155806314E-01  0.13025359851E+00  0.22872160631E-01 0.  0.
         14    1    1    2    0    0 -0.15045197660E-02  0.18481341832E-01  0.14017780955E-01  0.23244822188E-01  0.00000000000E+00 0.  1.
     999901    1    3    3    0    0 -0.35319448165E-01 -0.11714788926E+00  0.59138025359E-01  0.89043157930E+00  0.88000000000E+00 0.  1.
        -11    1    4    4    0    0  0.13867570687E-02  0.30952933220E-01 -0.16426991480E-01  0.35072985903E-01  0.51100000000E-03 0.  1.
         11    1    4    4    0    0  0.35437210862E-01  0.67713614206E-01 -0.56728814834E-01  0.95180612606E-01  0.51100000000E-03 0. -1.
</event>
<event>
 8    1  0.1101883E+005  0.1043930E+01  0.7957747E-01            NaN
         13   -1    0    0    0    0  0.00000000000E+00  0.00000000000E+00  0.74505805969E-08  0.10566000000E+00  0.10566000000E+00 0. -1.
     999900   -1    0    0    0    0 -0.00000000000E+00 -0.00000000000E+00 -0.74505805969E-08  0.93827000000E+00  0.93827000000E+00 0.  1.
     999902    2    1    2    0    0  0.72076707959E-02 -0.11980696421E-01 -0.10770866262E-01  0.10262806611E+01  0.10261288886E+01 0.  0.
     999903    2    3    3    0    0 -0.51799791777E-01 -0.10572048092E+00  0.60684845050E-01  0.13646329411E+00  0.32856380021E-01 0.  0.
         14    1    1    2    0    0 -0.72076707959E-02  0.11980696421E-01  0.10770866262E-01  0.17649338942E-01  0.00000000000E+00 0.  1.
     999901    1    3    3    0    0  0.59007462573E-01  0.93739784496E-01 -0.71455711313E-01  0.88981736694E+00  0.88000000000E+00 0. -1.
        -11    1    4    4    0    0 -0.36958884332E-01 -0.54707979514E-01  0.48583068452E-01  0.81972543054E-01  0.51100000000E-03 0. -1.
         11    1    4    4    0    0 -0.14840907445E-01 -0.51012501403E-01  0.12101776598E-01  0.54490751060E-01  0.51100000000E-03 0.  1.
</event>
<event>
 8    1  0.1101883E+005  0.1043930E+01  0.7957747E-01            NaN
         13   -1    0    0    0    0  0.00000000000E+00  0.00000000000E+00  0.74505805969E-08  0.10566000000E+00  0.10566000000E+00 0.  1.
     999900   -1    0    0    0    0 -0.00000000000E+00 -0.00000000000E+00 -0.74505805969E-08  0.93827000000E+00  0.93827000000E+00 0.  1.
     999902    2    1    2    0    0 -0.22974277065E-01 -0.61340581179E-02 -0.30542469379E-02  0.10199555866E+01  0.10196737841E+01 0.  0.
     999903    2    3    3    0    0 -0.13164816123E+00  0.29222219376E-02 -0.54230765266E-03  0.13322093676E+00  0.20192725366E-01 0.  0.
         14    1    1    2    0    0  0.22974277065E-01  0.61340581179E-02  0.30542469379E-02  0.23974413445E-01  0.00000000000E+00 0. -1.
     999901    1    3    3    0    0  0.10867388416E+00 -0.90562800555E-02 -0.25119392852E-02  0.88673464979E+00  0.88000000000E+00 0.  1.
        -11    1    4    4    0    0 -0.53571672268E-01  0.85864474293E-02 -0.68273535403E-02  0.54685693069E-01  0.51100000000E-03 0. -1.
         11    1    4    4    0    0 -0.78076488961E-01 -0.56642254917E-02  0.62850458876E-02  0.78535243691E-01  0.51100000000E-03 0.  1.
</event>
<event>
 8    1  0.1101883E+005  0.1043930E+01  0.7957747E-01            NaN
         13   -1    0    0    0    0  0.00000000000E+00  0.00000000000E+00  0.74505805969E-08  0.10566000000E+00  0.10566000000E+00 0.  1.
     999900   -1    0    0    0    0 -0.00000000000E+00 -0.00000000000E+00 -0.74505805969E-08  0.93827000000E+00  0.93827000000E+00 0.  1.
     999902    2    1    2    0    0  0.12556127001E-01 -0.98473784219E-02  0.16262881541E-01  0.10211460472E+01  0.10208918362E+01 0.  0.
     999903    2    3    3    0    0  0.33733527354E-01  0.12450285584E+00 -0.84583456376E-03  0.13053323805E+00  0.19982462794E-01 0.  0.
         14    1    1    2    0    0 -0.12556127001E-01  0.98473784219E-02 -0.16262881541E-01  0.22783952753E-01  0.00000000000E+00 0. -1.
     999901    1    3    3    0    0 -0.21177400353E-01 -0.13435023427E+00  0.17108716105E-01  0.89061280919E+00  0.88000000000E+00 0. -1.
        -11    1    4    4    0    0  0.52725890231E-02  0.17993535185E-01 -0.72269427200E-02  0.20101177218E-01  0.51100000000E-03 0.  1.
         11    1    4    4    0    0  0.28460938331E-01  0.10650932066E+00  0.63811081562E-02  0.11043206084E+00  0.51100000000E-03 0. -1.
</event>
<event>
 8    1  0.1101883E+005  0.1043930E+01  0.7957747E-01            NaN
         13   -1    0    0    0    0  0.00000000000E+00  0.00000000000E+00  0.74505805969E-08  0.10566000000E+00  0.10566000000E+00 0. -1.
     999900   -1    0    0    0    0 -0.00000000000E+00 -0.00000000000E+00 -0.74505805969E-08  0.93827000000E+00  0.93827000000E+00 0.  1.
     999902    2    1    2    0    0  0.45725752543E-02 -0.62952159583E-02 -0.22173520153E-01  0.10204309961E+01  0.10201603867E+01 0.  0.
     999903    2    3    3    0    0  0.25594480401E-01 -0.11719833679E+00  0.47370473946E-01  0.13049965615E+00  0.19891477576E-01 0.  0.
         14    1    1    2    0    0 -0.45725752543E-02  0.62952159583E-02  0.22173520153E-01  0.23499003902E-01  0.00000000000E+00 0. -1.
     999901    1    3    3    0    0 -0.21021905147E-01  0.11090312083E+00 -0.69543994099E-01  0.88993133995E+00  0.88000000000E+00 0.  1.
        -11    1    4    4    0    0 -0.24088251456E-02 -0.20599544650E-01  0.48617721248E-02  0.21308252569E-01  0.51100000000E-03 0. -1.
         11    1    4    4    0    0  0.28003305547E-01 -0.96598792140E-01  0.42508701821E-01  0.10919140358E+00  0.51100000000E-03 0.  1.
</event>
<event>
 8    1  0.1101883E+005  0.1043930E+01  0.7957747E-01            NaN
         13   -1    0    0    0    0  0.00000000000E+00  0.00000000000E+00  0.74505805969E-08  0.10566000000E+00  0.10566000000E+00 0. -1.
     999900   -1    0    0    0    0 -0.00000000000E+00 -0.00000000000E+00 -0.74505805969E-08  0.93827000000E+00  0.93827000000E+00 0.  1.
     999902    2    1    2    0    0  0.21400804924E-01  0.11266173792E-01  0.19545571316E-02  0.10196660058E+01  0.10193772716E+01 0.  0.
     999903    2    3    3    0    0  0.38117708693E-01  0.10365229176E+00 -0.69701564949E-01  0.13177566934E+00  0.17600044585E-01 0.  0.
         14    1    1    2    0    0 -0.21400804924E-01 -0.11266173792E-01 -0.19545571316E-02  0.24263994249E-01  0.00000000000E+00 0.  1.
     999901    1    3    3    0    0 -0.16716903768E-01 -0.92386117970E-01  0.71656122081E-01  0.88789033641E+00  0.88000000000E+00 0. -1.
        -11    1    4    4    0    0  0.95649734511E-02  0.36269405795E-01 -0.32721772414E-01  0.49778851180E-01  0.51100000000E-03 0. -1.
         11    1    4    4    0    0  0.28552735242E-01  0.67382885967E-01 -0.36979792535E-01  0.81996818158E-01  0.51100000000E-03 0.  1.
</event>
<event>
 8    1  0.1101883E+005  0.1043930E+01  0.7957747E-01            NaN
         13   -1    0    0    0    0  0.00000000000E+00  0.00000000000E+00  0.74505805969E-08  0.10566000000E+00  0.10566000000E+00 0.  1.
     999900   -1    0    0    0    0 -0.00000000000E+00 -0.00000000000E+00 -0.74505805969E-08  0.93827000000E+00  0.93827000000E+00 0. -1.
     999902    2    1    2    0    0  0.23489609371E-01 -0.20542066623E-02 -0.28032051011E-02  0.10201846958E+01  0.10199083165E+01 0.  0.
     999903    2    3    3    0    0  0.90381453254E-01 -0.43407715629E-01 -0.84891536955E-01  0.13287239129E+00  0.19886237758E-01 0.  0.
         14    1    1    2    0    0 -0.23489609371E-01  0.20542066623E-02  0.28032051011E-02  0.23745304214E-01  0.00000000000E+00 0. -1.
     999901    1    3    3    0    0 -0.66891843884E-01  0.41353508967E-01  0.82088331854E-01  0.88731230450E+00  0.88000000000E+00 0.  1.
        -11    1    4    4    0    0  0.12670550883E-01 -0.14475579312E-01 -0.17640898555E-01  0.26106468143E-01  0.51100000000E-03 0.  1.
         11    1    4    4    0    0  0.77710902371E-01 -0.28932136317E-01 -0.67250638400E-01  0.10676592315E+00  0.51100000000E-03 0. -1.
</event>
<event>
 8    1  0.1101883E+005  0.1043930E+01  0.7957747E-01            NaN
         13   -1    0    0    0    0  0.00000000000E+00  0.00000000000E+00  0.74505805969E-08  0.10566000000E+00  0.10566000000E+00 0. -1.
     999900   -1    0    0    0    0 -0.00000000000E+00 -0.00000000000E+00 -0.74505805969E-08  0.93827000000E+00  0.93827000000E+00 0. -1.
     999902    2    1    2    0    0  0.16358179881E-01 -0.25047097604E-02  0.15578918242E-01  0.10212019048E+01  0.10209489527E+01 0.  0.
     999903    2    3    3    0    0  0.65440660563E-01 -0.47890197419E-01 -0.10102329866E+00  0.13099686692E+00  0.19455621461E-01 0.  0.
         14    1    1    2    0    0 -0.16358179881E-01  0.25047097604E-02 -0.15578918242E-01  0.22728095248E-01  0.00000000000E+00 0.  1.
     999901    1    3    3    0    0 -0.49082480682E-01  0.45385487659E-01  0.11660221690E+00  0.89020503783E+00  0.88000000000E+00 0.  1.
        -11    1    4    4    0    0  0.31927935578E-01 -0.21267818261E-01 -0.32891713095E-01  0.50535522904E-01  0.51100000000E-03 0.  1.
         11    1    4    4    0    0  0.33512724984E-01 -0.26622379159E-01 -0.68131585564E-01  0.80461344013E-01  0.51100000000E-03 0. -1.
</event>
<event>
 8    1  0.1101883E+005  0.1043930E+01  0.7957747E-01            NaN
         13   -1    0    0    0    0  0.00000000000E+00  0.00000000000E+00  0.74505805969E-08  0.10566000000E+00  0.10566000000E+00 0.  1.
     999900   -1    0    0    0    0 -0.00000000000E+00 -0.00000000000E+00 -0.74505805969E-08  0.93827000000E+00  0.93827000000E+00 0. -1.
     999902    2    1    2    0    0 -0.33701280541E-02 -0.14271386685E-02  0.21891280891E-01  0.10217348954E+01  0.10214937953E+01 0.  0.
     999903    2    3    3    0    0 -0.10622492059E+00 -0.69176436527E-01 -0.29729177011E-01  0.13165975962E+00  0.19528318219E-01 0.  0.
         14    1    1    2    0    0  0.33701280541E-02  0.14271386685E-02 -0.21891280891E-01  0.22195104572E-01  0.00000000000E+00 0. -1.
     999901    1    3    3    0    0  0.10285479254E+00  0.67749297858E-01  0.51620457903E-01  0.89007513581E+00  0.88000000000E+00 0.  1.
        -11    1    4    4    0    0 -0.38706395203E-01 -0.14377061557E-01 -0.89628121666E-02  0.42254917483E-01  0.51100000000E-03 0.  1.
         11    1    4    4    0    0 -0.67518525389E-01 -0.54799374970E-01 -0.20766364845E-01  0.89404842138E-01  0.51100000000E-03 0. -1.
</event>
<event>
 8    1  0.1101883E+005  0.1043930E+01  0.7957747E-01            NaN
         13   -1    0    0    0    0  0.00000000000E+00  0.00000000000E+00  0.74505805969E-08  0.10566000000E+00  0.10566000000E+00 0.  1.
     999900   -1    0    0    0    0 -0.00000000000E+00 -0.00000000000E+00 -0.74505805969E-08  0.93827000000E+00  0.93827000000E+00 0. -1.
     999902    2    1    2    0    0 -0.20626817333E-01 -0.20024783898E-02 -0.14206969641E-01  0.10188040473E+01  0.10184941695E+01 0.  0.
     999903    2    3    3    0    0  0.11855339758E+00 -0.98055420393E-02 -0.40808212573E-01  0.12743451329E+00  0.20571539348E-01 0.  0.
         14    1    1    2    0    0  0.20626817333E-01  0.20024783898E-02  0.14206969641E-01  0.25125952706E-01  0.00000000000E+00 0.  1.
     999901    1    3    3    0    0 -0.13918021491E+00  0.78030636495E-02  0.26601242932E-01  0.89136953400E+00  0.88000000000E+00 0.  1.
        -11    1    4    4    0    0  0.32992019057E-01 -0.83690428752E-03 -0.20351274704E-02  0.33069269648E-01  0.51100000000E-03 0.  1.
         11    1    4    4    0    0  0.85561378525E-01 -0.89686377518E-02 -0.38773085103E-01  0.94365243642E-01  0.51100000000E-03 0. -1.
</event>
<event>
 8    1  0.1101883E+005  0.1043930E+01  0.7957747E-01            NaN
         13   -1    0    0    0    0  0.00000000000E+00  0.00000000000E+00  0.74505805969E-08  0.10566000000E+00  0.10566000000E+00 0. -1.
     999900   -1    0    0    0    0 -0.00000000000E+00 -0.00000000000E+00 -0.74505805969E-08  0.93827000000E+00  0.93827000000E+00 0. -1.
     999902    2    1    2    0    0  0.19188824339E-02 -0.28822543370E-02 -0.23343286385E-01  0.10203313026E+01  0.10200583653E+01 0.  0.
     999903    2    3    3    0    0 -0.11818768435E+00  0.14830345179E-01 -0.52048930470E-01  0.13153248533E+00  0.20085707955E-01 0.  0.
         14    1    1    2    0    0 -0.19188824339E-02  0.28822543370E-02  0.23343286385E-01  0.23598697403E-01  0.00000000000E+00 0. -1.
     999901    1    3    3    0    0  0.12010656679E+00 -0.17712599516E-01  0.28705644084E-01  0.88879881726E+00  0.88000000000E+00 0. -1.
        -11    1    4    4    0    0 -0.32824737051E-01  0.10536545921E-02 -0.54122326303E-02  0.33288540573E-01  0.51100000000E-03 0.  1.
         11    1    4    4    0    0 -0.85362947302E-01  0.13776690587E-01 -0.46636697839E-01  0.98243944760E-01  0.51100000000E-03 0. -1.
</event>
<event>
 8    1  0.1101883E+005  0.1043930E+01  0.7957747E-01            NaN
         13   -1    0    0    0    0  0.00000000000E+00  0.00000000000E+00  0.74505805969E-08  0.10566000000E+00  0.10566000000E+00 0. -1.
     999900   -1    0    0    0    0 -0.00000000000E+00 -0.00000000000E+00 -0.74505805969E-08  0.93827000000E+00  0.93827000000E+00 0. -1.
     999902    2    1    2    0    0  0.51758572461E-02 -0.23241320562E-01 -0.19879510407E-01  0.10129115633E+01  0.10124365124E+01 0.  0.
     999903    2    3    3    0    0 -0.10040021459E+00  0.25449053186E-01 -0.65792514995E-01  0.12407802242E+00  0.18407694613E-01 0.  0.
         14    1    1    2    0    0 -0.51758572461E-02  0.23241320562E-01  0.19879510407E-01  0.31018436674E-01  0.00000000000E+00 0.  1.
     999901    1    3    3    0    0  0.10557607184E+00 -0.48690373748E-01  0.45913004588E-01  0.88883354090E+00  0.88000000000E+00 0. -1.
        -11    1    4    4    0    0 -0.83056004592E-01  0.27872338629E-01 -0.53127273445E-01  0.10245943326E+00  0.51100000000E-03 0. -1.
         11    1    4    4    0    0 -0.17344210002E-01 -0.24232854429E-02 -0.12665241550E-01  0.21618589164E-01  0.51100000000E-03 0.  1.
</event>
<event>
 8    1  0.1101883E+005  0.1043930E+01  0.7957747E-01            NaN
         13   -1    0    0    0    0  0.00000000000E+00  0.00000000000E+00  0.74505805969E-08  0.10566000000E+00  0.10566000000E+00 0. -1.
     999900   -1    0    0    0    0 -0.00000000000E+00 -0.00000000000E+00 -0.74505805969E-08  0.93827000000E+00  0.93827000000E+00 0.  1.
     999902    2    1    2    0    0  0.20875281591E-01  0.82948346365E-02 -0.98101827377E-02  0.10194183426E+01  0.10191236117E+01 0.  0.
     999903    2    3    3    0    0  0.41099002717E-01  0.37599275559E-01  0.11571205324E+00  0.12979843450E+00  0.18855258862E-01 0.  0.
         14    1    1    2    0    0 -0.20875281591E-01 -0.82948346365E-02  0.98101827377E-02  0.24511657400E-01  0.00000000000E+00 0. -1.
     999901    1    3    3    0    0 -0.20223721126E-01 -0.29304440923E-01 -0.12552223598E+00  0.88961990810E+00  0.88000000000E+00 0.  1.
        -11    1    4    4    0    0  0.15230532809E-03  0.83860574331E-02  0.14017493375E-01  0.16343206469E-01  0.51100000000E-03 0.  1.
         11    1    4    4    0    0  0.40946697389E-01  0.29213218126E-01  0.10169455987E+00  0.11345522804E+00  0.51100000000E-03 0. -1.
</event>
<event>
 8    1  0.1101883E+005  0.1043930E+01  0.7957747E-01            NaN
         13   -1    0    0    0    0  0.00000000000E+00  0.00000000000E+00  0.74505805969E-08  0.10566000000E+00  0.10566000000E+00 0.  1.
     999900   -1    0    0    0    0 -0.00000000000E+00 -0.00000000000E+00 -0.74505805969E-08  0.93827000000E+00  0.93827000000E+00 0. -1.
     999902    2    1    2    0    0  0.10568580267E-01 -0.42892784399E-02  0.21151265197E-01  0.10198994191E+01  0.10196162789E+01 0.  0.
     999903    2    3    3    0    0 -0.30521473713E-01  0.66482354387E-01  0.10787541775E+00  0.13185769983E+00  0.19947015986E-01 0.  0.
         14    1    1    2    0    0 -0.10568580267E-01  0.42892784399E-02 -0.21151265197E-01  0.24030580888E-01  0.00000000000E+00 0. -1.
     999901    1    3    3    0    0  0.41090053980E-01 -0.70771632827E-01 -0.86724152556E-01  0.88804171928E+00  0.88000000000E+00 0.  1.
        -11    1    4    4    0    0 -0.22420021463E-01  0.63058578099E-01  0.93206601721E-01  0.11474656143E+00  0.51100000000E-03 0.  1.
         11    1    4    4    0    0 -0.81014522500E-02  0.34237762877E-02  0.14668816032E-01  0.17111138402E-01  0.51100000000E-03 0. -1.
</event>
<event>
 8    1  0.1101883E+005  0.1043930E+01  0.7957747E-01            NaN
         13   -1    0    0    0    0  0.00000000000E+00  0.00000000000E+00  0.74505805969E-08  0.10566000000E+00  0.10566000000E+00 0. -1.
     999900   -1    0    0    0    0 -0.00000000000E+00 -0.00000000000E+00 -0.74505805969E-08  0.93827000000E+00  0.93827000000E+00 0. -1.
     999902    2    1    2    0    0  0.13390844578E-01 -0.25004237058E-02  0.18758826856E-01  0.10207468073E+01  0.10204835051E+01 0.  0.
     999903    2    3    3    0    0 -0.32610594621E-01  0.12453252153E+00  0.64321743394E-02  0.13035057646E+00  0.19444796696E-01 0.  0.
         14    1    1    2    0    0 -0.13390844578E-01  0.25004237058E-02 -0.18758826856E-01  0.23183192667E-01  0.00000000000E+00 0.  1.
     999901    1    3    3    0    0  0.46001439199E-01 -0.12703294523E+00  0.12326652517E-01  0.89039623087E+00  0.88000000000E+00 0.  1.
        -11    1    4    4    0    0 -0.66638671280E-02  0.61747808909E-01 -0.15537197597E-04  0.62108456692E-01  0.51100000000E-03 0.  1.
         11    1    4    4    0    0 -0.25946727493E-01  0.62784712617E-01  0.64477115370E-02  0.68242119773E-01  0.51100000000E-03 0. -1.
</event>
<event>
 8    1  0.1101883E+005  0.1043930E+01  0.7957747E-01            NaN
         13   -1    0    0    0    0  0.00000000000E+00  0.00000000000E+00  0.74505805969E-08  0.10566000000E+00  0.10566000000E+00 0. -1.
     999900   -1    0    0    0    0 -0.00000000000E+00 -0.00000000000E+00 -0.74505805969E-08  0.93827000000E+00  0.93827000000E+00 0.  1.
     999902    2    1    2    0    0 -0.43441394184E-02 -0.55925722326E-02  0.29691543379E-01  0.10134056464E+01  0.10129458367E+01 0.  0.
     999903    2    3    3    0    0 -0.10996966486E+00 -0.31911405473E-01 -0.42450451966E-01  0.12376869797E+00  0.20124232580E-01 0.  0.
         14    1    1    2    0    0  0.43441394184E-02  0.55925722326E-02 -0.29691543379E-01  0.30524353551E-01  0.00000000000E+00 0.  1.
     999901    1    3    3    0    0  0.10562552544E+00  0.26318833241E-01  0.72141995345E-01  0.88963694848E+00  0.88000000000E+00 0. -1.
        -11    1    4    4    0    0 -0.81718190629E-01 -0.25774861352E-01 -0.22353944204E-01  0.88556005442E-01  0.51100000000E-03 0. -1.
         11    1    4    4    0    0 -0.28251474228E-01 -0.61365441216E-02 -0.20096507762E-01  0.35212692528E-01  0.51100000000E-03 0.  1.
</event>
<event>
 8    1  0.1101883E+005  0.1043930E+01  0.7957747E-01            NaN
         13   -1    0    0    0    0  0.00000000000E+00  0.00000000000E+00  0.74505805969E-08  0.10566000000E+00  0.10566000000E+00 0.  1.
     999900   -1    0    0    0    0 -0.00000000000E+00 -0.00000000000E+00 -0.74505805969E-08  0.93827000000E+00  0.93827000000E+00 0.  1.
     999902    2    1    2    0    0 -0.13839612045E-01 -0.12871152938E-01 -0.17869677539E-01  0.10179198709E+01  0.10175875082E+01 0.  0.
     999903    2    3    3    0    0 -0.15607576432E-01  0.20710512042E-01  0.12217433501E+00  0.12621185852E+00  0.18175349943E-01 0.  0.
         14    1    1    2    0    0  0.13839612045E-01  0.12871152938E-01  0.17869677539E-01  0.26010129082E-01  0.00000000000E+00 0.  1.
     999901    1    3    3    0    0  0.17679643864E-02 -0.33581664980E-01 -0.14004401255E+00  0.89170801240E+00  0.88000000000E+00 0.  1.
        -11    1    4    4    0    0 -0.12918203264E-01  0.25688643350E-02  0.45318847793E-01  0.47196802072E-01  0.51100000000E-03 0. -1.
         11    1    4    4    0    0 -0.26893731676E-02  0.18141647707E-01  0.76855487216E-01  0.79015056450E-01  0.51100000000E-03 0.  1.
</event>
<event>
 8    1  0.1101883E+005  0.1043930E+01  0.7957747E-01            NaN
         13   -1    0    0    0    0  0.00000000000E+00  0.00000000000E+00  0.74505805969E-08  0.10566000000E+00  0.10566000000E+00 0. -1.
     999900   -1    0    0    0    0 -0.00000000000E+00 -0.00000000000E+00 -0.74505805969E-08  0.93827000000E+00  0.93827000000E+00 0. -1.
     999902    2    1    2    0    0 -0.23482057495E-01 -0.46282158783E-02  0.72645794740E-02  0.10189179725E+01  0.10186109331E+01 0.  0.
     999903    2    3    3    0    0  0.74692703741E-01 -0.99850913471E-01  0.22332827056E-01  0.12822571474E+00  0.19846255168E-01 0.  0.
         14    1    1    2    0    0  0.23482057495E-01  0.46282158783E-02 -0.72645794740E-02  0.25012027534E-01  0.00000000000E+00 0. -1.
     999901    1    3    3    0    0 -0.98174761236E-01  0.95222697592E-01 -0.15068247582E-01  0.89069225772E+00  0.88000000000E+00 0. -1.
        -11    1    4    4    0    0  0.48999564900E-01 -0.61930925470E-01  0.23527482486E-01  0.82402672549E-01  0.51100000000E-03 0.  1.
         11    1    4    4    0    0  0.25693138841E-01 -0.37919988000E-01 -0.11946554298E-02  0.45823042195E-01  0.51100000000E-03 0. -1.
</event>
<event>
 8    1  0.1101883E+005  0.1043930E+01  0.7957747E-01            NaN
         13   -1    0    0    0    0  0.00000000000E+00  0.00000000000E+00  0.74505805969E-08  0.10566000000E+00  0.10566000000E+00 0. -1.
     999900   -1    0    0    0    0 -0.00000000000E+00 -0.00000000000E+00 -0.74505805969E-08  0.93827000000E+00  0.93827000000E+00 0.  1.
     999902    2    1    2    0    0  0.50770845422E-02  0.23967057472E-01 -0.56396938016E-02  0.10187903346E+01  0.10184801142E+01 0.  0.
     999903    2    3    3    0    0 -0.54350782627E-01  0.94730520784E-01  0.69230901656E-01  0.13078991498E+00  0.19626639484E-01 0.  0.
         14    1    1    2    0    0 -0.50770845422E-02 -0.23967057472E-01  0.56396938016E-02  0.25139665421E-01  0.00000000000E+00 0. -1.
     999901    1    3    3    0    0  0.59427867169E-01 -0.70763463312E-01 -0.74870595458E-01  0.88800041959E+00  0.88000000000E+00 0. -1.
        -11    1    4    4    0    0 -0.33894502316E-01  0.52700558187E-01  0.28708781774E-01  0.68924896753E-01  0.51100000000E-03 0.  1.
         11    1    4    4    0    0 -0.20456280310E-01  0.42029962597E-01  0.40522119882E-01  0.61865018231E-01  0.51100000000E-03 0. -1.
</event>
<event>
 8    1  0.1101883E+005  0.1043930E+01  0.7957747E-01            NaN
         13   -1    0    0    0    0  0.00000000000E+00  0.00000000000E+00  0.74505805969E-08  0.10566000000E+00  0.10566000000E+00 0. -1.
     999900   -1    0    0    0    0 -0.00000000000E+00 -0.00000000000E+00 -0.74505805969E-08  0.93827000000E+00  0.93827000000E+00 0.  1.
     999902    2    1    2    0    0  0.93896418844E-02 -0.51739213400E-02  0.19865792477E-01  0.10213560206E+01  0.10211065254E+01 0.  0.
     999903    2    3    3    0    0 -0.57140133465E-01 -0.11644547946E+00  0.11415071113E-01  0.13181738434E+00  0.20517661293E-01 0.  0.
         14    1    1    2    0    0 -0.93896418844E-02  0.51739213400E-02 -0.19865792477E-01  0.22573979434E-01  0.00000000000E+00 0.  1.
     999901    1    3    3    0    0  0.66529775349E-01  0.11127155812E+00  0.84507213639E-02  0.88953863623E+00  0.88000000000E+00 0. -1.
        -11    1    4    4    0    0 -0.24800138431E-01 -0.47490191914E-01  0.14778573318E-01  0.55579065704E-01  0.51100000000E-03 0.  1.
         11    1    4    4    0    0 -0.32339995034E-01 -0.68955287549E-01 -0.33635022046E-02  0.76238318632E-01  0.51100000000E-03 0. -1.
</event>
<event>
 8    1  0.1101883E+005  0.1043930E+01  0.7957747E-01            NaN
         13   -1    0    0    0    0  0.00000000000E+00  0.00000000000E+00  0.74505805969E-08  0.10566000000E+00  0.10566000000E+00 0.  1.
     999900   -1    0    0    0    0 -0.00000000000E+00 -0.00000000000E+00 -0.74505805969E-08  0.93827000000E+00  0.93827000000E+00 0.  1.
     999902    2    1    2    0    0 -0.25358949913E-02 -0.16291692447E-01 -0.18790795741E-01  0.10189311198E+01  0.10186244072E+01 0.  0.
     999903    2    3    3    0    0  0.11401515342E+00 -0.45523489729E-01  0.34980970183E-01  0.12913898247E+00  0.19528573765E-01 0.  0.
         14    1    1    2    0    0  0.25358949913E-02  0.16291692447E-01  0.18790795741E-01  0.24998880191E-01  0.00000000000E+00 0.  1.
     999901    1    3    3    0    0 -0.11655104841E+00  0.29231797282E-01 -0.53771765924E-01  0.88979213734E+00  0.88000000000E+00 0.  1.
        -11    1    4    4    0    0  0.55485926107E-01 -0.27223420209E-01  0.86868646660E-02  0.62414143770E-01  0.51100000000E-03 0. -1.
         11    1    4    4    0    0  0.58529227309E-01 -0.18300069520E-01  0.26294105517E-01  0.66724838702E-01  0.51100000000E-03 0.  1.
</event>
<event>
 8    1  0.1101883E+005  0.1043930E+01  0.7957747E-01            NaN
         13   -1    0    0    0    0  0.00000000000E+00  0.00000000000E+00  0.74505805969E-08  0.10566000000E+00  0.10566000000E+00 0. -1.
     999900   -1    0    0    0    0 -0.00000000000E+00 -0.00000000000E+00 -0.74505805969E-08  0.93827000000E+00  0.93827000000E+00 0.  1.
     999902    2    1    2    0    0 -0.94768038423E-02  0.62369756279E-02 -0.20321175432E-01  0.10206564131E+01  0.10203910298E+01 0.  0.
     999903    2    3    3    0    0 -0.71669863061E-01  0.10884020998E+00 -0.12644719022E-01  0.13248169589E+00  0.20217572722E-01 0.  0.
         14    1    1    2    0    0  0.94768038423E-02 -0.62369756279E-02  0.20321175432E-01  0.23273586895E-01  0.00000000000E+00 0. -1.
     999901    1    3    3    0    0  0.62193059219E-01 -0.10260323435E+00 -0.76764564101E-02  0.88817471721E+00  0.88000000000E+00 0. -1.
        -11    1    4    4    0    0 -0.30757226938E-01  0.40036957600E-01  0.42497562868E-02  0.50668397767E-01  0.51100000000E-03 0.  1.
         11    1    4    4    0    0 -0.40912636123E-01  0.68803252383E-01 -0.16894475309E-01  0.81813298124E-01  0.51100000000E-03 0. -1.
</event>
<event>
 8    1  0.1101883E+005  0.1043930E+01  0.7957747E-01            NaN
         13   -1    0    0    0    0  0.00000000000E+00  0.00000000000E+00  0.74505805969E-08  0.10566000000E+00  0.10566000000E+00 0. -1.
     999900   -1    0    0    0    0 -0.00000000000E+00 -0.00000000000E+00 -0.74505805969E-08  0.93827000000E+00  0.93827000000E+00 0.  1.
     999902    2    1    2    0    0  0.39085346347E-02  0.22981769042E-01 -0.91263938801E-02  0.10188954356E+01  0.10185878358E+01 0.  0.
     999903    2    3    3    0    0 -0.12445149397E+00 -0.20554303063E-01  0.11840814858E-01  0.12827132273E+00  0.20066728962E-01 0.  0.
         14    1    1    2    0    0 -0.39085346347E-02 -0.22981769042E-01  0.91263938801E-02  0.25034564437E-01  0.00000000000E+00 0.  1.
     999901    1    3    3    0    0  0.12836002861E+00  0.43536072105E-01 -0.20967208738E-01  0.89062411283E+00  0.88000000000E+00 0. -1.
        -11    1    4    4    0    0 -0.49865839058E-02  0.28391989984E-02  0.21584368537E-02  0.61519948515E-02  0.51100000000E-03 0. -1.
         11    1    4    4    0    0 -0.11946491007E+00 -0.23393502062E-01  0.96823780039E-02  0.12211932788E+00  0.51100000000E-03 0.  1.
</event>
<event>
 8    1  0.1101883E+005  0.1043930E+01  0.7957747E-01            NaN
         13   -1    0    0    0    0  0.00000000000E+00  0.00000000000E+00  0.74505805969E-08  0.10566000000E+00  0.10566000000E+00 0. -1.
     999900   -1    0    0    0    0 -0.00000000000E+00 -0.00000000000E+00 -0.74505805969E-08  0.93827000000E+00  0.93827000000E+00 0. -1.
     999902    2    1    2    0    0 -0.19021393117E-01  0.11397690303E-01 -0.32931977216E-02  0.10215120186E+01  0.10212659978E+01 0.  0.
     999903    2    3    3    0    0 -0.12504117978E+00  0.89207760999E-03  0.42946039661E-01  0.13388110983E+00  0.21064111790E-01 0.  0.
         14    1    1    2    0    0  0.19021393117E-01 -0.11397690303E-01  0.32931977216E-02  0.22417981435E-01  0.00000000000E+00 0. -1.
     999901    1    3    3    0    0  0.10601978666E+00  0.10505612693E-01 -0.46239237382E-01  0.88763090873E+00  0.88000000000E+00 0. -1.
        -11    1    4    4    0    0 -0.28451592740E-01  0.78314039003E-02  0.53272033776E-02  0.29991069226E-01  0.51100000000E-03 0.  1.
         11    1    4    4    0    0 -0.96589587037E-01 -0.69393262903E-02  0.37618836283E-01  0.10389004061E+00  0.51100000000E-03 0. -1.
</event>
<event>
 8    1  0.1101883E+005  0.1043930E+01  0.7957747E-01            NaN
         13   -1    0    0    0    0  0.00000000000E+00  0.00000000000E+00  0.74505805969E-08  0.10566000000E+00  0.10566000000E+00 0.  1.
     999900   -1    0    0    0    0 -0.00000000000E+00 -0.00000000000E+00 -0.74505805969E-08  0.93827000000E+00  0.93827000000E+00 0.  1.
     999902    2    1    2    0    0  0.16917594116E-01  0.81465676573E-02 -0.13401400423E-01  0.10208612096E+01  0.10206005292E+01 0.  0.
     999903    2    3    3    0    0 -0.77762324937E-01  0.94981588685E-01 -0.41452818303E-01  0.13109073924E+00  0.19949045124E-01 0.  0.
         14    1    1    2    0    0 -0.16917594116E-01 -0.81465676573E-02  0.13401400423E-01  0.23068790358E-01  0.00000000000E+00 0.  1.
     999901    1    3    3    0    0  0.94679919053E-01 -0.86835021028E-01  0.28051417880E-01  0.88977047040E+00  0.88000000000E+00 0.  1.
        -11    1    4    4    0    0 -0.37558394377E-01  0.30733925934E-01 -0.14577050627E-01  0.50675030513E-01  0.51100000000E-03 0.  1.
         11    1    4    4    0    0 -0.40203930560E-01  0.64247662752E-01 -0.26875767676E-01  0.80415708731E-01  0.51100000000E-03 0. -1.
</event>
<event>
 8    1  0.1101883E+005  0.1043930E+01  0.7957747E-01            NaN
         13   -1    0    0    0    0  0.00000000000E+00  0.00000000000E+00  0.74505805969E-08  0.10566000000E+00  0.10566000000E+00 0.  1.
     999900   -1    0    0    0    0 -0.00000000000E+00 -0.00000000000E+00 -0.74505805969E-08  0.93827000000E+00  0.93827000000E+00 0.  1.
     999902    2    1    2    0    0  0.18154370993E-01  0.73877667287E-02  0.11471651723E-01  0.10212196703E+01  0.10209671179E+01 0.  0.
     999903    2    3    3    0    0 -0.14285542287E-01  0.19433532625E-01 -0.12602752958E+00  0.12987042709E+00  0.20041225318E-01 0.  0.
         14    1    1    2    0    0 -0.18154370993E-01 -0.73877667287E-02 -0.11471651723E-01  0.22710329735E-01  0.00000000000E+00 0. -1.
     999901    1    3    3    0    0  0.32439913280E-01 -0.12045765897E-01  0.13749918130E+00  0.89134924317E+00  0.88000000000E+00 0. -1.
        -11    1    4    4    0    0 -0.17579928971E-01  0.89978649907E-02 -0.67723010108E-01  0.70545607206E-01  0.51100000000E-03 0.  1.
         11    1    4    4    0    0  0.32943866838E-02  0.10435667635E-01 -0.58304519471E-01  0.59324819884E-01  0.51100000000E-03 0. -1.
</event>
<event>
 8    1  0.1101883E+005  0.1043930E+01  0.7957747E-01            NaN
         13   -1    0    0    0    0  0.00000000000E+00  0.00000000000E+00  0.74505805969E-08  0.10566000000E+00  0.10566000000E+00 0. -1.
     999900   -1    0    0    0    0 -0.00000000000E+00 -0.00000000000E+00 -0.74505805969E-08  0.93827000000E+00  0.93827000000E+00 0. -1.
     999902    2    1    2    0    0  0.57969133267E-02  0.16169009144E-01  0.15522192517E-01  0.10207787685E+01  0.10205162001E+01 0.  0.
     999903    2    3    3    0    0 -0.10214858506E+00  0.80894299699E-01  0.47763923162E-02  0.13175848407E+00  0.18954235587E-01 0.  0.
         14    1    1    2    0    0 -0.57969133267E-02 -0.16169009144E-01 -0.15522192517E-01  0.23151231530E-01  0.00000000000E+00 0.  1.
     999901    1    3    3    0    0  0.10794549839E+00 -0.64725290555E-01  0.10745800201E-01  0.88902028440E+00  0.88000000000E+00 0. -1.
        -11    1    4    4    0    0 -0.96077847768E-01  0.76355219831E-01 -0.11149870711E-03  0.12272467551E+00  0.51100000000E-03 0. -1.
         11    1    4    4    0    0 -0.60707372913E-02  0.45390798680E-02  0.48878910233E-02  0.90338085525E-02  0.51100000000E-03 0.  1.
</event>
<event>
 8    1  0.1101883E+005  0.1043930E+01  0.7957747E-01            NaN
         13   -1    0    0    0    0  0.00000000000E+00  0.00000000000E+00  0.74505805969E-08  0.10566000000E+00  0.10566000000E+00 0.  1.
     999900   -1    0    0    0    0 -0.00000000000E+00 -0.00000000000E+00 -0.74505805969E-08  0.93827000000E+00  0.93827000000E+00 0.  1.
     999902    2    1    2    0    0  0.62811457105E-02  0.92811245664E-02 -0.20832657563E-01  0.10202743097E+01  0.10200000369E+01 0.  0.
     999903    2    3    3    0    0 -0.89514730295E-01  0.90702187334E-01 -0.25336191510E-01  0.13132744896E+00  0.19110272700E-01 0.  0.
         14    1    1    2    0    0 -0.62811457105E-02 -0.92811245664E-02  0.20832657563E-01  0.23655690347E-01  0.00000000000E+00 0.  1.
     999901    1    3    3    0    0  0.95795876005E-01 -0.81421062767E-01  0.45035339475E-02  0.88894686070E+00  0.88000000000E+00 0. -1.
        -11    1    4    4    0    0 -0.55905157033E-01  0.46676468754E-01 -0.20843730729E-01  0.75754878060E-01  0.51100000000E-03 0.  1.
         11    1    4    4    0    0 -0.33609573262E-01  0.44025718580E-01 -0.44924607815E-02  0.55572570898E-01  0.51100000000E-03 0. -1.
</event>
<event>
 8    1  0.1101883E+005  0.1043930E+01  0.7957747E-01            NaN
         13   -1    0    0    0    0  0.00000000000E+00  0.00000000000E+00  0.74505805969E-08  0.10566000000E+00  0.10566000000E+00 0. -1.
     999900   -1    0    0    0    0 -0.00000000000E+00 -0.00000000000E+00 -0.74505805969E-08  0.93827000000E+00  0.93827000000E+00 0.  1.
     999902    2    1    2    0    0 -0.13567265192E-01 -0.10455634623E-01  0.15694517508E-01  0.10206983651E+01  0.10204339487E+01 0.  0.
     999903    2    3    3    0    0  0.84524756273E-01 -0.97327805451E-01 -0.78277928526E-02  0.13068593945E+00  0.20010104721E-01 0.  0.
         14    1    1    2    0    0  0.13567265192E-01  0.10455634623E-01 -0.15694517508E-01  0.23231634897E-01  0.00000000000E+00 0.  1.
     999901    1    3    3    0    0 -0.98092021465E-01  0.86872170829E-01  0.23522310361E-01  0.89001242566E+00  0.88000000000E+00 0.  1.
        -11    1    4    4    0    0  0.63817674609E-01 -0.75727314089E-01 -0.14318963832E-01  0.10006305781E+00  0.51100000000E-03 0.  1.
         11    1    4    4    0    0  0.20707081665E-01 -0.21600491362E-01  0.64911709794E-02  0.30622881638E-01  0.51100000000E-03 0. -1.
</event>
<event>
 8    1  0.1101883E+005  0.1043930E+01  0.7957747E-01            NaN
         13   -1    0    0    0    0  0.00000000000E+00  0.00000000000E+00  0.74505805969E-08  0.10566000000E+00  0.10566000000E+00 0.  1.
     999900   -1    0    0    0    0 -0.00000000000E+00 -0.00000000000E+00 -0.74505805969E-08  0.93827000000E+00  0.93827000000E+00 0.  1.
     999902    2    1    2    0    0 -0.18121124538E-01 -0.14573578110E-01 -0.39595392873E-02  0.10203409711E+01  0.10200682600E+01 0.  0.
     999903    2    3    3    0    0  0.11650519492E+00  0.48921102229E-01  0.54294822181E-02  0.12779182732E+00  0.18290357204E-01 0.  0.
         14    1    1    2    0    0  0.18121124538E-01  0.14573578110E-01  0.39595392873E-02  0.23589028908E-01  0.00000000000E+00 0.  1.
     999901    1    3    3    0    0 -0.13462631946E+00 -0.63494680339E-01 -0.93890215054E-02  0.89254914377E+00  0.88000000000E+00 0.  1.
        -11    1    4    4    0    0  0.41346494598E-01  0.21821171786E-01  0.98204920687E-02  0.47774463253E-01  0.51100000000E-03 0.  1.
         11    1    4    4    0    0  0.75158700320E-01  0.27099930443E-01 -0.43910098507E-02  0.80017364068E-01  0.51100000000E-03 0. -1.
</event>
<event>
 8    1  0.1101883E+005  0.1043930E+01  0.7957747E-01            NaN
         13   -1    0    0    0    0  0.00000000000E+00  0.00000000000E+00  0.74505805969E-08  0.10566000000E+00  0.10566000000E+00 0. -1.
     999900   -1    0    0    0    0 -0.00000000000E+00 -0.00000000000E+00 -0.74505805969E-08  0.93827000000E+00  0.93827000000E+00 0.  1.
     999902    2    1    2    0    0  0.32824643176E-03 -0.10102830524E-02  0.28255608014E-01  0.10156544310E+01  0.10152607623E+01 0.  0.
     999903    2    3    3    0    0  0.78791460011E-01 -0.91221557980E-01 -0.29429805317E-01  0.12569816415E+00  0.20110898004E-01 0.  0.
         14    1    1    2    0    0 -0.32824643176E-03  0.10102830524E-02 -0.28255608014E-01  0.28275568992E-01  0.00000000000E+00 0.  1.
     999901    1    3    3    0    0 -0.78463213580E-01  0.90211274928E-01  0.57685413331E-01  0.88995626686E+00  0.88000000000E+00 0. -1.
        -11    1    4    4    0    0  0.57841170822E-01 -0.73690473970E-01 -0.15246252716E-01  0.94913625675E-01  0.51100000000E-03 0.  1.
         11    1    4    4    0    0  0.20950289190E-01 -0.17531084010E-01 -0.14183552601E-01  0.30784538474E-01  0.51100000000E-03 0. -1.
</event>
<event>
 8    1  0.1101883E+005  0.1043930E+01  0.7957747E-01            NaN
         13   -1    0    0    0    0  0.00000000000E+00  0.00000000000E+00  0.74505805969E-08  0.10566000000E+00  0.10566000000E+00 0. -1.
     999900   -1    0    0    0    0 -0.00000000000E+00 -0.00000000000E+00 -0.74505805969E-08  0.93827000000E+00  0.93827000000E+00 0. -1.
     999902    2    1    2    0    0 -0.20400105788E-02  0.23029555216E-01 -0.16709962045E-02  0.10207499593E+01  0.10204867296E+01 0.  0.
     999903    2    3    3    0    0  0.10545930569E+00 -0.18236357717E-01 -0.70751117805E-01  0.13056400025E+00  0.24228239506E-01 0.  0.
         14    1    1    2    0    0  0.20400105788E-02 -0.23029555216E-01  0.16709962045E-02  0.23180040659E-01  0.00000000000E+00 0. -1.
     999901    1    3    3    0    0 -0.10749931627E+00  0.41265912934E-01  0.69080121601E-01  0.89018595909E+00  0.88000000000E+00 0.  1.
        -11    1    4    4    0    0  0.47849732764E-01 -0.20279001999E-01 -0.30596712119E-01  0.60309657280E-01  0.51100000000E-03 0.  1.
         11    1    4    4    0    0  0.57609572929E-01  0.20426442811E-02 -0.40154405686E-01  0.70254342967E-01  0.51100000000E-03 0. -1.
</event>
<event>
 8    1  0.1101883E+005  0.1043930E+01  0.7957747E-01            NaN
         13   -1    0    0    0    0  0.00000000000E+00  0.00000000000E+00  0.74505805969E-08  0.10566000000E+00  0.10566000000E+00 0. -1.
     999900   -1    0    0    0    0 -0.00000000000E+00 -0.00000000000E+00 -0.74505805969E-08  0.93827000000E+00  0.93827000000E+00 0. -1.
     999902    2    1    2    0    0 -0.41217376105E-02 -0.17235359980E-01 -0.16332536685E-01  0.10198302467E+01  0.10195454546E+01 0.  0.
     999903    2    3    3    0    0  0.10133763707E+00 -0.50714622094E-01 -0.63344602525E-01  0.13165646020E+00  0.21899663513E-01 0.  0.
         14    1    1    2    0    0  0.41217376105E-02  0.17235359980E-01  0.16332536685E-01  0.24099753301E-01  0.00000000000E+00 0. -1.
     999901    1    3    3    0    0 -0.10545937468E+00  0.33479262114E-01  0.47012065840E-01  0.88817378650E+00  0.88000000000E+00 0.  1.
        -11    1    4    4    0    0  0.55250024200E-01 -0.23048148801E-01 -0.21781872528E-01  0.63706306038E-01  0.51100000000E-03 0. -1.
         11    1    4    4    0    0  0.46087612866E-01 -0.27666473293E-01 -0.41562729998E-01  0.67950154157E-01  0.51100000000E-03 0.  1.
</event>
<event>
 8    1  0.1101883E+005  0.1043930E+01  0.7957747E-01            NaN
         13   -1    0    0    0    0  0.00000000000E+00  0.00000000000E+00  0.74505805969E-08  0.10566000000E+00  0.10566000000E+00 0.  1.
     999900   -1    0    0    0    0 -0.00000000000E+00 -0.00000000000E+00 -0.74505805969E-08  0.93827000000E+00  0.93827000000E+00 0.  1.
     999902    2    1    2    0    0 -0.16595972904E-01  0.12401268017E-01 -0.11473459694E-01  0.10202475584E+01  0.10199726576E+01 0.  0.
     999903    2    3    3    0    0  0.10421220724E+00  0.30035935272E-01 -0.68864034129E-01  0.12996711045E+00  0.19668580482E-01 0.  0.
         14    1    1    2    0    0  0.16595972904E-01 -0.12401268017E-01  0.11473459694E-01  0.23682441648E-01  0.00000000000E+00 0.  1.
     999901    1    3    3    0    0 -0.12080818014E+00 -0.17634667255E-01  0.57390574435E-01  0.89028044790E+00  0.88000000000E+00 0.  1.
        -11    1    4    4    0    0  0.76748151921E-01  0.18468214574E-01 -0.59068254458E-01  0.98593476349E-01  0.51100000000E-03 0.  1.
         11    1    4    4    0    0  0.27464055316E-01  0.11567720698E-01 -0.97957796708E-02  0.31373634104E-01  0.51100000000E-03 0. -1.
</event>
<event>
 8    1  0.1101883E+005  0.1043930E+01  0.7957747E-01            NaN
         13   -1    0    0    0    0  0.00000000000E+00  0.00000000000E+00  0.74505805969E-08  0.10566000000E+00  0.10566000000E+00 0. -1.
     999900   -1    0    0    0    0 -0.00000000000E+00 -0.00000000000E+00 -0.74505805969E-08  0.93827000000E+00  0.93827000000E+00 0.  1.
     999902    2    1    2    0    0  0.10007514728E-01  0.26204592768E-01  0.10225964960E-01  0.10140736541E+01  0.10136340437E+01 0.  0.
     999903    2    3    3    0    0 -0.10091217730E+00  0.47470105461E-01  0.54782908594E-01  0.12573772586E+00  0.19290676290E-01 0.  0.
         14    1    1    2    0    0 -0.10007514728E-01 -0.26204592768E-01 -0.10225964960E-01  0.29856345934E-01  0.00000000000E+00 0.  1.
     999901    1    3    3    0    0  0.11091969203E+00 -0.21265512693E-01 -0.44556943634E-01  0.88833592820E+00  0.88000000000E+00 0.  1.
        -11    1    4    4    0    0 -0.73442259654E-01  0.36851525514E-01  0.30800045018E-01  0.87753657074E-01  0.51100000000E-03 0.  1.
         11    1    4    4    0    0 -0.27469917645E-01  0.10618579947E-01  0.23982863576E-01  0.37984068790E-01  0.51100000000E-03 0. -1.
</event>
<event>
 8    1  0.1101883E+005  0.1043930E+01  0.7957747E-01            NaN
         13   -1    0    0    0    0  0.00000000000E+00  0.00000000000E+00  0.74505805969E-08  0.10566000000E+00  0.10566000000E+00 0.  1.
     999900   -1    0    0    0    0 -0.00000000000E+00 -0.00000000000E+00 -0.74505805969E-08  0.93827000000E+00  0.93827000000E+00 0.  1.
     999902    2    1    2    0    0  0.25560467733E-01 -0.43402357204E-02 -0.34156134892E-02  0.10177796353E+01  0.10174436321E+01 0.  0.
     999903    2    3    3    0    0  0.47746285832E-01 -0.64545331127E-01  0.99435159028E-01  0.12946935989E+00  0.20716098079E-01 0.  0.
         14    1    1    2    0    0 -0.25560467733E-01  0.43402357204E-02  0.34156134892E-02  0.26150364669E-01  0.00000000000E+00 0. -1.
     999901    1    3    3    0    0 -0.22185818099E-01  0.60205095407E-01 -0.10285077252E+00  0.88831027544E+00  0.88000000000E+00 0. -1.
        -11    1    4    4    0    0  0.39799458283E-01 -0.37783118678E-01  0.69062020506E-01  0.88212157518E-01  0.51100000000E-03 0.  1.
         11    1    4    4    0    0  0.79468275486E-02 -0.26762212450E-01  0.30373138522E-01  0.41257202377E-01  0.51100000000E-03 0. -1.
</event>
<event>
 8    1  0.1101883E+005  0.1043930E+01  0.7957747E-01            NaN
         13   -1    0    0    0    0  0.00000000000E+00  0.00000000000E+00  0.74505805969E-08  0.10566000000E+00  0.10566000000E+00 0.  1.
     999900   -1    0    0    0    0 -0.00000000000E+00 -0.00000000000E+00 -0.74505805969E-08  0.93827000000E+00  0.93827000000E+00 0. -1.
     999902    2    1    2    0    0  0.18743498082E-01 -0.11507716744E-01 -0.99653590657E-02  0.10197834755E+01  0.10194975636E+01 0.  0.
     999903    2    3    3    0    0 -0.32103938019E-02  0.75146813725E-01  0.10185141525E+00  0.12821520999E+00  0.20200966361E-01 0.  0.
         14    1    1    2    0    0 -0.18743498082E-01  0.11507716744E-01  0.99653590657E-02  0.24146524518E-01  0.00000000000E+00 0.  1.
     999901    1    3    3    0    0  0.21953891884E-01 -0.86654530469E-01 -0.11181677432E+00  0.89156826550E+00  0.88000000000E+00 0. -1.
        -11    1    4    4    0    0  0.52701868187E-02  0.26609063781E-01  0.24816748686E-01  0.36768862924E-01  0.51100000000E-03 0.  1.
         11    1    4    4    0    0 -0.84805806206E-02  0.48537749944E-01  0.77034666565E-01  0.91446347062E-01  0.51100000000E-03 0. -1.
</event>
<event>
 8    1  0.1101883E+005  0.1043930E+01  0.7957747E-01            NaN
         13   -1    0    0    0    0  0.00000000000E+00  0.00000000000E+00  0.74505805969E-08  0.10566000000E+00  0.10566000000E+00 0.  1.
     999900   -1    0    0    0    0 -0.00000000000E+00 -0.00000000000E+00 -0.74505805969E-08  0.93827000000E+00  0.93827000000E+00 0. -1.
     999902    2    1    2    0    0  0.18829554216E-01 -0.50463974286E-02 -0.12379920540E-01  0.10208371294E+01  0.10205758983E+01 0.  0.
     999903    2    3    3    0    0  0.93455041631E-01  0.88304298694E-01 -0.25631182565E-01  0.13265983193E+00  0.20252889009E-01 0.  0.
         14    1    1    2    0    0 -0.18829554216E-01  0.50463974286E-02  0.12379920540E-01  0.23092870578E-01  0.00000000000E+00 0.  1.
     999901    1    3    3    0    0 -0.74625487415E-01 -0.93350696123E-01  0.13251262025E-01  0.88817729749E+00  0.88000000000E+00 0. -1.
        -11    1    4    4    0    0  0.50010059702E-01  0.59621868658E-01 -0.11098731455E-01  0.78607991035E-01  0.51100000000E-03 0.  1.
         11    1    4    4    0    0  0.43444981929E-01  0.28682430036E-01 -0.14532451110E-01  0.54051840892E-01  0.51100000000E-03 0. -1.
</event>
<event>
 8    1  0.1101883E+005  0.1043930E+01  0.7957747E-01            NaN
         13   -1    0    0    0    0  0.00000000000E+00  0.00000000000E+00  0.74505805969E-08  0.10566000000E+00  0.10566000000E+00 0. -1.
     999900   -1    0    0    0    0 -0.00000000000E+00 -0.00000000000E+00 -0.74505805969E-08  0.93827000000E+00  0.93827000000E+00 0.  1.
     999902    2    1    2    0    0  0.40085500923E-02  0.21449952380E-01 -0.76900181334E-02  0.10207933341E+01  0.10205310998E+01 0.  0.
     999903    2    3    3    0    0 -0.38873008151E-01  0.10208845845E+00 -0.74165295842E-01  0.13357275314E+00  0.20199632735E-01 0.  0.
         14    1    1    2    0    0 -0.40085500923E-02 -0.21449952380E-01  0.76900181334E-02  0.23136665918E-01  0.00000000000E+00 0.  1.
     999901    1    3    3    0    0  0.42881558244E-01 -0.80638506072E-01  0.66475277708E-01  0.88722058094E+00  0.88000000000E+00 0. -1.
        -11    1    4    4    0    0 -0.31424227874E-01  0.54582550206E-01 -0.40870969415E-01  0.75082848550E-01  0.51100000000E-03 0.  1.
         11    1    4    4    0    0 -0.74487802771E-02  0.47505908245E-01 -0.33294326426E-01  0.58489904590E-01  0.51100000000E-03 0. -1.
</event>
<event>
 8    1  0.1101883E+005  0.1043930E+01  0.7957747E-01            NaN
         13   -1    0    0    0    0  0.00000000000E+00  0.00000000000E+00  0.74505805969E-08  0.10566000000E+00  0.10566000000E+00 0.  1.
     999900   -1    0    0    0    0 -0.00000000000E+00 -0.00000000000E+00 -0.74505805969E-08  0.93827000000E+00  0.93827000000E+00 0.  1.
     999902    2    1    2    0    0 -0.17542853075E-01 -0.94159353690E-02  0.12678808729E-01  0.10203256842E+01  0.10200526154E+01 0.  0.
     999903    2    3    3    0    0 -0.15836454090E-01  0.12338264792E+00 -0.29530334210E-01  0.12935992322E+00  0.19694618850E-01 0.  0.
         14    1    1    2    0    0  0.17542853075E-01  0.94159353690E-02 -0.12678808729E-01  0.23604315785E-01  0.00000000000E+00 0. -1.
     999901    1    3    3    0    0 -0.17063989850E-02 -0.13279858329E+00  0.42209142939E-01  0.89096576100E+00  0.88000000000E+00 0.  1.
        -11    1    4    4    0    0  0.46235756386E-02  0.24885116316E-01 -0.70085028455E-02  0.26268359273E-01  0.51100000000E-03 0. -1.
         11    1    4    4    0    0 -0.20460029729E-01  0.98497531600E-01 -0.22521831364E-01  0.10309156395E+00  0.51100000000E-03 0.  1.
</event>
<event>
 8    1  0.1101883E+005  0.1043930E+01  0.7957747E-01            NaN
         13   -1    0    0    0    0  0.00000000000E+00  0.00000000000E+00  0.74505805969E-08  0.10566000000E+00  0.10566000000E+00 0. -1.
     999900   -1    0    0    0    0 -0.00000000000E+00 -0.00000000000E+00 -0.74505805969E-08  0.93827000000E+00  0.93827000000E+00 0.  1.
     999902    2    1    2    0    0 -0.34407401561E-02 -0.16314648000E-01  0.16374288651E-01  0.10205607090E+01  0.10202931133E+01 0.  0.
     999903    2    3    3    0    0 -0.50668014453E-02 -0.21440233032E-01  0.12987789851E+00  0.13325468224E+00  0.20079485748E-01 0.  0.
         14    1    1    2    0    0  0.34407401561E-02  0.16314648000E-01 -0.16374288651E-01  0.23369290982E-01  0.00000000000E+00 0.  1.
     999901    1    3    3    0    0  0.16260612891E-02  0.51255850321E-02 -0.11350360986E+00  0.88730602677E+00  0.88000000000E+00 0.  1.
        -11    1    4    4    0    0 -0.12678691415E-01 -0.10495725639E-01  0.71909742643E-01  0.73771143957E-01  0.51100000000E-03 0.  1.
         11    1    4    4    0    0  0.76118899693E-02 -0.10944507393E-01  0.57968155871E-01  0.59483538287E-01  0.51100000000E-03 0. -1.
</event>
<event>
 8    1  0.1101883E+005  0.1043930E+01  0.7957747E-01            NaN
         13   -1    0    0    0    0  0.00000000000E+00  0.00000000000E+00  0.74505805969E-08  0.10566000000E+00  0.10566000000E+00 0.  1.
     999900   -1    0    0    0    0 -0.00000000000E+00 -0.00000000000E+00 -0.74505805969E-08  0.93827000000E+00  0.93827000000E+00 0.  1.
     999902    2    1    2    0    0  0.12311434350E-01  0.19836342891E-01 -0.42218605670E-02  0.10202049916E+01  0.10199290902E+01 0.  0.
     999903    2    3    3    0    0 -0.43250876988E-01 -0.11544605176E+00 -0.26270270820E-01  0.12786277638E+00  0.21455377605E-01 0.  0.
         14    1    1    2    0    0 -0.12311434350E-01 -0.19836342891E-01  0.42218605670E-02  0.23725008360E-01  0.00000000000E+00 0.  1.
     999901    1    3    3    0    0  0.55562311338E-01  0.13528239465E+00  0.22048410253E-01  0.89234221526E+00  0.88000000000E+00 0.  1.
        -11    1    4    4    0    0 -0.18904312461E-01 -0.36747816503E-01  0.21879311597E-03  0.41328973358E-01  0.51100000000E-03 0. -1.
         11    1    4    4    0    0 -0.24346564527E-01 -0.78698235252E-01 -0.26489063936E-01  0.86533803021E-01  0.51100000000E-03 0.  1.
</event>
<event>
 8    1  0.1101883E+005  0.1043930E+01  0.7957747E-01            NaN
         13   -1    0    0    0    0  0.00000000000E+00  0.00000000000E+00  0.74505805969E-08  0.10566000000E+00  0.10566000000E+00 0.  1.
     999900   -1    0    0    0    0 -0.00000000000E+00 -0.00000000000E+00 -0.74505805969E-08  0.93827000000E+00  0.93827000000E+00 0.  1.
     999902    2    1    2    0    0  0.81938291088E-02  0.15123373823E-01  0.17275544231E-01  0.10195517371E+01  0.10192602440E+01 0.  0.
     999903    2    3    3    0    0  0.12280265430E+00 -0.37302564267E-01 -0.10355039902E-01  0.13014344453E+00  0.18923955703E-01 0.  0.
         14    1    1    2    0    0 -0.81938291088E-02 -0.15123373823E-01 -0.17275544231E-01  0.24378262853E-01  0.00000000000E+00 0.  1.
     999901    1    3    3    0    0 -0.11460882519E+00  0.52425938090E-01  0.27630584132E-01  0.88940829262E+00  0.88000000000E+00 0. -1.
        -11    1    4    4    0    0  0.62189730557E-01 -0.28328166149E-01 -0.81985243007E-02  0.68829677508E-01  0.51100000000E-03 0.  1.
         11    1    4    4    0    0  0.60612923740E-01 -0.89743981177E-02 -0.21565156011E-02  0.61313767022E-01  0.51100000000E-03 0. -1.
</event>
<event>
 8    1  0.1101883E+005  0.1043930E+01  0.7957747E-01            NaN
         13   -1    0    0    0    0  0.00000000000E+00  0.00000000000E+00  0.74505805969E-08  0.10566000000E+00  0.10566000000E+00 0.  1.
     999900   -1    0    0    0    0 -0.00000000000E+00 -0.00000000000E+00 -0.74505805969E-08  0.93827000000E+00  0.93827000000E+00 0. -1.
     999902    2    1    2    0    0  0.64453434228E-02  0.22387250320E-01  0.21133651051E-02  0.10205377419E+01  0.10202696138E+01 0.  0.
     999903    2    3    3    0    0 -0.39531561087E-01 -0.74912009781E-01 -0.94775568334E-01  0.12870340344E+00  0.20189209313E-01 0.  0.
         14    1    1    2    0    0 -0.64453434228E-02 -0.22387250320E-01 -0.21133651051E-02  0.23392258138E-01  0.00000000000E+00 0.  1.
     999901    1    3    3    0    0  0.45976904510E-01  0.97299260101E-01  0.96888933439E-01  0.89183433842E+00  0.88000000000E+00 0. -1.
        -11    1    4    4    0    0 -0.61448681388E-02 -0.11860911442E-01 -0.55861964161E-02  0.14488179184E-01  0.51100000000E-03 0.  1.
         11    1    4    4    0    0 -0.33386692948E-01 -0.63051098339E-01 -0.89189371918E-01  0.11421522426E+00  0.51100000000E-03 0. -1.
</event>
<event>
 8    1  0.1101883E+005  0.1043930E+01  0.7957747E-01            NaN
         13   -1    0    0    0    0  0.00000000000E+00  0.00000000000E+00  0.74505805969E-08  0.10566000000E+00  0.10566000000E+00 0.  1.
     999900   -1    0    0    0    0 -0.00000000000E+00 -0.00000000000E+00 -0.74505805969E-08  0.93827000000E+00  0.93827000000E+00 0.  1.
     999902    2    1    2    0    0 -0.19973561378E-01 -0.14072625086E-01  0.14502199750E-01  0.10155170500E+01  0.10151194920E+01 0.  0.
     999903    2    3    3    0    0 -0.40211461248E-01  0.36449874355E-01 -0.11083268236E+00  0.12497175175E+00  0.19710410944E-01 0.  0.
         14    1    1    2    0    0  0.19973561378E-01  0.14072625086E-01 -0.14502199750E-01  0.28412950014E-01  0.00000000000E+00 0. -1.
     999901    1    3    3    0    0  0.20237899871E-01 -0.50522499441E-01  0.12533488211E+00  0.89054529824E+00  0.88000000000E+00 0. -1.
        -11    1    4    4    0    0 -0.11840193098E-01  0.12532030162E-01 -0.57253524862E-01  0.59795227090E-01  0.51100000000E-03 0. -1.
         11    1    4    4    0    0 -0.28371268151E-01  0.23917844193E-01 -0.53579157498E-01  0.65176524658E-01  0.51100000000E-03 0.  1.
</event>
<event>
 8    1  0.1101883E+005  0.1043930E+01  0.7957747E-01            NaN
         13   -1    0    0    0    0  0.00000000000E+00  0.00000000000E+00  0.74505805969E-08  0.10566000000E+00  0.10566000000E+00 0.  1.
     999900   -1    0    0    0    0 -0.00000000000E+00 -0.00000000000E+00 -0.74505805969E-08  0.93827000000E+00  0.93827000000E+00 0. -1.
     999902    2    1    2    0    0 -0.74156097419E-03 -0.15424342368E-01  0.17637535481E-01  0.10204876685E+01  0.10202183779E+01 0.  0.
     999903    2    3    3    0    0  0.17217065962E-01 -0.27543608779E-01 -0.12376653672E+00  0.12893593102E+00  0.15850582075E-01 0.  0.
         14    1    1    2    0    0  0.74156097419E-03  0.15424342368E-01 -0.17637535481E-01  0.23442331539E-01  0.00000000000E+00 0. -1.
     999901    1    3    3    0    0 -0.17958626936E-01  0.12119266411E-01  0.14140407220E+00  0.89155173744E+00  0.88000000000E+00 0.  1.
        -11    1    4    4    0    0  0.12740927780E-01 -0.12477948401E-01 -0.41379881844E-01  0.45062025913E-01  0.51100000000E-03 0.  1.
         11    1    4    4    0    0  0.44761381820E-02 -0.15065660378E-01 -0.82386654873E-01  0.83873905107E-01  0.51100000000E-03 0. -1.
</event>
<event>
 8    1  0.1101883E+005  0.1043930E+01  0.7957747E-01            NaN
         13   -1    0    0    0    0  0.00000000000E+00  0.00000000000E+00  0.74505805969E-08  0.10566000000E+00  0.10566000000E+00 0. -1.
     999900   -1    0    0    0    0 -0.00000000000E+00 -0.00000000000E+00 -0.74505805969E-08  0.93827000000E+00  0.93827000000E+00 0. -1.
     999902    2    1    2    0    0  0.16935104454E-01 -0.12605040411E-02  0.16233281488E-01  0.10204373190E+01  0.10201668569E+01 0.  0.
     999903    2    3    3    0    0 -0.47595925980E-01 -0.11925367891E+00 -0.58208225358E-02  0.12994698961E+00  0.19118735097E-01 0.  0.
         14    1    1    2    0    0 -0.16935104454E-01  0.12605040411E-02 -0.16233281488E-01  0.23492681013E-01  0.00000000000E+00 0.  1.
     999901    1    3    3    0    0  0.64531030434E-01  0.11799317487E+00  0.22054104024E-01  0.89049032937E+00  0.88000000000E+00 0. -1.
        -11    1    4    4    0    0 -0.17894377591E-01 -0.28596706623E-01 -0.73749266716E-02  0.34534490636E-01  0.51100000000E-03 0. -1.
         11    1    4    4    0    0 -0.29701548389E-01 -0.90656972284E-01  0.15541041358E-02  0.95412498977E-01  0.51100000000E-03 0.  1.
</event>
<event>
 8    1  0.1101883E+005  0.1043930E+01  0.7957747E-01            NaN
         13   -1    0    0    0    0  0.00000000000E+00  0.00000000000E+00  0.74505805969E-08  0.10566000000E+00  0.10566000000E+00 0. -1.
     999900   -1    0    0    0    0 -0.00000000000E+00 -0.00000000000E+00 -0.74505805969E-08  0.93827000000E+00  0.93827000000E+00 0. -1.
     999902    2    1    2    0    0  0.10962637270E-01  0.23669963554E-01 -0.10998297999E-01  0.10156208292E+01  0.10152262111E+01 0.  0.
     999903    2    3    3    0    0  0.61556137581E-01 -0.54536104493E-01  0.90802446908E-01  0.12486874082E+00  0.24161401078E-01 0.  0.
         14    1    1    2    0    0 -0.10962637270E-01 -0.23669963554E-01  0.10998297999E-01  0.28309170766E-01  0.00000000000E+00 0.  1.
     999901    1    3    3    0    0 -0.50593500311E-01  0.78206068047E-01 -0.10180074491E+00  0.89075208842E+00  0.88000000000E+00 0.  1.
        -11    1    4    4    0    0  0.28356331809E-01 -0.18615504080E-01  0.53513486538E-01  0.63360657417E-01  0.51100000000E-03 0. -1.
         11    1    4    4    0    0  0.33199805772E-01 -0.35920600413E-01  0.37288960370E-01  0.61508083402E-01  0.51100000000E-03 0.  1.
</event>
<event>
 8    1  0.1101883E+005  0.1043930E+01  0.7957747E-01            NaN
         13   -1    0    0    0    0  0.00000000000E+00  0.00000000000E+00  0.74505805969E-08  0.10566000000E+00  0.10566000000E+00 0.  1.
     999900   -1    0    0    0    0 -0.00000000000E+00 -0.00000000000E+00 -0.74505805969E-08  0.93827000000E+00  0.93827000000E+00 0. -1.
     999902    2    1    2    0    0 -0.58010760985E-02 -0.14511364936E-01 -0.17691594676E-01  0.10203243922E+01  0.10200512931E+01 0.  0.
     999903    2    3    3    0    0  0.29960159773E-01 -0.12587881056E-01 -0.12702318764E+00  0.13283582159E+00  0.21316645557E-01 0.  0.
         14    1    1    2    0    0  0.58010760985E-02  0.14511364936E-01  0.17691594676E-01  0.23605607774E-01  0.00000000000E+00 0.  1.
     999901    1    3    3    0    0 -0.35761235872E-01 -0.19234838798E-02  0.10933159296E+00  0.88748857063E+00  0.88000000000E+00 0.  1.
        -11    1    4    4    0    0  0.15519359053E-01  0.38523873033E-02 -0.39492291217E-01  0.42609782679E-01  0.51100000000E-03 0. -1.
         11    1    4    4    0    0  0.14440800720E-01 -0.16440268359E-01 -0.87530896421E-01  0.90226038916E-01  0.51100000000E-03 0.  1.
</event>
<event>
 8    1  0.1101883E+005  0.1043930E+01  0.7957747E-01            NaN
         13   -1    0    0    0    0  0.00000000000E+00  0.00000000000E+00  0.74505805969E-08  0.10566000000E+00  0.10566000000E+00 0. -1.
     999900   -1    0    0    0    0 -0.00000000000E+00 -0.00000000000E+00 -0.74505805969E-08  0.93827000000E+00  0.93827000000E+00 0. -1.
     999902    2    1    2    0    0  0.16092680352E-01 -0.15297998857E-01 -0.73117433000E-02  0.10205534151E+01  0.10202856504E+01 0.  0.
     999903    2    3    3    0    0  0.34260356202E-01 -0.68279926458E-01  0.10534489581E+00  0.13160534723E+00  0.19659602780E-01 0.  0.
         14    1    1    2    0    0 -0.16092680352E-01  0.15297998857E-01  0.73117433000E-02  0.23376584866E-01  0.00000000000E+00 0. -1.
     999901    1    3    3    0    0 -0.18167675850E-01  0.52981927601E-01 -0.11265663911E+00  0.88894806791E+00  0.88000000000E+00 0. -1.
        -11    1    4    4    0    0  0.30598985891E-01 -0.42629160546E-01  0.63403802558E-01  0.82303381256E-01  0.51100000000E-03 0.  1.
         11    1    4    4    0    0  0.36613703102E-02 -0.25650765912E-01  0.41941093253E-01  0.49301965972E-01  0.51100000000E-03 0. -1.
</event>
<event>
 8    1  0.1101883E+005  0.1043930E+01  0.7957747E-01            NaN
         13   -1    0    0    0    0  0.00000000000E+00  0.00000000000E+00  0.74505805969E-08  0.10566000000E+00  0.10566000000E+00 0.  1.
     999900   -1    0    0    0    0 -0.00000000000E+00 -0.00000000000E+00 -0.74505805969E-08  0.93827000000E+00  0.93827000000E+00 0.  1.
     999902    2    1    2    0    0 -0.21134990584E-01  0.46484675072E-02 -0.93190652890E-02  0.10203685685E+01  0.10200965025E+01 0.  0.
     999903    2    3    3    0    0  0.25034955314E-01  0.11942207636E+00 -0.43460036935E-01  0.13105970699E+00  0.19987262861E-01 0.  0.
         14    1    1    2    0    0  0.21134990584E-01 -0.46484675072E-02  0.93190652890E-02  0.23561431514E-01  0.00000000000E+00 0.  1.
     999901    1    3    3    0    0 -0.46169945898E-01 -0.11477360885E+00  0.34140971646E-01  0.88930886150E+00  0.88000000000E+00 0. -1.
        -11    1    4    4    0    0  0.25587940425E-01  0.95390709927E-01 -0.28709685745E-01  0.10285250319E+00  0.51100000000E-03 0.  1.
         11    1    4    4    0    0 -0.55298511021E-03  0.24031366429E-01 -0.14750351190E-01  0.28207203800E-01  0.51100000000E-03 0. -1.
</event>
<event>
 8    1  0.1101883E+005  0.1043930E+01  0.7957747E-01            NaN
         13   -1    0    0    0    0  0.00000000000E+00  0.00000000000E+00  0.74505805969E-08  0.10566000000E+00  0.10566000000E+00 0. -1.
     999900   -1    0    0    0    0 -0.00000000000E+00 -0.00000000000E+00 -0.74505805969E-08  0.93827000000E+00  0.93827000000E+00 0.  1.
     999902    2    1    2    0    0 -0.21096800464E-01 -0.13242581990E-01 -0.16781581239E-02  0.10189648807E+01  0.10186590062E+01 0.  0.
     999903    2    3    3    0    0 -0.64611978428E-01 -0.10984611001E+00 -0.28906015086E-01  0.13219142115E+00  0.19953407656E-01 0.  0.
         14    1    1    2    0    0  0.21096800464E-01  0.13242581990E-01  0.16781581239E-02  0.24965119312E-01  0.00000000000E+00 0.  1.
     999901    1    3    3    0    0  0.43515177963E-01  0.96603528024E-01  0.27227856962E-01  0.88677345953E+00  0.88000000000E+00 0. -1.
        -11    1    4    4    0    0 -0.14617310282E-01 -0.15576454400E-01  0.94244902408E-03  0.21387870925E-01  0.51100000000E-03 0. -1.
         11    1    4    4    0    0 -0.49994668146E-01 -0.94269655614E-01 -0.29848464110E-01  0.11080355023E+00  0.51100000000E-03 0.  1.
</event>
<event>
 8    1  0.1186722E+005  0.1043930E+01  0.7957747E-01            NaN
         13   -1    0    0    0    0  0.00000000000E+00  0.00000000000E+00  0.74505805969E-08  0.10566000000E+00  0.10566000000E+00 0. -1.
     999900   -1    0    0    0    0 -0.00000000000E+00 -0.00000000000E+00 -0.74505805969E-08  0.93827000000E+00  0.93827000000E+00 0. -1.
     999902    2    1    2    0    0  0.22525557715E-01 -0.74592632712E-02  0.27189391799E-02  0.10200462401E+01  0.10197665899E+01 0.  0.
     999903    2    3    3    0    0  0.83789849446E-01 -0.36535968416E-01  0.94399780315E-01  0.13268828249E+00  0.18418629914E-01 0.  0.
         14    1    1    2    0    0 -0.22525557715E-01  0.74592632712E-02 -0.27189391799E-02  0.23883759946E-01  0.00000000000E+00 0.  1.
     999901    1    3    3    0    0 -0.61264291732E-01  0.29076705144E-01 -0.91680841135E-01  0.88735795757E+00  0.88000000000E+00 0. -1.
        -11    1    4    4    0    0  0.43981662265E-01 -0.16583072113E-01  0.61064267827E-01  0.77061604074E-01  0.51100000000E-03 0. -1.
         11    1    4    4    0    0  0.39808187182E-01 -0.19952896303E-01  0.33335512488E-01  0.55626678414E-01  0.51100000000E-03 0.  1.
</event>
<event>
 8    1  0.1101883E+005  0.1043930E+01  0.7957747E-01            NaN
         13   -1    0    0    0    0  0.00000000000E+00  0.00000000000E+00  0.74505805969E-08  0.10566000000E+00  0.10566000000E+00 0. -1.
     999900   -1    0    0    0    0 -0.00000000000E+00 -0.00000000000E+00 -0.74505805969E-08  0.93827000000E+00  0.93827000000E+00 0.  1.
     999902    2    1    2    0    0 -0.13760747862E-01 -0.53330675057E-02  0.17554560488E-01  0.10209961302E+01  0.10207385245E+01 0.  0.
     999903    2    3    3    0    0  0.12137343056E+00  0.28276616893E-01 -0.27367739057E-01  0.12891492869E+00  0.18411653615E-01 0.  0.
         14    1    1    2    0    0  0.13760747862E-01  0.53330675057E-02 -0.17554560488E-01  0.22933869814E-01  0.00000000000E+00 0.  1.
     999901    1    3    3    0    0 -0.13513417842E+00 -0.33609684399E-01  0.44922299545E-01  0.89208120149E+00  0.88000000000E+00 0. -1.
        -11    1    4    4    0    0  0.34826791405E-01  0.77952613645E-02 -0.16477558680E-01  0.39312117221E-01  0.51100000000E-03 0.  1.
         11    1    4    4    0    0  0.86546639157E-01  0.20481355529E-01 -0.10890180377E-01  0.89602811470E-01  0.51100000000E-03 0. -1.
</event>
<event>
 8    1  0.1101883E+005  0.1043930E+01  0.7957747E-01            NaN
         13   -1    0    0    0    0  0.00000000000E+00  0.00000000000E+00  0.74505805969E-08  0.10566000000E+00  0.10566000000E+00 0. -1.
     999900   -1    0    0    0    0 -0.00000000000E+00 -0.00000000000E+00 -0.74505805969E-08  0.93827000000E+00  0.93827000000E+00 0.  1.
     999902    2    1    2    0    0  0.83689975193E-02  0.15221557052E-01 -0.16758377536E-01  0.10197933238E+01  0.10195076479E+01 0.  0.
     999903    2    3    3    0    0  0.10076167225E+00 -0.77567741414E-01  0.14615950214E-01  0.12955144171E+00  0.20007022405E-01 0.  0.
         14    1    1    2    0    0 -0.83689975193E-02 -0.15221557052E-01  0.16758377536E-01  0.24136676163E-01  0.00000000000E+00 0.  1.
     999901    1    3    3    0    0 -0.92392674731E-01  0.92789298466E-01 -0.31374327749E-01  0.89024188213E+00  0.88000000000E+00 0.  1.
        -11    1    4    4    0    0  0.57891971068E-01 -0.48581966848E-01  0.17992455836E-01  0.77689622248E-01  0.51100000000E-03 0. -1.
         11    1    4    4    0    0  0.42869701182E-01 -0.28985774566E-01 -0.33765056220E-02  0.51861819461E-01  0.51100000000E-03 0.  1.
</event>
<event>
 7    1  0.1101883E+005  0.1043930E+01  0.7957747E-01            NaN
         13   -1    0    0    0    0  0.00000000000E+00  0.00000000000E+00  0.74505805969E-08  0.10566000000E+00  0.10566000000E+00 0. -1.
     999900   -1    0    0    0    0 -0.00000000000E+00 -0.00000000000E+00 -0.74505805969E-08  0.93827000000E+00  0.93827000000E+00 0. -1.
     999903    2    1    2    0    0 -0.71151178454E-01 -0.76327305727E-01  0.37973425549E-01  0.11311091832E+00  0.21534878693E-01 0.  0.
         14    1    1    2    0    0 -0.15284041263E-01  0.34830353642E-01 -0.24999192374E-01  0.45516096840E-01  0.00000000000E+00 0.  1.
     999901    1    1    2    0    0  0.86435219717E-01  0.41496952085E-01 -0.12974233175E-01  0.88530298484E+00  0.88000000000E+00 0. -1.
        -11    1    3    3    0    0 -0.27243853455E-01 -0.40889655894E-01  0.25345360718E-01  0.55288696323E-01  0.51100000000E-03 0. -1.
         11    1    3    3    0    0 -0.43907324999E-01 -0.35437649833E-01  0.12628064831E-01  0.57822221997E-01  0.51100000000E-03 0.  1.
</event>
<event>
 8    1  0.1101883E+005  0.1043930E+01  0.7957747E-01            NaN
         13   -1    0    0    0    0  0.00000000000E+00  0.00000000000E+00  0.74505805969E-08  0.10566000000E+00  0.10566000000E+00 0.  1.
     999900   -1    0    0    0    0 -0.00000000000E+00 -0.00000000000E+00 -0.74505805969E-08  0.93827000000E+00  0.93827000000E+00 0.  1.
     999902    2    1    2    0    0  0.17221680748E-01  0.15911672631E-01 -0.27638336749E-02  0.10203205445E+01  0.10200473553E+01 0.  0.
     999903    2    3    3    0    0 -0.51779596975E-01  0.10735386847E+00  0.50451436738E-01  0.13130158151E+00  0.22108326463E-01 0.  0.
         14    1    1    2    0    0 -0.17221680748E-01 -0.15911672631E-01  0.27638336749E-02  0.23609455528E-01  0.00000000000E+00 0.  1.
     999901    1    3    3    0    0  0.69001277724E-01 -0.91442195838E-01 -0.53215270413E-01  0.88901896297E+00  0.88000000000E+00 0.  1.
        -11    1    4    4    0    0 -0.41130736816E-01  0.99747142104E-01  0.47432541362E-01  0.11786151607E+00  0.51100000000E-03 0.  1.
         11    1    4    4    0    0 -0.10648860159E-01  0.76067263649E-02  0.30188953765E-02  0.13440065438E-01  0.51100000000E-03 0. -1.
</event>
<event>
 8    1  0.1101883E+005  0.1043930E+01  0.7957747E-01            NaN
         13   -1    0    0    0    0  0.00000000000E+00  0.00000000000E+00  0.74505805969E-08  0.10566000000E+00  0.10566000000E+00 0.  1.
     999900   -1    0    0    0    0 -0.00000000000E+00 -0.00000000000E+00 -0.74505805969E-08  0.93827000000E+00  0.93827000000E+00 0.  1.
     999902    2    1    2    0    0 -0.92293240140E-02  0.17166099258E-01  0.14480817470E-01  0.10196493604E+01  0.10193602252E+01 0.  0.
     999903    2    3    3    0    0  0.58874593946E-01  0.10766217453E+00  0.44296764308E-01  0.13189000450E+00  0.19375456663E-01 0.  0.
         14    1    1    2    0    0  0.92293240140E-02 -0.17166099258E-01 -0.14480817470E-01  0.24280639615E-01  0.00000000000E+00 0. -1.
     999901    1    3    3    0    0 -0.68103917960E-01 -0.90496075273E-01 -0.29815946837E-01  0.88775935589E+00  0.88000000000E+00 0.  1.
        -11    1    4    4    0    0  0.39813308649E-01  0.89212487669E-01  0.34576774728E-01  0.10363291935E+00  0.51100000000E-03 0. -1.
         11    1    4    4    0    0  0.19061285297E-01  0.18449686862E-01  0.97199895801E-02  0.28257085145E-01  0.51100000000E-03 0.  1.
</event>
<event>
 8    1  0.1101883E+005  0.1043930E+01  0.7957747E-01            NaN
         13   -1    0    0    0    0  0.00000000000E+00  0.00000000000E+00  0.74505805969E-08  0.10566000000E+00  0.10566000000E+00 0.  1.
     999900   -1    0    0    0    0 -0.00000000000E+00 -0.00000000000E+00 -0.74505805969E-08  0.93827000000E+00  0.93827000000E+00 0.  1.
     999902    2    1    2    0    0 -0.53236029797E-02  0.20249344391E-01 -0.92725808944E-02  0.10210311473E+01  0.10207743367E+01 0.  0.
     999903    2    3    3    0    0  0.69806966768E-01 -0.71067310962E-01 -0.81422539519E-01  0.13019505097E+00  0.19938557091E-01 0.  0.
         14    1    1    2    0    0  0.53236029797E-02 -0.20249344391E-01  0.92725808944E-02  0.22898852665E-01  0.00000000000E+00 0.  1.
     999901    1    3    3    0    0 -0.75130569748E-01  0.91316655353E-01  0.72149958624E-01  0.89083609636E+00  0.88000000000E+00 0. -1.
        -11    1    4    4    0    0  0.37645319883E-01 -0.28925814489E-01 -0.48058883541E-01  0.67555830697E-01  0.51100000000E-03 0. -1.
         11    1    4    4    0    0  0.32161646885E-01 -0.42141496472E-01 -0.33363655978E-01  0.62639220274E-01  0.51100000000E-03 0.  1.
</event>
<event>
 8    1  0.1101883E+005  0.1043930E+01  0.7957747E-01            NaN
         13   -1    0    0    0    0  0.00000000000E+00  0.00000000000E+00  0.74505805969E-08  0.10566000000E+00  0.10566000000E+00 0.  1.
     999900   -1    0    0    0    0 -0.00000000000E+00 -0.00000000000E+00 -0.74505805969E-08  0.93827000000E+00  0.93827000000E+00 0. -1.
     999902    2    1    2    0    0  0.17494094423E-01  0.60518228289E-02  0.13613767874E-01  0.10209516934E+01  0.10206930771E+01 0.  0.
     999903    2    3    3    0    0  0.64903914126E-01 -0.89200721120E-01  0.70943280056E-01  0.13269080203E+00  0.20115000432E-01 0.  0.
         14    1    1    2    0    0 -0.17494094423E-01 -0.60518228289E-02 -0.13613767874E-01  0.22978306616E-01  0.00000000000E+00 0. -1.
     999901    1    3    3    0    0 -0.47409819702E-01  0.95252543949E-01 -0.57329512182E-01  0.88826089135E+00  0.88000000000E+00 0. -1.
        -11    1    4    4    0    0  0.45058150384E-01 -0.45368638331E-01  0.38132273183E-01  0.74450531490E-01  0.51100000000E-03 0.  1.
         11    1    4    4    0    0  0.19845763742E-01 -0.43832082789E-01  0.32811006872E-01  0.58240270544E-01  0.51100000000E-03 0. -1.
</event>
<event>
 8    1  0.1101883E+005  0.1043930E+01  0.7957747E-01            NaN
         13   -1    0    0    0    0  0.00000000000E+00  0.00000000000E+00  0.74505805969E-08  0.10566000000E+00  0.10566000000E+00 0.  1.
     999900   -1    0    0    0    0 -0.00000000000E+00 -0.00000000000E+00 -0.74505805969E-08  0.93827000000E+00  0.93827000000E+00 0.  1.
     999902    2    1    2    0    0  0.17108886095E-01 -0.11677599957E-01 -0.59912059775E-02  0.10223667240E+01  0.10221392975E+01 0.  0.
     999903    2    3    3    0    0 -0.56474449837E-01 -0.85570448337E-01  0.80761157045E-01  0.13197319700E+00  0.19567706240E-01 0.  0.
         14    1    1    2    0    0 -0.17108886095E-01  0.11677599957E-01  0.59912059775E-02  0.21563276032E-01  0.00000000000E+00 0.  1.
     999901    1    3    3    0    0  0.73583335932E-01  0.73892848380E-01 -0.86752363022E-01  0.89039352696E+00  0.88000000000E+00 0.  1.
        -11    1    4    4    0    0 -0.47447203328E-01 -0.63441876378E-01  0.70156366584E-01  0.10582195271E+00  0.51100000000E-03 0. -1.
         11    1    4    4    0    0 -0.90272465085E-02 -0.22128571958E-01  0.10604790461E-01  0.26151244295E-01  0.51100000000E-03 0.  1.
</event>
<event>
 8    1  0.1101883E+005  0.1043930E+01  0.7957747E-01            NaN
         13   -1    0    0    0    0  0.00000000000E+00  0.00000000000E+00  0.74505805969E-08  0.10566000000E+00  0.10566000000E+00 0. -1.
     999900   -1    0    0    0    0 -0.00000000000E+00 -0.00000000000E+00 -0.74505805969E-08  0.93827000000E+00  0.93827000000E+00 0. -1.
     999902    2    1    2    0    0  0.33593696140E-02  0.26510006688E-01 -0.81608669020E-02  0.10159896069E+01  0.10156053445E+01 0.  0.
     999903    2    3    3    0    0 -0.55310181484E-01 -0.92545883902E-01 -0.60127762154E-01  0.12452060601E+00  0.16311858806E-01 0.  0.
         14    1    1    2    0    0 -0.33593696140E-02 -0.26510006688E-01  0.81608669020E-02  0.27940393115E-01  0.00000000000E+00 0. -1.
     999901    1    3    3    0    0  0.58669551098E-01  0.11905589059E+00  0.51966895252E-01  0.89146900087E+00  0.88000000000E+00 0.  1.
        -11    1    4    4    0    0 -0.40252044272E-01 -0.51836113367E-01 -0.36526134853E-01  0.75110780620E-01  0.51100000000E-03 0.  1.
         11    1    4    4    0    0 -0.15058137212E-01 -0.40709770535E-01 -0.23601627300E-01  0.49409825395E-01  0.51100000000E-03 0. -1.
</event>
<event>
 8    1  0.1101883E+005  0.1043930E+01  0.7957747E-01            NaN
         13   -1    0    0    0    0  0.00000000000E+00  0.00000000000E+00  0.74505805969E-08  0.10566000000E+00  0.10566000000E+00 0. -1.
     999900   -1    0    0    0    0 -0.00000000000E+00 -0.00000000000E+00 -0.74505805969E-08  0.93827000000E+00  0.93827000000E+00 0. -1.
     999902    2    1    2    0    0  0.11467791088E-02  0.22020833384E-01 -0.90294731425E-02  0.10201022097E+01  0.10198238841E+01 0.  0.
     999903    2    3    3    0    0 -0.45963668752E-01  0.41422990014E-01 -0.11603985974E+00  0.13215679425E+00  0.13101384315E-01 0.  0.
         14    1    1    2    0    0 -0.11467791088E-02 -0.22020833384E-01  0.90294731425E-02  0.23827790298E-01  0.00000000000E+00 0. -1.
     999901    1    3    3    0    0  0.47110447861E-01 -0.19402156630E-01  0.10701038660E+00  0.88794541545E+00  0.88000000000E+00 0.  1.
        -11    1    4    4    0    0 -0.10483957598E-01  0.12949248801E-01 -0.21193300977E-01  0.26963188586E-01  0.51100000000E-03 0.  1.
         11    1    4    4    0    0 -0.35479711154E-01  0.28473741212E-01 -0.94846558766E-01  0.10519360567E+00  0.51100000000E-03 0. -1.
</event>
<event>
 8    1  0.1101883E+005  0.1043930E+01  0.7957747E-01            NaN
         13   -1    0    0    0    0  0.00000000000E+00  0.00000000000E+00  0.74505805969E-08  0.10566000000E+00  0.10566000000E+00 0. -1.
     999900   -1    0    0    0    0 -0.00000000000E+00 -0.00000000000E+00 -0.74505805969E-08  0.93827000000E+00  0.93827000000E+00 0. -1.
     999902    2    1    2    0    0 -0.73754520644E-02  0.22492471169E-01  0.20928618678E-02  0.10201668221E+01  0.10198900217E+01 0.  0.
     999903    2    3    3    0    0  0.11316454312E+00  0.59973106424E-01 -0.15875731413E-02  0.13115150500E+00  0.28199460321E-01 0.  0.
         14    1    1    2    0    0  0.73754520644E-02 -0.22492471169E-01 -0.20928618678E-02  0.23763177886E-01  0.00000000000E+00 0.  1.
     999901    1    3    3    0    0 -0.12053999518E+00 -0.37480635255E-01  0.36804350091E-02  0.88901531711E+00  0.88000000000E+00 0. -1.
        -11    1    4    4    0    0  0.65283442250E-01  0.48707717315E-01 -0.65194562717E-02  0.81713731950E-01  0.51100000000E-03 0. -1.
         11    1    4    4    0    0  0.47881100869E-01  0.11265389109E-01  0.49318831304E-02  0.49437773053E-01  0.51100000000E-03 0.  1.
</event>
<event>
 8    1  0.1101883E+005  0.1043930E+01  0.7957747E-01            NaN
         13   -1    0    0    0    0  0.00000000000E+00  0.00000000000E+00  0.74505805969E-08  0.10566000000E+00  0.10566000000E+00 0.  1.
     999900   -1    0    0    0    0 -0.00000000000E+00 -0.00000000000E+00 -0.74505805969E-08  0.93827000000E+00  0.93827000000E+00 0. -1.
     999902    2    1    2    0    0  0.17109430497E-01  0.10987020656E-02 -0.16919237074E-01  0.10198426518E+01  0.10195581563E+01 0.  0.
     999903    2    3    3    0    0  0.12289767007E+00 -0.13136805933E-01  0.40453578712E-01  0.13153783855E+00  0.19730635089E-01 0.  0.
         14    1    1    2    0    0 -0.17109430497E-01 -0.10987020656E-02  0.16919237074E-01  0.24087348159E-01  0.00000000000E+00 0. -1.
     999901    1    3    3    0    0 -0.10578823958E+00  0.14235507999E-01 -0.57372815787E-01  0.88830481329E+00  0.88000000000E+00 0. -1.
        -11    1    4    4    0    0  0.52569674265E-01 -0.13584045286E-01  0.11635501578E-01  0.55531459161E-01  0.51100000000E-03 0.  1.
         11    1    4    4    0    0  0.70327995808E-01  0.44723935319E-03  0.28818077135E-01  0.76006379391E-01  0.51100000000E-03 0. -1.
</event>
<event>
 8    1  0.1101883E+005  0.1043930E+01  0.7957747E-01            NaN
         13   -1    0    0    0    0  0.00000000000E+00  0.00000000000E+00  0.74505805969E-08  0.10566000000E+00  0.10566000000E+00 0.  1.
     999900   -1    0    0    0    0 -0.00000000000E+00 -0.00000000000E+00 -0.74505805969E-08  0.93827000000E+00  0.93827000000E+00 0. -1.
     999902    2    1    2    0    0 -0.54690033659E-02 -0.11337811457E-01  0.20020466841E-01  0.10202810030E+01  0.10200068872E+01 0.  0.
     999903    2    3    3    0    0  0.23864366899E-01  0.55492552414E-01  0.11597958960E+00  0.13206093039E+00  0.18436180522E-01 0.  0.
         14    1    1    2    0    0  0.54690033659E-02  0.11337811457E-01 -0.20020466841E-01  0.23648996998E-01  0.00000000000E+00 0. -1.
     999901    1    3    3    0    0 -0.29333370265E-01 -0.66830363871E-01 -0.95959122756E-01  0.88822007261E+00  0.88000000000E+00 0. -1.
        -11    1    4    4    0    0  0.27607807610E-02  0.25459382991E-01  0.58462087648E-01  0.63826944983E-01  0.51100000000E-03 0. -1.
         11    1    4    4    0    0  0.21103586138E-01  0.30033169423E-01  0.57517501949E-01  0.68233985410E-01  0.51100000000E-03 0.  1.
</event>
<event>
 8    1  0.1101883E+005  0.1043930E+01  0.7957747E-01            NaN
         13   -1    0    0    0    0  0.00000000000E+00  0.00000000000E+00  0.74505805969E-08  0.10566000000E+00  0.10566000000E+00 0. -1.
     999900   -1    0    0    0    0 -0.00000000000E+00 -0.00000000000E+00 -0.74505805969E-08  0.93827000000E+00  0.93827000000E+00 0.  1.
     999902    2    1    2    0    0 -0.20610575850E-01 -0.34069933168E-02  0.98188516218E-02  0.10208472513E+01  0.10205862517E+01 0.  0.
     999903    2    3    3    0    0  0.77144359798E-01  0.45937071452E-01 -0.89585799899E-01  0.12850642577E+00  0.20659601583E-01 0.  0.
         14    1    1    2    0    0  0.20610575850E-01  0.34069933168E-02 -0.98188516218E-02  0.23082748699E-01  0.00000000000E+00 0. -1.
     999901    1    3    3    0    0 -0.97754935648E-01 -0.49344064769E-01  0.99404651521E-01  0.89234082553E+00  0.88000000000E+00 0. -1.
        -11    1    4    4    0    0  0.19997224779E-01  0.97031421919E-02 -0.11011521743E-01  0.24810374833E-01  0.51100000000E-03 0. -1.
         11    1    4    4    0    0  0.57147135019E-01  0.36233929260E-01 -0.78574278156E-01  0.10369605093E+00  0.51100000000E-03 0.  1.
</event>
<event>
 8    1  0.1101883E+005  0.1043930E+01  0.7957747E-01            NaN
         13   -1    0    0    0    0  0.00000000000E+00  0.00000000000E+00  0.74505805969E-08  0.10566000000E+00  0.10566000000E+00 0.  1.
     999900   -1    0    0    0    0 -0.00000000000E+00 -0.00000000000E+00 -0.74505805969E-08  0.93827000000E+00  0.93827000000E+00 0. -1.
     999902    2    1    2    0    0 -0.72023062856E-02 -0.84700750681E-02  0.21252943691E-01  0.10199445252E+01  0.10196624595E+01 0.  0.
     999903    2    3    3    0    0 -0.81869383040E-01  0.98332779134E-01  0.15603923506E-01  0.13033003931E+00  0.19248516459E-01 0.  0.
         14    1    1    2    0    0  0.72023062856E-02  0.84700750681E-02 -0.21252943691E-01  0.23985474835E-01  0.00000000000E+00 0. -1.
     999901    1    3    3    0    0  0.74667076754E-01 -0.10680285420E+00  0.56490201854E-02  0.88961448586E+00  0.88000000000E+00 0.  1.
        -11    1    4    4    0    0 -0.41218229910E-01  0.56399944934E-01  0.17044206848E-01  0.71907317942E-01  0.51100000000E-03 0. -1.
         11    1    4    4    0    0 -0.40651153129E-01  0.41932834200E-01 -0.14402833423E-02  0.58422721367E-01  0.51100000000E-03 0.  1.
</event>
<event>
 8    1  0.1101883E+005  0.1043930E+01  0.7957747E-01            NaN
         13   -1    0    0    0    0  0.00000000000E+00  0.00000000000E+00  0.74505805969E-08  0.10566000000E+00  0.10566000000E+00 0.  1.
     999900   -1    0    0    0    0 -0.00000000000E+00 -0.00000000000E+00 -0.74505805969E-08  0.93827000000E+00  0.93827000000E+00 0.  1.
     999902    2    1    2    0    0  0.46062884438E-02 -0.57498987418E-02  0.22299412679E-01  0.10204450466E+01  0.10201747645E+01 0.  0.
     999903    2    3    3    0    0  0.40379519469E-01 -0.10769519348E+00  0.62563503015E-01  0.13292391215E+00  0.22930639341E-01 0.  0.
         14    1    1    2    0    0 -0.46062884438E-02  0.57498987418E-02 -0.22299412679E-01  0.23484953366E-01  0.00000000000E+00 0. -1.
     999901    1    3    3    0    0 -0.35773231025E-01  0.10194529474E+00 -0.40264090336E-01  0.88752113448E+00  0.88000000000E+00 0.  1.
        -11    1    4    4    0    0 -0.25978910185E-02 -0.13140330074E-01  0.77206774042E-02  0.15468913756E-01  0.51100000000E-03 0. -1.
         11    1    4    4    0    0  0.42977410488E-01 -0.94554863410E-01  0.54842825611E-01  0.11745499840E+00  0.51100000000E-03 0.  1.
</event>
<event>
 8    1  0.1101883E+005  0.1043930E+01  0.7957747E-01            NaN
         13   -1    0    0    0    0  0.00000000000E+00  0.00000000000E+00  0.74505805969E-08  0.10566000000E+00  0.10566000000E+00 0.  1.
     999900   -1    0    0    0    0 -0.00000000000E+00 -0.00000000000E+00 -0.74505805969E-08  0.93827000000E+00  0.93827000000E+00 0.  1.
     999902    2    1    2    0    0  0.15777017190E-01  0.16458460601E-01 -0.73553067011E-02  0.10199738790E+01  0.10196925115E+01 0.  0.
     999903    2    3    3    0    0 -0.10859606871E+00  0.66670303075E-01 -0.10760993224E-01  0.12980451740E+00  0.22257095740E-01 0.  0.
         14    1    1    2    0    0 -0.15777017190E-01 -0.16458460601E-01  0.73553067011E-02  0.23956121001E-01  0.00000000000E+00 0.  1.
     999901    1    3    3    0    0  0.12437308590E+00 -0.50211842474E-01  0.34056865224E-02  0.89016936160E+00  0.88000000000E+00 0. -1.
        -11    1    4    4    0    0 -0.49911859062E-01  0.29361148699E-01  0.61519505219E-02  0.58235541933E-01  0.51100000000E-03 0.  1.
         11    1    4    4    0    0 -0.58684209652E-01  0.37309154376E-01 -0.16912943745E-01  0.71568975470E-01  0.51100000000E-03 0. -1.
</event>
<event>
 8    1  0.1101883E+005  0.1043930E+01  0.7957747E-01            NaN
         13   -1    0    0    0    0  0.00000000000E+00  0.00000000000E+00  0.74505805969E-08  0.10566000000E+00  0.10566000000E+00 0. -1.
     999900   -1    0    0    0    0 -0.00000000000E+00 -0.00000000000E+00 -0.74505805969E-08  0.93827000000E+00  0.93827000000E+00 0. -1.
     999902    2    1    2    0    0 -0.15428374423E-01 -0.12765590102E-01  0.23500977988E-01  0.10130545892E+01  0.10125839766E+01 0.  0.
     999903    2    3    3    0    0 -0.18913387152E-02  0.45032825143E-01  0.11630904697E+00  0.12618523813E+00  0.19062723066E-01 0.  0.
         14    1    1    2    0    0  0.15428374423E-01  0.12765590102E-01 -0.23500977988E-01  0.30875410837E-01  0.00000000000E+00 0.  1.
     999901    1    3    3    0    0 -0.13537035708E-01 -0.57798415245E-01 -0.92808068984E-01  0.88686935104E+00  0.88000000000E+00 0. -1.
        -11    1    4    4    0    0  0.63213317363E-02  0.10593468812E-01  0.43570184874E-01  0.45285791893E-01  0.51100000000E-03 0. -1.
         11    1    4    4    0    0 -0.82126704515E-02  0.34439356331E-01  0.72738862098E-01  0.80899446232E-01  0.51100000000E-03 0.  1.
</event>
<event>
 8    1  0.1101883E+005  0.1043930E+01  0.7957747E-01            NaN
         13   -1    0    0    0    0  0.00000000000E+00  0.00000000000E+00  0.74505805969E-08  0.10566000000E+00  0.10566000000E+00 0. -1.
     999900   -1    0    0    0    0 -0.00000000000E+00 -0.00000000000E+00 -0.74505805969E-08  0.93827000000E+00  0.93827000000E+00 0. -1.
     999902    2    1    2    0    0 -0.16646354778E-01 -0.16624256266E-01  0.62787535631E-02  0.10195806721E+01  0.10192898788E+01 0.  0.
     999903    2    3    3    0    0 -0.89078580986E-01  0.58460061999E-02  0.95065304650E-01  0.13186766004E+00  0.19557562171E-01 0.  0.
         14    1    1    2    0    0  0.16646354778E-01  0.16624256266E-01 -0.62787535631E-02  0.24349327918E-01  0.00000000000E+00 0.  1.
     999901    1    3    3    0    0  0.72432226209E-01 -0.22470262466E-01 -0.88786551086E-01  0.88771301204E+00  0.88000000000E+00 0. -1.
        -11    1    4    4    0    0 -0.81854847627E-01  0.87673767238E-02  0.79456513388E-01  0.11441451663E+00  0.51100000000E-03 0.  1.
         11    1    4    4    0    0 -0.72237333591E-02 -0.29213705239E-02  0.15608791261E-01  0.17453143414E-01  0.51100000000E-03 0. -1.
</event>
<event>
 8    1  0.1101883E+005  0.1043930E+01  0.7957747E-01            NaN
         13   -1    0    0    0    0  0.00000000000E+00  0.00000000000E+00  0.74505805969E-08  0.10566000000E+00  0.10566000000E+00 0. -1.
     999900   -1    0    0    0    0 -0.00000000000E+00 -0.00000000000E+00 -0.74505805969E-08  0.93827000000E+00  0.93827000000E+00 0.  1.
     999902    2    1    2    0    0 -0.15598589791E-01  0.86141873168E-03 -0.10760794969E-01  0.10249602147E+01  0.10247846549E+01 0.  0.
     999903    2    3    3    0    0 -0.80009768400E-01  0.45190819171E-01 -0.99535771204E-01  0.13704417584E+00  0.20735554141E-01 0.  0.
         14    1    1    2    0    0  0.15598589791E-01 -0.86141873168E-03  0.10760794969E-01  0.18969785293E-01  0.00000000000E+00 0. -1.
     999901    1    3    3    0    0  0.64411178609E-01 -0.44329400440E-01  0.88774976235E-01  0.88791603887E+00  0.88000000000E+00 0. -1.
        -11    1    4    4    0    0 -0.51836334556E-01  0.40163065128E-01 -0.69485199822E-01  0.95543348780E-01  0.51100000000E-03 0. -1.
         11    1    4    4    0    0 -0.28173433843E-01  0.50277540432E-02 -0.30050571382E-01  0.41500827060E-01  0.51100000000E-03 0.  1.
</event>
<event>
 8    1  0.1101883E+005  0.1043930E+01  0.7957747E-01            NaN
         13   -1    0    0    0    0  0.00000000000E+00  0.00000000000E+00  0.74505805969E-08  0.10566000000E+00  0.10566000000E+00 0.  1.
     999900   -1    0    0    0    0 -0.00000000000E+00 -0.00000000000E+00 -0.74505805969E-08  0.93827000000E+00  0.93827000000E+00 0.  1.
     999902    2    1    2    0    0  0.16067623109E-01 -0.10633166609E-01 -0.27060183894E-01  0.10107112358E+01  0.10101651923E+01 0.  0.
     999903    2    3    3    0    0  0.39514322266E-01 -0.12988654698E-01  0.11049378700E+00  0.11971382223E+00  0.19809983651E-01 0.  0.
         14    1    1    2    0    0 -0.16067623109E-01  0.10633166609E-01  0.27060183894E-01  0.33218764229E-01  0.00000000000E+00 0.  1.
     999901    1    3    3    0    0 -0.23446699157E-01  0.23554880897E-02 -0.13755397090E+00  0.89099741354E+00  0.88000000000E+00 0.  1.
        -11    1    4    4    0    0  0.45901529827E-02  0.47374980855E-02  0.21166266517E-01  0.22176233940E-01  0.51100000000E-03 0. -1.
         11    1    4    4    0    0  0.34924169284E-01 -0.17726152784E-01  0.89327520485E-01  0.97537588291E-01  0.51100000000E-03 0.  1.
</event>
<event>
 8    1  0.1101883E+005  0.1043930E+01  0.7957747E-01            NaN
         13   -1    0    0    0    0  0.00000000000E+00  0.00000000000E+00  0.74505805969E-08  0.10566000000E+00  0.10566000000E+00 0. -1.
     999900   -1    0    0    0    0 -0.00000000000E+00 -0.00000000000E+00 -0.74505805969E-08  0.93827000000E+00  0.93827000000E+00 0.  1.
     999902    2    1    2    0    0  0.13734504269E-02 -0.25184555366E-01  0.25707523167E-01  0.10079157675E+01  0.10072721427E+01 0.  0.
     999903    2    3    3    0    0  0.79650230364E-01  0.40279508799E-01 -0.72220023578E-01  0.11662310940E+00  0.20460200738E-01 0.  0.
         14    1    1    2    0    0 -0.13734504269E-02  0.25184555366E-01 -0.25707523167E-01  0.36014232499E-01  0.00000000000E+00 0.  1.
     999901    1    3    3    0    0 -0.78276779937E-01 -0.65464064165E-01  0.97927546746E-01  0.89129265810E+00  0.88000000000E+00 0. -1.
        -11    1    4    4    0    0  0.21419160712E-01  0.21577474322E-01 -0.24134142134E-01  0.38821202728E-01  0.51100000000E-03 0.  1.
         11    1    4    4    0    0  0.58231069653E-01  0.18702034477E-01 -0.48085881445E-01  0.77801906672E-01  0.51100000000E-03 0. -1.
</event>
<event>
 8    1  0.1101883E+005  0.1043930E+01  0.7957747E-01            NaN
         13   -1    0    0    0    0  0.00000000000E+00  0.00000000000E+00  0.74505805969E-08  0.10566000000E+00  0.10566000000E+00 0. -1.
     999900   -1    0    0    0    0 -0.00000000000E+00 -0.00000000000E+00 -0.74505805969E-08  0.93827000000E+00  0.93827000000E+00 0.  1.
     999902    2    1    2    0    0  0.64991561724E-03 -0.11109862214E-01 -0.21089458776E-01  0.10200843149E+01  0.10198055661E+01 0.  0.
     999903    2    3    3    0    0 -0.11561160585E+00  0.24031235600E-01  0.48310352370E-01  0.12903551040E+00  0.19306193457E-01 0.  0.
         14    1    1    2    0    0 -0.64991561724E-03  0.11109862214E-01  0.21089458776E-01  0.23845685148E-01  0.00000000000E+00 0. -1.
     999901    1    3    3    0    0  0.11626152147E+00 -0.35141097813E-01 -0.69399811147E-01  0.89104880445E+00  0.88000000000E+00 0.  1.
        -11    1    4    4    0    0 -0.23526973321E-01  0.25379691732E-02  0.20282753071E-02  0.23755731580E-01  0.51100000000E-03 0.  1.
         11    1    4    4    0    0 -0.92084632530E-01  0.21493266426E-01  0.46282077063E-01  0.10527977882E+00  0.51100000000E-03 0. -1.
</event>
<event>
 8    1  0.1101883E+005  0.1043930E+01  0.7957747E-01            NaN
         13   -1    0    0    0    0  0.00000000000E+00  0.00000000000E+00  0.74505805969E-08  0.10566000000E+00  0.10566000000E+00 0. -1.
     999900   -1    0    0    0    0 -0.00000000000E+00 -0.00000000000E+00 -0.74505805969E-08  0.93827000000E+00  0.93827000000E+00 0.  1.
     999902    2    1    2    0    0 -0.16135358192E-01  0.17041626632E-01  0.20684967743E-02  0.10203705963E+01  0.10200985778E+01 0.  0.
     999903    2    3    3    0    0  0.10487751586E+00  0.63562148061E-01 -0.38105488743E-01  0.12996494512E+00  0.19985461947E-01 0.  0.
         14    1    1    2    0    0  0.16135358192E-01 -0.17041626632E-01 -0.20684967743E-02  0.23559403667E-01  0.00000000000E+00 0. -1.
     999901    1    3    3    0    0 -0.12101287405E+00 -0.46520521430E-01  0.40173985517E-01  0.89040565121E+00  0.88000000000E+00 0. -1.
        -11    1    4    4    0    0  0.10150191242E+00  0.64910023606E-01 -0.36064181550E-01  0.12576500189E+00  0.51100000000E-03 0. -1.
         11    1    4    4    0    0  0.33756034402E-02 -0.13478755449E-02 -0.20413071934E-02  0.41999432291E-02  0.51100000000E-03 0.  1.
</event>
<event>
 8    1  0.1101883E+005  0.1043930E+01  0.7957747E-01            NaN
         13   -1    0    0    0    0  0.00000000000E+00  0.00000000000E+00  0.74505805969E-08  0.10566000000E+00  0.10566000000E+00 0. -1.
     999900   -1    0    0    0    0 -0.00000000000E+00 -0.00000000000E+00 -0.74505805969E-08  0.93827000000E+00  0.93827000000E+00 0. -1.
     999902    2    1    2    0    0  0.10521594328E-01 -0.19355967496E-01 -0.74104523208E-02  0.10206862432E+01  0.10204215476E+01 0.  0.
     999903    2    3    3    0    0  0.10722210418E-01 -0.30886946806E-01 -0.12678197957E+00  0.13255192611E+00  0.20673013641E-01 0.  0.
         14    1    1    2    0    0 -0.10521594328E-01  0.19355967496E-01  0.74104523208E-02  0.23243756764E-01  0.00000000000E+00 0. -1.
     999901    1    3    3    0    0 -0.20061609060E-03  0.11530979310E-01  0.11937152725E+00  0.88813431712E+00  0.88000000000E+00 0.  1.
        -11    1    4    4    0    0  0.56375101384E-02 -0.21270980587E-01 -0.45508423502E-01  0.50552090623E-01  0.51100000000E-03 0.  1.
         11    1    4    4    0    0  0.50847002799E-02 -0.96159662188E-02 -0.81273556071E-01  0.81999835492E-01  0.51100000000E-03 0. -1.
</event>
<event>
 8    1  0.1101883E+005  0.1043930E+01  0.7957747E-01            NaN
         13   -1    0    0    0    0  0.00000000000E+00  0.00000000000E+00  0.74505805969E-08  0.10566000000E+00  0.10566000000E+00 0.  1.
     999900   -1    0    0    0    0 -0.00000000000E+00 -0.00000000000E+00 -0.74505805969E-08  0.93827000000E+00  0.93827000000E+00 0.  1.
     999902    2    1    2    0    0 -0.83272559262E-02 -0.10021452668E-01 -0.21984963999E-01  0.10183739567E+01  0.10180532424E+01 0.  0.
     999903    2    3    3    0    0 -0.30809502582E-02 -0.11981250184E+00 -0.49662642692E-01  0.13110418261E+00  0.18905046069E-01 0.  0.
         14    1    1    2    0    0  0.83272559262E-02  0.10021452668E-01  0.21984963999E-01  0.25556043256E-01  0.00000000000E+00 0.  1.
     999901    1    3    3    0    0 -0.52463056680E-02  0.10979104917E+00  0.27677678692E-01  0.88726977414E+00  0.88000000000E+00 0. -1.
        -11    1    4    4    0    0  0.77606891631E-02 -0.52216762935E-01 -0.19272750317E-01  0.56200699760E-01  0.51100000000E-03 0. -1.
         11    1    4    4    0    0 -0.10841639421E-01 -0.67595738902E-01 -0.30389892374E-01  0.74903482847E-01  0.51100000000E-03 0.  1.
</event>
<event>
 8    1  0.1101883E+005  0.1043930E+01  0.7957747E-01            NaN
         13   -1    0    0    0    0  0.00000000000E+00  0.00000000000E+00  0.74505805969E-08  0.10566000000E+00  0.10566000000E+00 0. -1.
     999900   -1    0    0    0    0 -0.00000000000E+00 -0.00000000000E+00 -0.74505805969E-08  0.93827000000E+00  0.93827000000E+00 0. -1.
     999902    2    1    2    0    0 -0.24517279426E-01 -0.25012591666E-02  0.66308305617E-02  0.10184090047E+01  0.10180891806E+01 0.  0.
     999903    2    3    3    0    0 -0.11690955969E+00 -0.44401405859E-01  0.37502184464E-01  0.13204282966E+00  0.19737401966E-01 0.  0.
         14    1    1    2    0    0  0.24517279426E-01  0.25012591666E-02 -0.66308305617E-02  0.25520995313E-01  0.00000000000E+00 0. -1.
     999901    1    3    3    0    0  0.92392280259E-01  0.41900146692E-01 -0.30871353902E-01  0.88636617503E+00  0.88000000000E+00 0. -1.
        -11    1    4    4    0    0 -0.83751427776E-01 -0.34568728315E-01  0.35765699754E-01  0.97410189569E-01  0.51100000000E-03 0.  1.
         11    1    4    4    0    0 -0.33158131909E-01 -0.98326775440E-02  0.17364847092E-02  0.34632640089E-01  0.51100000000E-03 0. -1.
</event>
<event>
 8    1  0.1101883E+005  0.1043930E+01  0.7957747E-01            NaN
         13   -1    0    0    0    0  0.00000000000E+00  0.00000000000E+00  0.74505805969E-08  0.10566000000E+00  0.10566000000E+00 0.  1.
     999900   -1    0    0    0    0 -0.00000000000E+00 -0.00000000000E+00 -0.74505805969E-08  0.93827000000E+00  0.93827000000E+00 0. -1.
     999902    2    1    2    0    0  0.17273796653E-01  0.12633688030E-01  0.90107441397E-02  0.10207095858E+01  0.10204454277E+01 0.  0.
     999903    2    3    3    0    0  0.42331288584E-01 -0.80732065280E-01  0.92596383767E-01  0.13147868166E+00  0.20073591761E-01 0.  0.
         14    1    1    2    0    0 -0.17273796653E-01 -0.12633688030E-01 -0.90107441397E-02  0.23220414165E-01  0.00000000000E+00 0. -1.
     999901    1    3    3    0    0 -0.25057491931E-01  0.93365753310E-01 -0.83585639627E-01  0.88923090418E+00  0.88000000000E+00 0. -1.
        -11    1    4    4    0    0  0.24222007374E-01 -0.53774752570E-01  0.46586265227E-01  0.75159636002E-01  0.51100000000E-03 0. -1.
         11    1    4    4    0    0  0.18109281210E-01 -0.26957312710E-01  0.46010118540E-01  0.56319045656E-01  0.51100000000E-03 0.  1.
</event>
<event>
 8    1  0.1101883E+005  0.1043930E+01  0.7957747E-01            NaN
         13   -1    0    0    0    0  0.00000000000E+00  0.00000000000E+00  0.74505805969E-08  0.10566000000E+00  0.10566000000E+00 0. -1.
     999900   -1    0    0    0    0 -0.00000000000E+00 -0.00000000000E+00 -0.74505805969E-08  0.93827000000E+00  0.93827000000E+00 0. -1.
     999902    2    1    2    0    0  0.92883178021E-02  0.17761319461E-01 -0.12644549357E-01  0.10202314358E+01  0.10199561562E+01 0.  0.
     999903    2    3    3    0    0 -0.53298259803E-02  0.17328456108E-01  0.12619358868E+00  0.12922643802E+00  0.21117954974E-01 0.  0.
         14    1    1    2    0    0 -0.92883178021E-02 -0.17761319461E-01  0.12644549357E-01  0.23698564197E-01  0.00000000000E+00 0.  1.
     999901    1    3    3    0    0  0.14618143782E-01  0.43286335301E-03 -0.13883813804E+00  0.89100499778E+00  0.88000000000E+00 0. -1.
        -11    1    4    4    0    0 -0.58332025937E-02  0.18942788370E-01  0.63844978171E-01  0.66852807288E-01  0.51100000000E-03 0.  1.
         11    1    4    4    0    0  0.50337661339E-03 -0.16143322625E-02  0.62348610514E-01  0.62373630732E-01  0.51100000000E-03 0. -1.
</event>
<event>
 8    1  0.1101883E+005  0.1043930E+01  0.7957747E-01            NaN
         13   -1    0    0    0    0  0.00000000000E+00  0.00000000000E+00  0.74505805969E-08  0.10566000000E+00  0.10566000000E+00 0. -1.
     999900   -1    0    0    0    0 -0.00000000000E+00 -0.00000000000E+00 -0.74505805969E-08  0.93827000000E+00  0.93827000000E+00 0.  1.
     999902    2    1    2    0    0  0.66977850923E-02  0.15447014296E-01  0.15102314440E-01  0.10213125183E+01  0.10210620498E+01 0.  0.
     999903    2    3    3    0    0  0.19740368380E-01  0.12765915204E+00 -0.25975457221E-01  0.13314076908E+00  0.19110174534E-01 0.  0.
         14    1    1    2    0    0 -0.66977850923E-02 -0.15447014296E-01 -0.15102314440E-01  0.22617481673E-01  0.00000000000E+00 0.  1.
     999901    1    3    3    0    0 -0.13042583287E-01 -0.11221213774E+00  0.41077771661E-01  0.88817174925E+00  0.88000000000E+00 0. -1.
        -11    1    4    4    0    0  0.17519859019E-01  0.52231410192E-01 -0.96410944782E-02  0.55931006557E-01  0.51100000000E-03 0. -1.
         11    1    4    4    0    0  0.22205093603E-02  0.75427741845E-01 -0.16334362743E-01  0.77209762524E-01  0.51100000000E-03 0.  1.
</event>
<event>
 8    1  0.1101883E+005  0.1043930E+01  0.7957747E-01            NaN
         13   -1    0    0    0    0  0.00000000000E+00  0.00000000000E+00  0.74505805969E-08  0.10566000000E+00  0.10566000000E+00 0. -1.
     999900   -1    0    0    0    0 -0.00000000000E+00 -0.00000000000E+00 -0.74505805969E-08  0.93827000000E+00  0.93827000000E+00 0. -1.
     999902    2    1    2    0    0 -0.34811346972E-02 -0.52951974407E-04 -0.23295036599E-01  0.10203762353E+01  0.10201043484E+01 0.  0.
     999903    2    3    3    0    0  0.10142077295E+00 -0.44900181952E-01 -0.68506455301E-01  0.13186075615E+00  0.19797097486E-01 0.  0.
         14    1    1    2    0    0  0.34811346972E-02  0.52951974407E-04  0.23295036599E-01  0.23553764727E-01  0.00000000000E+00 0. -1.
     999901    1    3    3    0    0 -0.10490190765E+00  0.44847229977E-01  0.45211418702E-01  0.88851547913E+00  0.88000000000E+00 0.  1.
        -11    1    4    4    0    0  0.87181939658E-01 -0.40851829023E-01 -0.51082995301E-01  0.10899218351E+00  0.51100000000E-03 0.  1.
         11    1    4    4    0    0  0.14238833291E-01 -0.40483529290E-02 -0.17423460001E-01  0.22868572634E-01  0.51100000000E-03 0. -1.
</event>
<event>
 8    1  0.1101883E+005  0.1043930E+01  0.7957747E-01            NaN
         13   -1    0    0    0    0  0.00000000000E+00  0.00000000000E+00  0.74505805969E-08  0.10566000000E+00  0.10566000000E+00 0.  1.
     999900   -1    0    0    0    0 -0.00000000000E+00 -0.00000000000E+00 -0.74505805969E-08  0.93827000000E+00  0.93827000000E+00 0. -1.
     999902    2    1    2    0    0 -0.90651456150E-02 -0.22791879771E-01 -0.36520600894E-03  0.10193987949E+01  0.10191035880E+01 0.  0.
     999903    2    3    3    0    0  0.83404799073E-01  0.70795237728E-01 -0.62031541584E-01  0.12748401411E+00  0.20879068698E-01 0.  0.
         14    1    1    2    0    0  0.90651456150E-02  0.22791879771E-01  0.36520600894E-03  0.24531205106E-01  0.00000000000E+00 0.  1.
     999901    1    3    3    0    0 -0.92469944689E-01 -0.93587117499E-01  0.61666335575E-01  0.89191478078E+00  0.88000000000E+00 0.  1.
        -11    1    4    4    0    0  0.52615988148E-01  0.56170160570E-01 -0.38475366786E-01  0.86047336493E-01  0.51100000000E-03 0.  1.
         11    1    4    4    0    0  0.30788810925E-01  0.14625077158E-01 -0.23556174797E-01  0.41436677620E-01  0.51100000000E-03 0. -1.
</event>
<event>
 8    1  0.1101883E+005  0.1043930E+01  0.7957747E-01            NaN
         13   -1    0    0    0    0  0.00000000000E+00  0.00000000000E+00  0.74505805969E-08  0.10566000000E+00  0.10566000000E+00 0.  1.
     999900   -1    0    0    0    0 -0.00000000000E+00 -0.00000000000E+00 -0.74505805969E-08  0.93827000000E+00  0.93827000000E+00 0. -1.
     999902    2    1    2    0    0 -0.45939545617E-02 -0.22897037209E-01 -0.11239955130E-02  0.10205496215E+01  0.10202817689E+01 0.  0.
     999903    2    3    3    0    0  0.88754238241E-01  0.76473355943E-01 -0.49647758198E-01  0.12872961969E+00  0.19517328629E-01 0.  0.
         14    1    1    2    0    0  0.45939545617E-02  0.22897037209E-01  0.11239955130E-02  0.23380378470E-01  0.00000000000E+00 0. -1.
     999901    1    3    3    0    0 -0.93348192803E-01 -0.99370393152E-01  0.48523762685E-01  0.89182000184E+00  0.88000000000E+00 0.  1.
        -11    1    4    4    0    0  0.43630819725E-01  0.31700042004E-01 -0.32180560639E-01  0.62804384377E-01  0.51100000000E-03 0.  1.
         11    1    4    4    0    0  0.45123418516E-01  0.44773313939E-01 -0.17467197559E-01  0.65925235314E-01  0.51100000000E-03 0. -1.
</event>
<event>
 8    1  0.1101883E+005  0.1043930E+01  0.7957747E-01            NaN
         13   -1    0    0    0    0  0.00000000000E+00  0.00000000000E+00  0.74505805969E-08  0.10566000000E+00  0.10566000000E+00 0.  1.
     999900   -1    0    0    0    0 -0.00000000000E+00 -0.00000000000E+00 -0.74505805969E-08  0.93827000000E+00  0.93827000000E+00 0. -1.
     999902    2    1    2    0    0 -0.79045410715E-02  0.20175479726E-01  0.11638351360E-01  0.10193335984E+01  0.10190368010E+01 0.  0.
     999903    2    3    3    0    0  0.95343859343E-01 -0.33322964972E-02 -0.82835137961E-01  0.12796493841E+00  0.20293094096E-01 0.  0.
         14    1    1    2    0    0  0.79045410715E-02 -0.20175479726E-01 -0.11638351360E-01  0.24596401650E-01  0.00000000000E+00 0. -1.
     999901    1    3    3    0    0 -0.10324840041E+00  0.23507776224E-01  0.94473489322E-01  0.89136865994E+00  0.88000000000E+00 0.  1.
        -11    1    4    4    0    0  0.50291904566E-01 -0.83905713467E-02 -0.53813606665E-01  0.74133951303E-01  0.51100000000E-03 0. -1.
         11    1    4    4    0    0  0.45051954777E-01  0.50582748494E-02 -0.29021531296E-01  0.53830987111E-01  0.51100000000E-03 0.  1.
</event>
<event>
 8    1  0.1101883E+005  0.1043930E+01  0.7957747E-01            NaN
         13   -1    0    0    0    0  0.00000000000E+00  0.00000000000E+00  0.74505805969E-08  0.10566000000E+00  0.10566000000E+00 0. -1.
     999900   -1    0    0    0    0 -0.00000000000E+00 -0.00000000000E+00 -0.74505805969E-08  0.93827000000E+00  0.93827000000E+00 0.  1.
     999902    2    1    2    0    0  0.92362925575E-02 -0.79742120208E-02  0.20201749040E-01  0.10203289868E+01  0.10200559953E+01 0.  0.
     999903    2    3    3    0    0  0.11707733129E+00 -0.59644722873E-02  0.59708797566E-01  0.13286375622E+00  0.18573119807E-01 0.  0.
         14    1    1    2    0    0 -0.92362925575E-02  0.79742120208E-02 -0.20201749040E-01  0.23601013153E-01  0.00000000000E+00 0.  1.
     999901    1    3    3    0    0 -0.10784103873E+00 -0.20097397335E-02 -0.39507048525E-01  0.88746523063E+00  0.88000000000E+00 0.  1.
        -11    1    4    4    0    0  0.50329356516E-01  0.60300634262E-02  0.29176248793E-01  0.58488634852E-01  0.51100000000E-03 0. -1.
         11    1    4    4    0    0  0.66747974771E-01 -0.11994535714E-01  0.30532548773E-01  0.74375121368E-01  0.51100000000E-03 0.  1.
</event>
<event>
 8    1  0.1101883E+005  0.1043930E+01  0.7957747E-01            NaN
         13   -1    0    0    0    0  0.00000000000E+00  0.00000000000E+00  0.74505805969E-08  0.10566000000E+00  0.10566000000E+00 0.  1.
     999900   -1    0    0    0    0 -0.00000000000E+00 -0.00000000000E+00 -0.74505805969E-08  0.93827000000E+00  0.93827000000E+00 0.  1.
     999902    2    1    2    0    0  0.43957834586E-03  0.49115653598E-02  0.23415965864E-01  0.10200004333E+01  0.10197196967E+01 0.  0.
     999903    2    3    3    0    0  0.69130264062E-02 -0.78528925924E-01 -0.98420693657E-01  0.12767291907E+00  0.19978968501E-01 0.  0.
         14    1    1    2    0    0 -0.43957834586E-03 -0.49115653598E-02 -0.23415965864E-01  0.23929566665E-01  0.00000000000E+00 0. -1.
     999901    1    3    3    0    0 -0.64734480604E-02  0.83440491284E-01  0.12183665952E+00  0.89232751427E+00  0.88000000000E+00 0. -1.
        -11    1    4    4    0    0  0.10051010238E-01 -0.62742635545E-01 -0.66850384819E-01  0.92232836850E-01  0.51100000000E-03 0.  1.
         11    1    4    4    0    0 -0.31379838320E-02 -0.15786290380E-01 -0.31570308838E-01  0.35440082218E-01  0.51100000000E-03 0. -1.
</event>
<event>
 8    1  0.1101883E+005  0.1043930E+01  0.7957747E-01            NaN
         13   -1    0    0    0    0  0.00000000000E+00  0.00000000000E+00  0.74505805969E-08  0.10566000000E+00  0.10566000000E+00 0.  1.
     999900   -1    0    0    0    0 -0.00000000000E+00 -0.00000000000E+00 -0.74505805969E-08  0.93827000000E+00  0.93827000000E+00 0.  1.
     999902    2    1    2    0    0  0.20260229344E-01  0.86426239465E-02 -0.94936509534E-02  0.10199445617E+01  0.10196624970E+01 0.  0.
     999903    2    3    3    0    0  0.13186453377E-01  0.10057147625E+00  0.79844225401E-01  0.13062897748E+00  0.20008124347E-01 0.  0.
         14    1    1    2    0    0 -0.20260229344E-01 -0.86426239465E-02  0.94936509534E-02  0.23985438294E-01  0.00000000000E+00 0.  1.
     999901    1    3    3    0    0  0.70737759667E-02 -0.91928852305E-01 -0.89337876355E-01  0.88931558422E+00  0.88000000000E+00 0.  1.
        -11    1    4    4    0    0  0.11571727168E-01  0.23097914433E-01  0.21836522401E-01  0.33830656990E-01  0.51100000000E-03 0. -1.
         11    1    4    4    0    0  0.16147262083E-02  0.77473561819E-01  0.58007703000E-01  0.96798320492E-01  0.51100000000E-03 0.  1.
</event>
<event>
 8    1  0.1101883E+005  0.1043930E+01  0.7957747E-01            NaN
         13   -1    0    0    0    0  0.00000000000E+00  0.00000000000E+00  0.74505805969E-08  0.10566000000E+00  0.10566000000E+00 0. -1.
     999900   -1    0    0    0    0 -0.00000000000E+00 -0.00000000000E+00 -0.74505805969E-08  0.93827000000E+00  0.93827000000E+00 0.  1.
     999902    2    1    2    0    0 -0.13102433816E-01  0.18929114023E-01  0.48540131501E-02  0.10204024295E+01  0.10201311541E+01 0.  0.
     999903    2    3    3    0    0 -0.12217293887E+00  0.18627613162E-01  0.44391891105E-01  0.13278781169E+00  0.19716692750E-01 0.  0.
         14    1    1    2    0    0  0.13102433816E-01 -0.18929114023E-01 -0.48540131501E-02  0.23527570492E-01  0.00000000000E+00 0.  1.
     999901    1    3    3    0    0  0.10907050505E+00  0.30150086158E-03 -0.39537877955E-01  0.88761461782E+00  0.88000000000E+00 0.  1.
        -11    1    4    4    0    0 -0.63683313782E-01  0.10873151792E-02  0.27883203436E-01  0.69530431204E-01  0.51100000000E-03 0.  1.
         11    1    4    4    0    0 -0.58489625086E-01  0.17540297983E-01  0.16508687669E-01  0.63257380483E-01  0.51100000000E-03 0. -1.
</event>
<event>
 8    1  0.1101883E+005  0.1043930E+01  0.7957747E-01            NaN
         13   -1    0    0    0    0  0.00000000000E+00  0.00000000000E+00  0.74505805969E-08  0.10566000000E+00  0.10566000000E+00 0. -1.
     999900   -1    0    0    0    0 -0.00000000000E+00 -0.00000000000E+00 -0.74505805969E-08  0.93827000000E+00  0.93827000000E+00 0. -1.
     999902    2    1    2    0    0  0.16850603077E-01  0.17911255025E-01  0.12560715903E-01  0.10163161002E+01  0.10159408880E+01 0.  0.
     999903    2    3    3    0    0 -0.11062310987E+00  0.41061316984E-01 -0.37703523896E-01  0.12541096117E+00  0.19566534690E-01 0.  0.
         14    1    1    2    0    0 -0.16850603077E-01 -0.17911255025E-01 -0.12560715903E-01  0.27613899844E-01  0.00000000000E+00 0.  1.
     999901    1    3    3    0    0  0.12747371294E+00 -0.23150061959E-01  0.50264239799E-01  0.89090513898E+00  0.88000000000E+00 0.  1.
        -11    1    4    4    0    0 -0.44582113074E-01  0.21810547959E-01 -0.24548863575E-01  0.55373031634E-01  0.51100000000E-03 0. -1.
         11    1    4    4    0    0 -0.66040996792E-01  0.19250769025E-01 -0.13154660321E-01  0.70037929541E-01  0.51100000000E-03 0.  1.
</event>
<event>
 8    1  0.1101883E+005  0.1043930E+01  0.7957747E-01            NaN
         13   -1    0    0    0    0  0.00000000000E+00  0.00000000000E+00  0.74505805969E-08  0.10566000000E+00  0.10566000000E+00 0.  1.
     999900   -1    0    0    0    0 -0.00000000000E+00 -0.00000000000E+00 -0.74505805969E-08  0.93827000000E+00  0.93827000000E+00 0.  1.
     999902    2    1    2    0    0 -0.16963921563E-01 -0.11424702129E-01  0.13483782625E-01  0.10194328400E+01  0.10191384619E+01 0.  0.
     999903    2    3    3    0    0  0.98468723535E-01 -0.65516178537E-01  0.48835267661E-01  0.12954503199E+00  0.20213183354E-01 0.  0.
         14    1    1    2    0    0  0.16963921563E-01  0.11424702129E-01 -0.13483782625E-01  0.24497159986E-01  0.00000000000E+00 0. -1.
     999901    1    3    3    0    0 -0.11543264510E+00  0.54091476408E-01 -0.35351485036E-01  0.88988780802E+00  0.88000000000E+00 0.  1.
        -11    1    4    4    0    0  0.58383756286E-01 -0.27031899801E-01  0.28512198346E-01  0.70374662915E-01  0.51100000000E-03 0.  1.
         11    1    4    4    0    0  0.40084967249E-01 -0.38484278735E-01  0.20323069315E-01  0.59170369075E-01  0.51100000000E-03 0. -1.
</event>
<event>
 8    1  0.1101883E+005  0.1043930E+01  0.7957747E-01            NaN
         13   -1    0    0    0    0  0.00000000000E+00  0.00000000000E+00  0.74505805969E-08  0.10566000000E+00  0.10566000000E+00 0. -1.
     999900   -1    0    0    0    0 -0.00000000000E+00 -0.00000000000E+00 -0.74505805969E-08  0.93827000000E+00  0.93827000000E+00 0. -1.
     999902    2    1    2    0    0 -0.20906445577E-01  0.10083863347E-01 -0.73606554950E-02  0.10195795787E+01  0.10192887591E+01 0.  0.
     999903    2    3    3    0    0 -0.48275871404E-01  0.32118347774E-01  0.11510901483E+00  0.13040387949E+00  0.19822675562E-01 0.  0.
         14    1    1    2    0    0  0.20906445577E-01 -0.10083863347E-01  0.73606554950E-02  0.24350421270E-01  0.00000000000E+00 0. -1.
     999901    1    3    3    0    0  0.27369425826E-01 -0.22034484426E-01 -0.12246967033E+00  0.88917569924E+00  0.88000000000E+00 0. -1.
        -11    1    4    4    0    0 -0.39314889323E-01  0.33318335259E-01  0.89992025139E-01  0.10370437646E+00  0.51100000000E-03 0.  1.
         11    1    4    4    0    0 -0.89609820809E-02 -0.11999874856E-02  0.25116989693E-01  0.26699503030E-01  0.51100000000E-03 0. -1.
</event>
<event>
 8    1  0.1101883E+005  0.1043930E+01  0.7957747E-01            NaN
         13   -1    0    0    0    0  0.00000000000E+00  0.00000000000E+00  0.74505805969E-08  0.10566000000E+00  0.10566000000E+00 0. -1.
     999900   -1    0    0    0    0 -0.00000000000E+00 -0.00000000000E+00 -0.74505805969E-08  0.93827000000E+00  0.93827000000E+00 0.  1.
     999902    2    1    2    0    0 -0.79963534598E-02 -0.42202216223E-02 -0.23798691930E-01  0.10184716089E+01  0.10181533718E+01 0.  0.
     999903    2    3    3    0    0 -0.12844542405E-01  0.79421679389E-01 -0.99956141254E-01  0.13121773903E+00  0.27460506808E-01 0.  0.
         14    1    1    2    0    0  0.79963534598E-02  0.42202216223E-02  0.23798691930E-01  0.25458391087E-01  0.00000000000E+00 0. -1.
     999901    1    3    3    0    0  0.48481889456E-02 -0.83641901011E-01  0.76157449325E-01  0.88725386989E+00  0.88000000000E+00 0. -1.
        -11    1    4    4    0    0 -0.16594964199E-01  0.45254551823E-01 -0.42505382075E-01  0.64267689579E-01  0.51100000000E-03 0. -1.
         11    1    4    4    0    0  0.37504217940E-02  0.34167127566E-01 -0.57450759179E-01  0.66950049447E-01  0.51100000000E-03 0.  1.
</event>
<event>
 8    1  0.1101883E+005  0.1043930E+01  0.7957747E-01            NaN
         13   -1    0    0    0    0  0.00000000000E+00  0.00000000000E+00  0.74505805969E-08  0.10566000000E+00  0.10566000000E+00 0.  1.
     999900   -1    0    0    0    0 -0.00000000000E+00 -0.00000000000E+00 -0.74505805969E-08  0.93827000000E+00  0.93827000000E+00 0. -1.
     999902    2    1    2    0    0 -0.20705612248E-01  0.43862769284E-02  0.80836759676E-02  0.10212737068E+01  0.10210223683E+01 0.  0.
     999903    2    3    3    0    0 -0.10426862610E+00  0.25203819458E-01 -0.77141723862E-01  0.13297222863E+00  0.14952896788E-01 0.  0.
         14    1    1    2    0    0  0.20705612248E-01 -0.43862769284E-02 -0.80836759676E-02  0.22656293188E-01  0.00000000000E+00 0. -1.
     999901    1    3    3    0    0  0.83563013855E-01 -0.20817542530E-01  0.85225399829E-01  0.88830147818E+00  0.88000000000E+00 0.  1.
        -11    1    4    4    0    0 -0.52539307668E-01  0.12962405679E-01 -0.48060068410E-01  0.72377027486E-01  0.51100000000E-03 0. -1.
         11    1    4    4    0    0 -0.51729318435E-01  0.12241413779E-01 -0.29081655452E-01  0.60595201145E-01  0.51100000000E-03 0.  1.
</event>
<event>
 8    1  0.1101883E+005  0.1043930E+01  0.7957747E-01            NaN
         13   -1    0    0    0    0  0.00000000000E+00  0.00000000000E+00  0.74505805969E-08  0.10566000000E+00  0.10566000000E+00 0.  1.
     999900   -1    0    0    0    0 -0.00000000000E+00 -0.00000000000E+00 -0.74505805969E-08  0.93827000000E+00  0.93827000000E+00 0.  1.
     999902    2    1    2    0    0  0.10323610656E-01 -0.15034492252E-01 -0.14630485230E-01  0.10205491533E+01  0.10202812898E+01 0.  0.
     999903    2    3    3    0    0  0.92456708279E-01  0.74737721083E-01 -0.52117077013E-01  0.13138654693E+00  0.20304313297E-01 0.  0.
         14    1    1    2    0    0 -0.10323610656E-01  0.15034492252E-01  0.14630485230E-01  0.23380846698E-01  0.00000000000E+00 0.  1.
     999901    1    3    3    0    0 -0.82133097624E-01 -0.89772213334E-01  0.37486591783E-01  0.88916260638E+00  0.88000000000E+00 0. -1.
        -11    1    4    4    0    0  0.19683990747E-01  0.69832189540E-02 -0.12543030176E-01  0.24368290167E-01  0.51100000000E-03 0.  1.
         11    1    4    4    0    0  0.72772717533E-01  0.67754502129E-01 -0.39574046837E-01  0.10701825676E+00  0.51100000000E-03 0. -1.
</event>
<event>
 8    1  0.1101883E+005  0.1043930E+01  0.7957747E-01            NaN
         13   -1    0    0    0    0  0.00000000000E+00  0.00000000000E+00  0.74505805969E-08  0.10566000000E+00  0.10566000000E+00 0.  1.
     999900   -1    0    0    0    0 -0.00000000000E+00 -0.00000000000E+00 -0.74505805969E-08  0.93827000000E+00  0.93827000000E+00 0. -1.
     999902    2    1    2    0    0 -0.15274386091E-01  0.32573822055E-03 -0.18196082121E-01  0.10201705728E+01  0.10198938608E+01 0.  0.
     999903    2    3    3    0    0  0.21944174121E-01 -0.40607678389E-01  0.11770803958E+00  0.12802109200E+00  0.20091965838E-01 0.  0.
         14    1    1    2    0    0  0.15274386091E-01 -0.32573822055E-03  0.18196082121E-01  0.23759427190E-01  0.00000000000E+00 0. -1.
     999901    1    3    3    0    0 -0.37218560212E-01  0.40933416610E-01 -0.13590412171E+00  0.89214948081E+00  0.88000000000E+00 0. -1.
        -11    1    4    4    0    0  0.20356196618E-01 -0.20697439487E-01  0.54803289118E-01  0.62019515971E-01  0.51100000000E-03 0. -1.
         11    1    4    4    0    0  0.15879775025E-02 -0.19910238902E-01  0.62904750466E-01  0.66001576026E-01  0.51100000000E-03 0.  1.
</event>
<event>
 8    1  0.1101883E+005  0.1043930E+01  0.7957747E-01            NaN
         13   -1    0    0    0    0  0.00000000000E+00  0.00000000000E+00  0.74505805969E-08  0.10566000000E+00  0.10566000000E+00 0.  1.
     999900   -1    0    0    0    0 -0.00000000000E+00 -0.00000000000E+00 -0.74505805969E-08  0.93827000000E+00  0.93827000000E+00 0. -1.
     999902    2    1    2    0    0 -0.72637275219E-02 -0.22267342690E-01 -0.66973646240E-05  0.10205078666E+01  0.10202390453E+01 0.  0.
     999903    2    3    3    0    0  0.25448322056E-01  0.16207156222E-01 -0.12515966351E+00  0.13021935708E+00  0.19540997438E-01 0.  0.
         14    1    1    2    0    0  0.72637275219E-02  0.22267342690E-01  0.66973646240E-05  0.23422133396E-01  0.00000000000E+00 0.  1.
     999901    1    3    3    0    0 -0.32712049578E-01 -0.38474498912E-01  0.12515296614E+00  0.89028850952E+00  0.88000000000E+00 0.  1.
        -11    1    4    4    0    0  0.19379208687E-01  0.83327733110E-03 -0.68769782288E-01  0.71454825990E-01  0.51100000000E-03 0. -1.
         11    1    4    4    0    0  0.60691133696E-02  0.15373878891E-01 -0.56389881220E-01  0.58764531091E-01  0.51100000000E-03 0.  1.
</event>
<event>
 8    1  0.1101883E+005  0.1043930E+01  0.7957747E-01            NaN
         13   -1    0    0    0    0  0.00000000000E+00  0.00000000000E+00  0.74505805969E-08  0.10566000000E+00  0.10566000000E+00 0. -1.
     999900   -1    0    0    0    0 -0.00000000000E+00 -0.00000000000E+00 -0.74505805969E-08  0.93827000000E+00  0.93827000000E+00 0.  1.
     999902    2    1    2    0    0  0.11905936058E-01 -0.17556450148E-01 -0.11113958840E-01  0.10199821329E+01  0.10197009617E+01 0.  0.
     999903    2    3    3    0    0  0.11135144396E+00 -0.67200389311E-01  0.18269698818E-01  0.13250406050E+00  0.17564388918E-01 0.  0.
         14    1    1    2    0    0 -0.11905936058E-01  0.17556450148E-01  0.11113958840E-01  0.23947867051E-01  0.00000000000E+00 0.  1.
     999901    1    3    3    0    0 -0.99445507906E-01  0.49643939163E-01 -0.29383657658E-01  0.88747807245E+00  0.88000000000E+00 0. -1.
        -11    1    4    4    0    0  0.28622720822E-01 -0.19616664882E-01  0.12518569440E-01  0.36892402879E-01  0.51100000000E-03 0. -1.
         11    1    4    4    0    0  0.82728723142E-01 -0.47583724429E-01  0.57511293780E-02  0.95611657622E-01  0.51100000000E-03 0.  1.
</event>
<event>
 8    1  0.1101883E+005  0.1043930E+01  0.7957747E-01            NaN
         13   -1    0    0    0    0  0.00000000000E+00  0.00000000000E+00  0.74505805969E-08  0.10566000000E+00  0.10566000000E+00 0.  1.
     999900   -1    0    0    0    0 -0.00000000000E+00 -0.00000000000E+00 -0.74505805969E-08  0.93827000000E+00  0.93827000000E+00 0.  1.
     999902    2    1    2    0    0  0.21608709102E-01 -0.28526563297E-02 -0.64863610784E-02  0.10211891373E+01  0.10209358977E+01 0.  0.
     999903    2    3    3    0    0 -0.20326117109E-01  0.80974154688E-02 -0.12825030127E+00  0.13174836306E+00  0.20755052803E-01 0.  0.
         14    1    1    2    0    0 -0.21608709102E-01  0.28526563297E-02  0.64863610784E-02  0.22740862720E-01  0.00000000000E+00 0.  1.
     999901    1    3    3    0    0  0.41934826211E-01 -0.10950071799E-01  0.12176394020E+00  0.88944077422E+00  0.88000000000E+00 0. -1.
        -11    1    4    4    0    0 -0.13484046692E-01 -0.56673130197E-02 -0.56160285833E-01  0.58035995537E-01  0.51100000000E-03 0. -1.
         11    1    4    4    0    0 -0.68420704170E-02  0.13764728489E-01 -0.72090015441E-01  0.73712367519E-01  0.51100000000E-03 0.  1.
</event>
<event>
 8    1  0.1101883E+005  0.1043930E+01  0.7957747E-01            NaN
         13   -1    0    0    0    0  0.00000000000E+00  0.00000000000E+00  0.74505805969E-08  0.10566000000E+00  0.10566000000E+00 0.  1.
     999900   -1    0    0    0    0 -0.00000000000E+00 -0.00000000000E+00 -0.74505805969E-08  0.93827000000E+00  0.93827000000E+00 0. -1.
     999902    2    1    2    0    0 -0.11065190336E-01 -0.22608220547E-01  0.57219290206E-02  0.10181170082E+01  0.10177897287E+01 0.  0.
     999903    2    3    3    0    0 -0.12024824962E+00  0.27420381433E-01  0.34212817370E-01  0.12950261930E+00  0.19720362067E-01 0.  0.
         14    1    1    2    0    0  0.11065190336E-01  0.22608220547E-01 -0.57219290206E-02  0.25812991791E-01  0.00000000000E+00 0.  1.
     999901    1    3    3    0    0  0.10918305928E+00 -0.50028601980E-01 -0.28490888350E-01  0.88861438891E+00  0.88000000000E+00 0.  1.
        -11    1    4    4    0    0 -0.86712508515E-02 -0.20771076487E-02 -0.61040802837E-03  0.89520213625E-02  0.51100000000E-03 0.  1.
         11    1    4    4    0    0 -0.11157699877E+00  0.29497489082E-01  0.34823225399E-01  0.12055059794E+00  0.51100000000E-03 0. -1.
</event>
<event>
 8    1  0.1101883E+005  0.1043930E+01  0.7957747E-01            NaN
         13   -1    0    0    0    0  0.00000000000E+00  0.00000000000E+00  0.74505805969E-08  0.10566000000E+00  0.10566000000E+00 0. -1.
     999900   -1    0    0    0    0 -0.00000000000E+00 -0.00000000000E+00 -0.74505805969E-08  0.93827000000E+00  0.93827000000E+00 0.  1.
     999902    2    1    2    0    0 -0.87869914228E-03 -0.16808276996E-01 -0.17567647009E-01  0.10196007479E+01  0.10193104397E+01 0.  0.
     999903    2    3    3    0    0 -0.19206224480E-01  0.12347805353E+00  0.13898162545E-01  0.12774523833E+00  0.22582697646E-01 0.  0.
         14    1    1    2    0    0  0.87869914228E-03  0.16808276996E-01  0.17567647009E-01  0.24329252130E-01  0.00000000000E+00 0. -1.
     999901    1    3    3    0    0  0.18327525337E-01 -0.14028633053E+00 -0.31465809554E-01  0.89185550954E+00  0.88000000000E+00 0.  1.
        -11    1    4    4    0    0 -0.19466134836E-01  0.93625912765E-01  0.21332342134E-02  0.95653299764E-01  0.51100000000E-03 0. -1.
         11    1    4    4    0    0  0.25991035621E-03  0.29852140764E-01  0.11764928331E-01  0.32091938571E-01  0.51100000000E-03 0.  1.
</event>
<event>
 8    1  0.1101883E+005  0.1043930E+01  0.7957747E-01            NaN
         13   -1    0    0    0    0  0.00000000000E+00  0.00000000000E+00  0.74505805969E-08  0.10566000000E+00  0.10566000000E+00 0.  1.
     999900   -1    0    0    0    0 -0.00000000000E+00 -0.00000000000E+00 -0.74505805969E-08  0.93827000000E+00  0.93827000000E+00 0. -1.
     999902    2    1    2    0    0  0.10742240140E-01  0.19859896818E-01  0.24859376771E-02  0.10212145623E+01  0.10209618950E+01 0.  0.
     999903    2    3    3    0    0 -0.64861166254E-01 -0.36647360981E-01  0.10487174050E+00  0.13026462100E+00  0.20513156101E-01 0.  0.
         14    1    1    2    0    0 -0.10742240140E-01 -0.19859896818E-01 -0.24859376771E-02  0.22715437724E-01  0.00000000000E+00 0.  1.
     999901    1    3    3    0    0  0.75603406394E-01  0.56507257799E-01 -0.10238580283E+00  0.89094994128E+00  0.88000000000E+00 0. -1.
        -11    1    4    4    0    0 -0.40568881144E-01 -0.18122462630E-01  0.46123695373E-01  0.64046187747E-01  0.51100000000E-03 0.  1.
         11    1    4    4    0    0 -0.24292285110E-01 -0.18524898351E-01  0.58748045129E-01  0.66218433252E-01  0.51100000000E-03 0. -1.
</event>
<event>
 8    1  0.1101883E+005  0.1043930E+01  0.7957747E-01            NaN
         13   -1    0    0    0    0  0.00000000000E+00  0.00000000000E+00  0.74505805969E-08  0.10566000000E+00  0.10566000000E+00 0.  1.
     999900   -1    0    0    0    0 -0.00000000000E+00 -0.00000000000E+00 -0.74505805969E-08  0.93827000000E+00  0.93827000000E+00 0.  1.
     999902    2    1    2    0    0 -0.19612030631E-01 -0.70587674593E-02 -0.12236074342E-01  0.10197601953E+01  0.10194737253E+01 0.  0.
     999903    2    3    3    0    0 -0.11630808059E-01  0.14754487770E-01  0.12560429388E+00  0.12872737598E+00  0.21007809976E-01 0.  0.
         14    1    1    2    0    0  0.19612030631E-01  0.70587674593E-02  0.12236074342E-01  0.24169804692E-01  0.00000000000E+00 0. -1.
     999901    1    3    3    0    0 -0.79812225726E-02 -0.21813255230E-01 -0.13784036822E+00  0.89103281933E+00  0.88000000000E+00 0.  1.
        -11    1    4    4    0    0  0.41305794976E-02  0.80686164169E-02  0.68812211477E-01  0.69408542898E-01  0.51100000000E-03 0.  1.
         11    1    4    4    0    0 -0.15761387556E-01  0.66858713536E-02  0.56792082400E-01  0.59318833078E-01  0.51100000000E-03 0. -1.
</event>
<event>
 8    1  0.1101883E+005  0.1043930E+01  0.7957747E-01            NaN
         13   -1    0    0    0    0  0.00000000000E+00  0.00000000000E+00  0.74505805969E-08  0.10566000000E+00  0.10566000000E+00 0.  1.
     999900   -1    0    0    0    0 -0.00000000000E+00 -0.00000000000E+00 -0.74505805969E-08  0.93827000000E+00  0.93827000000E+00 0. -1.
     999902    2    1    2    0    0  0.65615260904E-02  0.74543282710E-02  0.21479877236E-01  0.10202655592E+01  0.10199910811E+01 0.  0.
     999903    2    3    3    0    0 -0.77695788502E-01 -0.40006684484E-01  0.96755440081E-01  0.13177343586E+00  0.19116821339E-01 0.  0.
         14    1    1    2    0    0 -0.65615260904E-02 -0.74543282710E-02 -0.21479877236E-01  0.23664440848E-01  0.00000000000E+00 0. -1.
     999901    1    3    3    0    0  0.84257314592E-01  0.47461012755E-01 -0.75275562846E-01  0.88849212329E+00  0.88000000000E+00 0.  1.
        -11    1    4    4    0    0 -0.38329827876E-01 -0.14829321251E-01  0.57861580069E-01  0.70973995539E-01  0.51100000000E-03 0.  1.
         11    1    4    4    0    0 -0.39365960625E-01 -0.25177363233E-01  0.38893860013E-01  0.60799440318E-01  0.51100000000E-03 0. -1.
</event>
<event>
 8    1  0.1101883E+005  0.1043930E+01  0.7957747E-01            NaN
         13   -1    0    0    0    0  0.00000000000E+00  0.00000000000E+00  0.74505805969E-08  0.10566000000E+00  0.10566000000E+00 0.  1.
     999900   -1    0    0    0    0 -0.00000000000E+00 -0.00000000000E+00 -0.74505805969E-08  0.93827000000E+00  0.93827000000E+00 0.  1.
     999902    2    1    2    0    0  0.78146522281E-02 -0.21069707785E-01 -0.77511534790E-02  0.10201585517E+01  0.10198815563E+01 0.  0.
     999903    2    3    3    0    0 -0.81922920037E-01  0.41511495124E-01 -0.88870370084E-01  0.12968139523E+00  0.22017096433E-01 0.  0.
         14    1    1    2    0    0 -0.78146522281E-02  0.21069707785E-01  0.77511534790E-02  0.23771448333E-01  0.00000000000E+00 0.  1.
     999901    1    3    3    0    0  0.89737572265E-01 -0.62581202908E-01  0.81119216605E-01  0.89047715644E+00  0.88000000000E+00 0. -1.
        -11    1    4    4    0    0 -0.55598061233E-01  0.33200606858E-01 -0.49107628234E-01  0.81272658259E-01  0.51100000000E-03 0.  1.
         11    1    4    4    0    0 -0.26324858803E-01  0.83108882653E-02 -0.39762741850E-01  0.48408736972E-01  0.51100000000E-03 0. -1.
</event>
<event>
 8    1  0.1101883E+005  0.1043930E+01  0.7957747E-01            NaN
         13   -1    0    0    0    0  0.00000000000E+00  0.00000000000E+00  0.74505805969E-08  0.10566000000E+00  0.10566000000E+00 0.  1.
     999900   -1    0    0    0    0 -0.00000000000E+00 -0.00000000000E+00 -0.74505805969E-08  0.93827000000E+00  0.93827000000E+00 0.  1.
     999902    2    1    2    0    0 -0.17790302374E-01 -0.52961316651E-02 -0.68132748806E-02  0.10241571756E+01  0.10239662865E+01 0.  0.
     999903    2    3    3    0    0 -0.40964016166E-01 -0.95101212503E-01  0.83502133751E-01  0.13468607065E+00  0.21105450607E-01 0.  0.
         14    1    1    2    0    0  0.17790302374E-01  0.52961316651E-02  0.68132748806E-02  0.19772824375E-01  0.00000000000E+00 0.  1.
     999901    1    3    3    0    0  0.23173713792E-01  0.89805080838E-01 -0.90315408631E-01  0.88947110498E+00  0.88000000000E+00 0.  1.
        -11    1    4    4    0    0 -0.12335980534E-01 -0.24412804504E-01  0.34512983331E-01  0.44040533363E-01  0.51100000000E-03 0.  1.
         11    1    4    4    0    0 -0.28628035632E-01 -0.70688407999E-01  0.48989150420E-01  0.90645537283E-01  0.51100000000E-03 0. -1.
</event>
<event>
 8    1  0.1101883E+005  0.1043930E+01  0.7957747E-01            NaN
         13   -1    0    0    0    0  0.00000000000E+00  0.00000000000E+00  0.74505805969E-08  0.10566000000E+00  0.10566000000E+00 0. -1.
     999900   -1    0    0    0    0 -0.00000000000E+00 -0.00000000000E+00 -0.74505805969E-08  0.93827000000E+00  0.93827000000E+00 0.  1.
     999902    2    1    2    0    0 -0.20641450554E-01 -0.98434329725E-02 -0.75929546814E-02  0.10198340332E+01  0.10195493317E+01 0.  0.
     999903    2    3    3    0    0  0.11969539253E+00 -0.19602788635E-01 -0.36061492752E-01  0.12820623409E+00  0.20619187305E-01 0.  0.
         14    1    1    2    0    0  0.20641450554E-01  0.98434329725E-02  0.75929546814E-02  0.24095966767E-01  0.00000000000E+00 0. -1.
     999901    1    3    3    0    0 -0.14033684308E+00  0.97593556621E-02  0.28468538071E-01  0.89162779915E+00  0.88000000000E+00 0. -1.
        -11    1    4    4    0    0  0.27859813503E-01 -0.62802767427E-02  0.22862612867E-03  0.28564391737E-01  0.51100000000E-03 0. -1.
         11    1    4    4    0    0  0.91835579023E-01 -0.13322511892E-01 -0.36290118881E-01  0.99641842350E-01  0.51100000000E-03 0.  1.
</event>
<event>
 8    1  0.1101883E+005  0.1043930E+01  0.7957747E-01            NaN
         13   -1    0    0    0    0  0.00000000000E+00  0.00000000000E+00  0.74505805969E-08  0.10566000000E+00  0.10566000000E+00 0. -1.
     999900   -1    0    0    0    0 -0.00000000000E+00 -0.00000000000E+00 -0.74505805969E-08  0.93827000000E+00  0.93827000000E+00 0.  1.
     999902    2    1    2    0    0  0.31173157584E-01  0.36966894407E-02  0.17512187797E-02  0.10124896114E+01  0.10120013415E+01 0.  0.
     999903    2    3    3    0    0 -0.56215006600E-01  0.30538514676E-01 -0.10271807475E+00  0.12160745978E+00  0.12026784619E-01 0.  0.
         14    1    1    2    0    0 -0.31173157584E-01 -0.36966894407E-02 -0.17512187797E-02  0.31440388575E-01  0.00000000000E+00 0. -1.
     999901    1    3    3    0    0  0.87388164183E-01 -0.26841825235E-01  0.10446929353E+00  0.89088215164E+00  0.88000000000E+00 0.  1.
        -11    1    4    4    0    0 -0.87376617204E-02  0.83094095332E-03 -0.10293974335E-01  0.13537511729E-01  0.51100000000E-03 0. -1.
         11    1    4    4    0    0 -0.47477344880E-01  0.29707573723E-01 -0.92424100418E-01  0.10806994805E+00  0.51100000000E-03 0.  1.
</event>
<event>
 8    1  0.1101883E+005  0.1043930E+01  0.7957747E-01            NaN
         13   -1    0    0    0    0  0.00000000000E+00  0.00000000000E+00  0.74505805969E-08  0.10566000000E+00  0.10566000000E+00 0.  1.
     999900   -1    0    0    0    0 -0.00000000000E+00 -0.00000000000E+00 -0.74505805969E-08  0.93827000000E+00  0.93827000000E+00 0.  1.
     999902    2    1    2    0    0  0.83515894450E-02 -0.17599420838E-01  0.13386511653E-01  0.10202934318E+01  0.10200196075E+01 0.  0.
     999903    2    3    3    0    0  0.53304126302E-01 -0.11895781738E+00  0.19262694315E-01  0.13331610144E+00  0.20244488478E-01 0.  0.
         14    1    1    2    0    0 -0.83515894450E-02  0.17599420838E-01 -0.13386511653E-01  0.23636568159E-01  0.00000000000E+00 0.  1.
     999901    1    3    3    0    0 -0.44952536857E-01  0.10135839655E+00 -0.58761826619E-02  0.88697733040E+00  0.88000000000E+00 0.  1.
        -11    1    4    4    0    0  0.28721963289E-01 -0.84070632811E-01  0.81739295519E-02  0.89218253299E-01  0.51100000000E-03 0.  1.
         11    1    4    4    0    0  0.24582163013E-01 -0.34887184573E-01  0.11088764763E-01  0.44097848142E-01  0.51100000000E-03 0. -1.
</event>
<event>
 8    1  0.1101883E+005  0.1043930E+01  0.7957747E-01            NaN
         13   -1    0    0    0    0  0.00000000000E+00  0.00000000000E+00  0.74505805969E-08  0.10566000000E+00  0.10566000000E+00 0.  1.
     999900   -1    0    0    0    0 -0.00000000000E+00 -0.00000000000E+00 -0.74505805969E-08  0.93827000000E+00  0.93827000000E+00 0.  1.
     999902    2    1    2    0    0 -0.23224987523E-01  0.20260501711E-02  0.67020108657E-02  0.10196725914E+01  0.10193840158E+01 0.  0.
     999903    2    3    3    0    0 -0.16408093020E-01 -0.11213675797E+00 -0.60155097285E-01  0.12975715170E+00  0.19349539620E-01 0.  0.
         14    1    1    2    0    0  0.23224987523E-01 -0.20260501711E-02 -0.67020108657E-02  0.24257408650E-01  0.00000000000E+00 0. -1.
     999901    1    3    3    0    0 -0.68168945033E-02  0.11416280814E+00  0.66857108151E-01  0.88991543965E+00  0.88000000000E+00 0. -1.
        -11    1    4    4    0    0 -0.31480974055E-02 -0.50229241771E-01 -0.16955456059E-01  0.53109658795E-01  0.51100000000E-03 0.  1.
         11    1    4    4    0    0 -0.13259995615E-01 -0.61907516200E-01 -0.43199641227E-01  0.76647492907E-01  0.51100000000E-03 0. -1.
</event>
<event>
 8    1  0.1101883E+005  0.1043930E+01  0.7957747E-01            NaN
         13   -1    0    0    0    0  0.00000000000E+00  0.00000000000E+00  0.74505805969E-08  0.10566000000E+00  0.10566000000E+00 0.  1.
     999900   -1    0    0    0    0 -0.00000000000E+00 -0.00000000000E+00 -0.74505805969E-08  0.93827000000E+00  0.93827000000E+00 0. -1.
     999902    2    1    2    0    0 -0.66896476799E-02 -0.20949255851E-01 -0.10967161345E-01  0.10193555959E+01  0.10190593357E+01 0.  0.
     999903    2    3    3    0    0 -0.91850680245E-01  0.69396845864E-01  0.53607121307E-01  0.12829742863E+00  0.18276680761E-01 0.  0.
         14    1    1    2    0    0  0.66896476799E-02  0.20949255851E-01  0.10967161345E-01  0.24574404057E-01  0.00000000000E+00 0. -1.
     999901    1    3    3    0    0  0.85161032566E-01 -0.90346101715E-01 -0.64574282652E-01  0.89105816732E+00  0.88000000000E+00 0.  1.
        -11    1    4    4    0    0 -0.26044451451E-01  0.11035740575E-01  0.90916804114E-02  0.29715665820E-01  0.51100000000E-03 0.  1.
         11    1    4    4    0    0 -0.65806228794E-01  0.58361105288E-01  0.44515440896E-01  0.98581762805E-01  0.51100000000E-03 0. -1.
</event>
<event>
 8    1  0.1101883E+005  0.1043930E+01  0.7957747E-01            NaN
         13   -1    0    0    0    0  0.00000000000E+00  0.00000000000E+00  0.74505805969E-08  0.10566000000E+00  0.10566000000E+00 0.  1.
     999900   -1    0    0    0    0 -0.00000000000E+00 -0.00000000000E+00 -0.74505805969E-08  0.93827000000E+00  0.93827000000E+00 0.  1.
     999902    2    1    2    0    0  0.24828211292E-01 -0.46826820790E-02 -0.68276604921E-02  0.10177577908E+01  0.10174212187E+01 0.  0.
     999903    2    3    3    0    0  0.22564056578E-02  0.62881937807E-01 -0.11058332423E+00  0.12880351635E+00  0.20061025861E-01 0.  0.
         14    1    1    2    0    0 -0.24828211292E-01  0.46826820790E-02  0.68276604921E-02  0.26172209216E-01  0.00000000000E+00 0. -1.
     999901    1    3    3    0    0  0.22571805634E-01 -0.67564619886E-01  0.10375566374E+00  0.88895427443E+00  0.88000000000E+00 0. -1.
        -11    1    4    4    0    0 -0.68924108361E-02  0.15123726310E-01 -0.37482121018E-01  0.41004913628E-01  0.51100000000E-03 0.  1.
         11    1    4    4    0    0  0.91488164939E-02  0.47758211497E-01 -0.73101203212E-01  0.87798602726E-01  0.51100000000E-03 0. -1.
</event>
<event>
 8    1  0.1101883E+005  0.1043930E+01  0.7957747E-01            NaN
         13   -1    0    0    0    0  0.00000000000E+00  0.00000000000E+00  0.74505805969E-08  0.10566000000E+00  0.10566000000E+00 0.  1.
     999900   -1    0    0    0    0 -0.00000000000E+00 -0.00000000000E+00 -0.74505805969E-08  0.93827000000E+00  0.93827000000E+00 0.  1.
     999902    2    1    2    0    0  0.40161559689E-02  0.24176338356E-01 -0.47066150063E-02  0.10189744982E+01  0.10186688623E+01 0.  0.
     999903    2    3    3    0    0  0.62697415512E-02 -0.42967880897E-01  0.11846803892E+00  0.12785979167E+00  0.20685783382E-01 0.  0.
         14    1    1    2    0    0 -0.40161559689E-02 -0.24176338356E-01  0.47066150063E-02  0.24955501796E-01  0.00000000000E+00 0.  1.
     999901    1    3    3    0    0 -0.22535855823E-02  0.67144219252E-01 -0.12317465392E+00  0.89111470653E+00  0.88000000000E+00 0.  1.
        -11    1    4    4    0    0  0.76540332226E-02 -0.37709993890E-02  0.27432608903E-01  0.28733496363E-01  0.51100000000E-03 0. -1.
         11    1    4    4    0    0 -0.13842916714E-02 -0.39196881507E-01  0.91035430013E-01  0.99126295311E-01  0.51100000000E-03 0.  1.
</event>
<event>
 8    1  0.1101883E+005  0.1043930E+01  0.7957747E-01            NaN
         13   -1    0    0    0    0  0.00000000000E+00  0.00000000000E+00  0.74505805969E-08  0.10566000000E+00  0.10566000000E+00 0.  1.
     999900   -1    0    0    0    0 -0.00000000000E+00 -0.00000000000E+00 -0.74505805969E-08  0.93827000000E+00  0.93827000000E+00 0.  1.
     999902    2    1    2    0    0 -0.56317513699E-02 -0.49271395292E-02 -0.18936773907E-01  0.10235684005E+01  0.10233658563E+01 0.  0.
     999903    2    3    3    0    0  0.51751758723E-01  0.12050409890E+00 -0.19456160497E-02  0.13266180483E+00  0.19896900669E-01 0.  0.
         14    1    1    2    0    0  0.56317513699E-02  0.49271395292E-02  0.18936773907E-01  0.20361599481E-01  0.00000000000E+00 0.  1.
     999901    1    3    3    0    0 -0.57383510093E-01 -0.12543123843E+00 -0.16991157857E-01  0.89090659569E+00  0.88000000000E+00 0.  1.
        -11    1    4    4    0    0  0.52827562405E-01  0.10951578961E+00 -0.20056176166E-02  0.12160897642E+00  0.51100000000E-03 0.  1.
         11    1    4    4    0    0 -0.10758036817E-02  0.10988309287E-01  0.60001566878E-04  0.11052828404E-01  0.51100000000E-03 0. -1.
</event>
<event>
 8    1  0.1101883E+005  0.1043930E+01  0.7957747E-01            NaN
         13   -1    0    0    0    0  0.00000000000E+00  0.00000000000E+00  0.74505805969E-08  0.10566000000E+00  0.10566000000E+00 0. -1.
     999900   -1    0    0    0    0 -0.00000000000E+00 -0.00000000000E+00 -0.74505805969E-08  0.93827000000E+00  0.93827000000E+00 0.  1.
     999902    2    1    2    0    0 -0.15926575694E-01 -0.11882783582E-01  0.11627252731E-01  0.10209071990E+01  0.10206475688E+01 0.  0.
     999903    2    3    3    0    0 -0.44249972355E-02 -0.11187386298E+00 -0.66180838591E-01  0.13175895416E+00  0.21099212913E-01 0.  0.
         14    1    1    2    0    0  0.15926575694E-01  0.11882783582E-01 -0.11627252731E-01  0.23022800982E-01  0.00000000000E+00 0.  1.
     999901    1    3    3    0    0 -0.11501578458E-01  0.99991079396E-01  0.77808091322E-01  0.88914824486E+00  0.88000000000E+00 0. -1.
        -11    1    4    4    0    0  0.76283083217E-02 -0.49321934401E-01 -0.24224906389E-01  0.55479289032E-01  0.51100000000E-03 0.  1.
         11    1    4    4    0    0 -0.12053305557E-01 -0.62551928577E-01 -0.41955932203E-01  0.76279665125E-01  0.51100000000E-03 0. -1.
</event>
<event>
 8    1  0.1101883E+005  0.1043930E+01  0.7957747E-01            NaN
         13   -1    0    0    0    0  0.00000000000E+00  0.00000000000E+00  0.74505805969E-08  0.10566000000E+00  0.10566000000E+00 0. -1.
     999900   -1    0    0    0    0 -0.00000000000E+00 -0.00000000000E+00 -0.74505805969E-08  0.93827000000E+00  0.93827000000E+00 0. -1.
     999902    2    1    2    0    0 -0.25906338504E-03 -0.18164622224E-01  0.13549030662E-01  0.10212673248E+01  0.10210158431E+01 0.  0.
     999903    2    3    3    0    0 -0.11881500917E+00 -0.20766136109E-02 -0.50911684382E-01  0.13083511511E+00  0.20112409372E-01 0.  0.
         14    1    1    2    0    0  0.25906338504E-03  0.18164622224E-01 -0.13549030662E-01  0.22662675178E-01  0.00000000000E+00 0.  1.
     999901    1    3    3    0    0  0.11855594579E+00 -0.16088008613E-01  0.64460715043E-01  0.89043220971E+00  0.88000000000E+00 0.  1.
        -11    1    4    4    0    0 -0.43282854519E-01  0.83768135569E-02 -0.15224574896E-01  0.46643598729E-01  0.51100000000E-03 0.  1.
         11    1    4    4    0    0 -0.75532154656E-01 -0.10453427168E-01 -0.35687109486E-01  0.84191516384E-01  0.51100000000E-03 0. -1.
</event>
<event>
 8    1  0.1101883E+005  0.1043930E+01  0.7957747E-01            NaN
         13   -1    0    0    0    0  0.00000000000E+00  0.00000000000E+00  0.74505805969E-08  0.10566000000E+00  0.10566000000E+00 0. -1.
     999900   -1    0    0    0    0 -0.00000000000E+00 -0.00000000000E+00 -0.74505805969E-08  0.93827000000E+00  0.93827000000E+00 0.  1.
     999902    2    1    2    0    0  0.12925557253E-01 -0.19702867914E-01 -0.13582979477E-02  0.10203266526E+01  0.10200536065E+01 0.  0.
     999903    2    3    3    0    0  0.22344772794E-03 -0.10912634815E+00  0.72699725555E-01  0.13260907746E+00  0.19781494867E-01 0.  0.
         14    1    1    2    0    0 -0.12925557253E-01  0.19702867914E-01  0.13582979477E-02  0.23603347383E-01  0.00000000000E+00 0.  1.
     999901    1    3    3    0    0  0.12702109525E-01  0.89423480234E-01 -0.74058023502E-01  0.88771757516E+00  0.88000000000E+00 0.  1.
        -11    1    4    4    0    0  0.10983133877E-02 -0.25404154955E-01  0.75807907284E-02  0.26538780875E-01  0.51100000000E-03 0.  1.
         11    1    4    4    0    0 -0.87486565973E-03 -0.83722193193E-01  0.65118934826E-01  0.10607029658E+00  0.51100000000E-03 0. -1.
</event>
<event>
 8    1  0.1101883E+005  0.1043930E+01  0.7957747E-01            NaN
         13   -1    0    0    0    0  0.00000000000E+00  0.00000000000E+00  0.74505805969E-08  0.10566000000E+00  0.10566000000E+00 0.  1.
     999900   -1    0    0    0    0 -0.00000000000E+00 -0.00000000000E+00 -0.74505805969E-08  0.93827000000E+00  0.93827000000E+00 0.  1.
     999902    2    1    2    0    0  0.84342726193E-02 -0.54690880489E-02 -0.18956615304E-01  0.10224730398E+01  0.10222478740E+01 0.  0.
     999903    2    3    3    0    0  0.80433182962E-01 -0.92283013888E-01 -0.52620523339E-01  0.13463647850E+00  0.19297934959E-01 0.  0.
         14    1    1    2    0    0 -0.84342726193E-02  0.54690880489E-02  0.18956615304E-01  0.21456960234E-01  0.00000000000E+00 0.  1.
     999901    1    3    3    0    0 -0.71998910343E-01  0.86813925839E-01  0.33663908035E-01  0.88783656126E+00  0.88000000000E+00 0. -1.
        -11    1    4    4    0    0  0.27763176490E-01 -0.20881930531E-01 -0.20090831631E-01  0.40134170331E-01  0.51100000000E-03 0.  1.
         11    1    4    4    0    0  0.52670006472E-01 -0.71401083357E-01 -0.32529691708E-01  0.94502308172E-01  0.51100000000E-03 0. -1.
</event>
<event>
 8    1  0.1101883E+005  0.1043930E+01  0.7957747E-01            NaN
         13   -1    0    0    0    0  0.00000000000E+00  0.00000000000E+00  0.74505805969E-08  0.10566000000E+00  0.10566000000E+00 0. -1.
     999900   -1    0    0    0    0 -0.00000000000E+00 -0.00000000000E+00 -0.74505805969E-08  0.93827000000E+00  0.93827000000E+00 0. -1.
     999902    2    1    2    0    0 -0.38288343581E-02 -0.14564741215E-01  0.13832756411E-01  0.10234816062E+01  0.10232773140E+01 0.  0.
     999903    2    3    3    0    0  0.10394844048E+00 -0.62002481095E-01  0.55581307780E-01  0.13465697688E+00  0.19840204309E-01 0.  0.
         14    1    1    2    0    0  0.38288343581E-02  0.14564741215E-01 -0.13832756411E-01  0.20448393803E-01  0.00000000000E+00 0.  1.
     999901    1    3    3    0    0 -0.10777727484E+00  0.47437739879E-01 -0.41748551369E-01  0.88882462932E+00  0.88000000000E+00 0.  1.
        -11    1    4    4    0    0  0.27253950704E-01 -0.26790222997E-01  0.18880191014E-01  0.42628823710E-01  0.51100000000E-03 0.  1.
         11    1    4    4    0    0  0.76694489781E-01 -0.35212258098E-01  0.36701116765E-01  0.92028153171E-01  0.51100000000E-03 0. -1.
</event>
<event>
 8    1  0.1101883E+005  0.1043930E+01  0.7957747E-01            NaN
         13   -1    0    0    0    0  0.00000000000E+00  0.00000000000E+00  0.74505805969E-08  0.10566000000E+00  0.10566000000E+00 0.  1.
     999900   -1    0    0    0    0 -0.00000000000E+00 -0.00000000000E+00 -0.74505805969E-08  0.93827000000E+00  0.93827000000E+00 0.  1.
     999902    2    1    2    0    0  0.12215037949E-01  0.14522781465E-01  0.12937898405E-01  0.10209624675E+01  0.10207040965E+01 0.  0.
     999903    2    3    3    0    0 -0.15544242235E-01  0.12708664240E+00  0.31551814768E-01  0.13316312176E+00  0.18554294330E-01 0.  0.
         14    1    1    2    0    0 -0.12215037949E-01 -0.14522781465E-01 -0.12937898405E-01  0.22967532491E-01  0.00000000000E+00 0. -1.
     999901    1    3    3    0    0  0.27759280184E-01 -0.11256386094E+00 -0.18613916363E-01  0.88779934575E+00  0.88000000000E+00 0. -1.
        -11    1    4    4    0    0 -0.14178537411E-01  0.43302430011E-01  0.10461163780E-01  0.46752844156E-01  0.51100000000E-03 0.  1.
         11    1    4    4    0    0 -0.13657048236E-02  0.83784212393E-01  0.21090650988E-01  0.86410277607E-01  0.51100000000E-03 0. -1.
</event>
<event>
 8    1  0.1101883E+005  0.1043930E+01  0.7957747E-01            NaN
         13   -1    0    0    0    0  0.00000000000E+00  0.00000000000E+00  0.74505805969E-08  0.10566000000E+00  0.10566000000E+00 0.  1.
     999900   -1    0    0    0    0 -0.00000000000E+00 -0.00000000000E+00 -0.74505805969E-08  0.93827000000E+00  0.93827000000E+00 0.  1.
     999902    2    1    2    0    0 -0.17343187342E-01  0.11194405788E-01  0.96853253735E-02  0.10211285440E+01  0.10208739378E+01 0.  0.
     999903    2    3    3    0    0  0.79892683548E-01  0.77475806331E-01  0.66716849311E-01  0.13146533055E+00  0.21134183284E-01 0.  0.
         14    1    1    2    0    0  0.17343187342E-01 -0.11194405788E-01 -0.96853253735E-02  0.22801456000E-01  0.00000000000E+00 0. -1.
     999901    1    3    3    0    0 -0.97235870890E-01 -0.66281400543E-01 -0.57031523937E-01  0.88966321345E+00  0.88000000000E+00 0. -1.
        -11    1    4    4    0    0  0.19112418333E-01  0.22945149834E-01  0.80973783549E-02  0.30945001093E-01  0.51100000000E-03 0.  1.
         11    1    4    4    0    0  0.60780265216E-01  0.54530656497E-01  0.58619470956E-01  0.10052032946E+00  0.51100000000E-03 0. -1.
</event>
<event>
 8    1  0.1101883E+005  0.1043930E+01  0.7957747E-01            NaN
         13   -1    0    0    0    0  0.00000000000E+00  0.00000000000E+00  0.74505805969E-08  0.10566000000E+00  0.10566000000E+00 0.  1.
     999900   -1    0    0    0    0 -0.00000000000E+00 -0.00000000000E+00 -0.74505805969E-08  0.93827000000E+00  0.93827000000E+00 0.  1.
     999902    2    1    2    0    0  0.12961274050E-01  0.17762921735E-01  0.83795346552E-02  0.10203984762E+01  0.10201271085E+01 0.  0.
     999903    2    3    3    0    0 -0.66718152065E-01  0.67189669044E-01 -0.87343728162E-01  0.13025536556E+00  0.19281337247E-01 0.  0.
         14    1    1    2    0    0 -0.12961274050E-01 -0.17762921735E-01 -0.83795346552E-02  0.23531523848E-01  0.00000000000E+00 0. -1.
     999901    1    3    3    0    0  0.79679426114E-01 -0.49426747309E-01  0.95723262817E-01  0.89014311060E+00  0.88000000000E+00 0. -1.
        -11    1    4    4    0    0 -0.20174242261E-01  0.30273630485E-01 -0.25039999520E-01  0.44167357296E-01  0.51100000000E-03 0.  1.
         11    1    4    4    0    0 -0.46543909803E-01  0.36916038559E-01 -0.62303728642E-01  0.86088008261E-01  0.51100000000E-03 0. -1.
</event>
<event>
 8    1  0.1101883E+005  0.1043930E+01  0.7957747E-01            NaN
         13   -1    0    0    0    0  0.00000000000E+00  0.00000000000E+00  0.74505805969E-08  0.10566000000E+00  0.10566000000E+00 0. -1.
     999900   -1    0    0    0    0 -0.00000000000E+00 -0.00000000000E+00 -0.74505805969E-08  0.93827000000E+00  0.93827000000E+00 0. -1.
     999902    2    1    2    0    0  0.17403261123E-01  0.35735102120E-02  0.15362212046E-01  0.10204429603E+01  0.10201726296E+01 0.  0.
     999903    2    3    3    0    0  0.63003008494E-01 -0.66492712631E-02 -0.11182575653E+00  0.13007190198E+00  0.20002699151E-01 0.  0.
         14    1    1    2    0    0 -0.17403261123E-01 -0.35735102120E-02 -0.15362212046E-01  0.23487039658E-01  0.00000000000E+00 0.  1.
     999901    1    3    3    0    0 -0.45599747370E-01  0.10222781475E-01  0.12718796858E+00  0.89037105836E+00  0.88000000000E+00 0.  1.
        -11    1    4    4    0    0  0.54393338161E-01  0.11685123229E-02 -0.97059032777E-01  0.11126867314E+00  0.51100000000E-03 0. -1.
         11    1    4    4    0    0  0.86096703322E-02 -0.78177835859E-02 -0.14766723752E-01  0.18803228840E-01  0.51100000000E-03 0.  1.
</event>
<event>
 8    1  0.1101883E+005  0.1043930E+01  0.7957747E-01            NaN
         13   -1    0    0    0    0  0.00000000000E+00  0.00000000000E+00  0.74505805969E-08  0.10566000000E+00  0.10566000000E+00 0. -1.
     999900   -1    0    0    0    0 -0.00000000000E+00 -0.00000000000E+00 -0.74505805969E-08  0.93827000000E+00  0.93827000000E+00 0. -1.
     999902    2    1    2    0    0  0.19109702773E-01  0.11541088672E-01 -0.45618041248E-02  0.10211443132E+01  0.10208900630E+01 0.  0.
     999903    2    3    3    0    0 -0.74714992677E-01  0.83890099320E-01 -0.64734970506E-01  0.13116776135E+00  0.19861679618E-01 0.  0.
         14    1    1    2    0    0 -0.19109702773E-01 -0.11541088672E-01  0.45618041248E-02  0.22785686838E-01  0.00000000000E+00 0.  1.
     999901    1    3    3    0    0  0.93824695450E-01 -0.72349010648E-01  0.60173166381E-01  0.88997655181E+00  0.88000000000E+00 0.  1.
        -11    1    4    4    0    0 -0.62772871187E-01  0.79320155968E-01 -0.55440896863E-01  0.11535195996E+00  0.51100000000E-03 0.  1.
         11    1    4    4    0    0 -0.11942121490E-01  0.45699433517E-02 -0.92940736429E-02  0.15815801396E-01  0.51100000000E-03 0. -1.
</event>
<event>
 8    1  0.1101883E+005  0.1043930E+01  0.7957747E-01            NaN
         13   -1    0    0    0    0  0.00000000000E+00  0.00000000000E+00  0.74505805969E-08  0.10566000000E+00  0.10566000000E+00 0.  1.
     999900   -1    0    0    0    0 -0.00000000000E+00 -0.00000000000E+00 -0.74505805969E-08  0.93827000000E+00  0.93827000000E+00 0.  1.
     999902    2    1    2    0    0  0.84373904704E-03 -0.20200153822E-01 -0.10817328170E-01  0.10210002661E+01  0.10207427544E+01 0.  0.
     999903    2    3    3    0    0  0.72512307344E-01 -0.21482090489E-01  0.10480882304E+00  0.13054676705E+00  0.18386246848E-01 0.  0.
         14    1    1    2    0    0 -0.84373904704E-03  0.20200153822E-01  0.10817328170E-01  0.22929733944E-01  0.00000000000E+00 0. -1.
     999901    1    3    3    0    0 -0.71668568297E-01  0.12819366665E-02 -0.11562615121E+00  0.89045349900E+00  0.88000000000E+00 0.  1.
        -11    1    4    4    0    0  0.25375087869E-01 -0.83044229883E-02  0.52544227611E-01  0.58940779616E-01  0.51100000000E-03 0.  1.
         11    1    4    4    0    0  0.47137219476E-01 -0.13177667500E-01  0.52264595427E-01  0.71605987437E-01  0.51100000000E-03 0. -1.
</event>
<event>
 8    1  0.1101883E+005  0.1043930E+01  0.7957747E-01            NaN
         13   -1    0    0    0    0  0.00000000000E+00  0.00000000000E+00  0.74505805969E-08  0.10566000000E+00  0.10566000000E+00 0. -1.
     999900   -1    0    0    0    0 -0.00000000000E+00 -0.00000000000E+00 -0.74505805969E-08  0.93827000000E+00  0.93827000000E+00 0. -1.
     999902    2    1    2    0    0  0.14526229081E-01  0.19372214033E-01 -0.17525849886E-02  0.10196531476E+01  0.10193641037E+01 0.  0.
     999903    2    3    3    0    0 -0.24524385483E-01 -0.87886045591E-01 -0.87704808092E-01  0.12812801088E+00  0.19981274180E-01 0.  0.
         14    1    1    2    0    0 -0.14526229081E-01 -0.19372214033E-01  0.17525849886E-02  0.24276852391E-01  0.00000000000E+00 0.  1.
     999901    1    3    3    0    0  0.39050614563E-01  0.10725825962E+00  0.85952223103E-01  0.89152513672E+00  0.88000000000E+00 0.  1.
        -11    1    4    4    0    0 -0.19015242614E-01 -0.70761958454E-01 -0.58230586296E-01  0.93594318830E-01  0.51100000000E-03 0.  1.
         11    1    4    4    0    0 -0.55091428689E-02 -0.17124087137E-01 -0.29474221796E-01  0.34533692054E-01  0.51100000000E-03 0. -1.
</event>
<event>
 8    1  0.1101883E+005  0.1043930E+01  0.7957747E-01            NaN
         13   -1    0    0    0    0  0.00000000000E+00  0.00000000000E+00  0.74505805969E-08  0.10566000000E+00  0.10566000000E+00 0.  1.
     999900   -1    0    0    0    0 -0.00000000000E+00 -0.00000000000E+00 -0.74505805969E-08  0.93827000000E+00  0.93827000000E+00 0.  1.
     999902    2    1    2    0    0  0.18770576461E-01  0.77233449316E-02  0.13019424374E-01  0.10198158961E+01  0.10195307606E+01 0.  0.
     999903    2    3    3    0    0  0.42566740622E-01  0.12176047335E+00  0.20457891976E-01  0.13210757973E+00  0.19908465550E-01 0.  0.
         14    1    1    2    0    0 -0.18770576461E-01 -0.77233449316E-02 -0.13019424374E-01  0.24114103936E-01  0.00000000000E+00 0. -1.
     999901    1    3    3    0    0 -0.23796164161E-01 -0.11403712842E+00 -0.74384676025E-02  0.88770831633E+00  0.88000000000E+00 0. -1.
        -11    1    4    4    0    0  0.16309581401E-01  0.65038798775E-01  0.18545852390E-01  0.69571959534E-01  0.51100000000E-03 0. -1.
         11    1    4    4    0    0  0.26257159221E-01  0.56721674575E-01  0.19120395860E-02  0.62535620197E-01  0.51100000000E-03 0.  1.
</event>
<event>
 8    1  0.1101883E+005  0.1043930E+01  0.7957747E-01            NaN
         13   -1    0    0    0    0  0.00000000000E+00  0.00000000000E+00  0.74505805969E-08  0.10566000000E+00  0.10566000000E+00 0.  1.
     999900   -1    0    0    0    0 -0.00000000000E+00 -0.00000000000E+00 -0.74505805969E-08  0.93827000000E+00  0.93827000000E+00 0.  1.
     999902    2    1    2    0    0 -0.22020257603E-01 -0.40731779952E-02  0.20273802000E-02  0.10214446093E+01  0.10211970902E+01 0.  0.
     999903    2    3    3    0    0  0.98523622809E-01  0.80338942100E-01 -0.13564722681E-01  0.12908854428E+00  0.17849389192E-01 0.  0.
         14    1    1    2    0    0  0.22020257603E-01  0.40731779952E-02 -0.20273802000E-02  0.22485390687E-01  0.00000000000E+00 0.  1.
     999901    1    3    3    0    0 -0.12054388041E+00 -0.84412120095E-01  0.15592102881E-01  0.89235606503E+00  0.88000000000E+00 0.  1.
        -11    1    4    4    0    0  0.43542167732E-01  0.25490976571E-01 -0.93091103520E-02  0.51309169881E-01  0.51100000000E-03 0.  1.
         11    1    4    4    0    0  0.54981455077E-01  0.54847965528E-01 -0.42556123287E-02  0.77779374401E-01  0.51100000000E-03 0. -1.
</event>
<event>
 8    1  0.1101883E+005  0.1043930E+01  0.7957747E-01            NaN
         13   -1    0    0    0    0  0.00000000000E+00  0.00000000000E+00  0.74505805969E-08  0.10566000000E+00  0.10566000000E+00 0. -1.
     999900   -1    0    0    0    0 -0.00000000000E+00 -0.00000000000E+00 -0.74505805969E-08  0.93827000000E+00  0.93827000000E+00 0. -1.
     999902    2    1    2    0    0 -0.20048756704E-01  0.12148764360E-01 -0.30566219894E-02  0.10202891866E+01  0.10200152627E+01 0.  0.
     999903    2    3    3    0    0  0.45299785292E-02  0.37755549852E-01  0.12336093491E+00  0.13054696528E+00  0.19457328439E-01 0.  0.
         14    1    1    2    0    0  0.20048756704E-01 -0.12148764360E-01  0.30566219894E-02  0.23640813413E-01  0.00000000000E+00 0.  1.
     999901    1    3    3    0    0 -0.24578735233E-01 -0.25606785492E-01 -0.12641755690E+00  0.88974222131E+00  0.88000000000E+00 0. -1.
        -11    1    4    4    0    0  0.54518330000E-02  0.10817418123E-02  0.23667305616E-01  0.24316560705E-01  0.51100000000E-03 0.  1.
         11    1    4    4    0    0 -0.92185447074E-03  0.36673808039E-01  0.99693629298E-01  0.10623040457E+00  0.51100000000E-03 0. -1.
</event>
<event>
 8    1  0.1101883E+005  0.1043930E+01  0.7957747E-01            NaN
         13   -1    0    0    0    0  0.00000000000E+00  0.00000000000E+00  0.74505805969E-08  0.10566000000E+00  0.10566000000E+00 0.  1.
     999900   -1    0    0    0    0 -0.00000000000E+00 -0.00000000000E+00 -0.74505805969E-08  0.93827000000E+00  0.93827000000E+00 0.  1.
     999902    2    1    2    0    0  0.10699355699E-01  0.15413291788E-01 -0.13259603364E-01  0.10209547338E+01  0.10206961867E+01 0.  0.
     999903    2    3    3    0    0  0.10373220297E+00 -0.71483894162E-01  0.28945929557E-01  0.13079320990E+00  0.19966969254E-01 0.  0.
         14    1    1    2    0    0 -0.10699355699E-01 -0.15413291788E-01  0.13259603364E-01  0.22975266211E-01  0.00000000000E+00 0.  1.
     999901    1    3    3    0    0 -0.93032847271E-01  0.86897185950E-01 -0.42205532921E-01  0.89016152389E+00  0.88000000000E+00 0. -1.
        -11    1    4    4    0    0  0.33479796065E-01 -0.22509083423E-01  0.18940417476E-01  0.44570798919E-01  0.51100000000E-03 0.  1.
         11    1    4    4    0    0  0.70252406905E-01 -0.48974810739E-01  0.10005512081E-01  0.86222410984E-01  0.51100000000E-03 0. -1.
</event>
<event>
 8    1  0.1101883E+005  0.1043930E+01  0.7957747E-01            NaN
         13   -1    0    0    0    0  0.00000000000E+00  0.00000000000E+00  0.74505805969E-08  0.10566000000E+00  0.10566000000E+00 0.  1.
     999900   -1    0    0    0    0 -0.00000000000E+00 -0.00000000000E+00 -0.74505805969E-08  0.93827000000E+00  0.93827000000E+00 0.  1.
     999902    2    1    2    0    0  0.72831023310E-02 -0.20468521420E-01 -0.63832547416E-02  0.10212860187E+01  0.10210349563E+01 0.  0.
     999903    2    3    3    0    0 -0.38141106993E-01  0.11155555787E+00  0.47320258568E-01  0.12866191883E+00  0.20378811317E-01 0.  0.
         14    1    1    2    0    0 -0.72831023310E-02  0.20468521420E-01  0.63832547416E-02  0.22643981315E-01  0.00000000000E+00 0.  1.
     999901    1    3    3    0    0  0.45424209324E-01 -0.13202407929E+00 -0.53703513310E-01  0.89262409986E+00  0.88000000000E+00 0. -1.
        -11    1    4    4    0    0 -0.21518020858E-01  0.33513190562E-01  0.16848919762E-01  0.43247038990E-01  0.51100000000E-03 0.  1.
         11    1    4    4    0    0 -0.16623086135E-01  0.78042367309E-01  0.30471338806E-01  0.85414879837E-01  0.51100000000E-03 0. -1.
</event>
<event>
 8    1  0.1101883E+005  0.1043930E+01  0.7957747E-01            NaN
         13   -1    0    0    0    0  0.00000000000E+00  0.00000000000E+00  0.74505805969E-08  0.10566000000E+00  0.10566000000E+00 0.  1.
     999900   -1    0    0    0    0 -0.00000000000E+00 -0.00000000000E+00 -0.74505805969E-08  0.93827000000E+00  0.93827000000E+00 0. -1.
     999902    2    1    2    0    0 -0.15303073449E-01 -0.16834614580E-01 -0.69440045450E-02  0.10201432914E+01  0.10198659361E+01 0.  0.
     999903    2    3    3    0    0  0.73607876355E-01 -0.43040211271E-01  0.95514503315E-01  0.12936293909E+00  0.18470799100E-01 0.  0.
         14    1    1    2    0    0  0.15303073449E-01  0.16834614580E-01  0.69440045450E-02  0.23786708561E-01  0.00000000000E+00 0.  1.
     999901    1    3    3    0    0 -0.88910949805E-01  0.26205596692E-01 -0.10245850786E+00  0.89078035235E+00  0.88000000000E+00 0. -1.
        -11    1    4    4    0    0  0.19277554228E-01 -0.12290506432E-01  0.38694461977E-01  0.44946670111E-01  0.51100000000E-03 0.  1.
         11    1    4    4    0    0  0.54330322127E-01 -0.30749704840E-01  0.56820041338E-01  0.84416268982E-01  0.51100000000E-03 0. -1.
</event>
<event>
 8    1  0.1101883E+005  0.1043930E+01  0.7957747E-01            NaN
         13   -1    0    0    0    0  0.00000000000E+00  0.00000000000E+00  0.74505805969E-08  0.10566000000E+00  0.10566000000E+00 0.  1.
     999900   -1    0    0    0    0 -0.00000000000E+00 -0.00000000000E+00 -0.74505805969E-08  0.93827000000E+00  0.93827000000E+00 0. -1.
     999902    2    1    2    0    0 -0.88791168642E-02  0.17962383899E-01 -0.12984568234E-01  0.10200535479E+01  0.10197740709E+01 0.  0.
     999903    2    3    3    0    0 -0.83587875727E-01  0.90458320041E-01  0.43694000115E-01  0.13210674798E+00  0.19323213601E-01 0.  0.
         14    1    1    2    0    0  0.88791168642E-02 -0.17962383899E-01  0.12984568234E-01  0.23876452078E-01  0.00000000000E+00 0.  1.
     999901    1    3    3    0    0  0.74708758863E-01 -0.72495936142E-01 -0.56678568350E-01  0.88794679994E+00  0.88000000000E+00 0.  1.
        -11    1    4    4    0    0 -0.70461701804E-01  0.69369372371E-01  0.41257630923E-01  0.10714202945E+00  0.51100000000E-03 0.  1.
         11    1    4    4    0    0 -0.13126173923E-01  0.21088947669E-01  0.24363691920E-02  0.24964718534E-01  0.51100000000E-03 0. -1.
</event>
<event>
 8    1  0.1101883E+005  0.1043930E+01  0.7957747E-01            NaN
         13   -1    0    0    0    0  0.00000000000E+00  0.00000000000E+00  0.74505805969E-08  0.10566000000E+00  0.10566000000E+00 0.  1.
     999900   -1    0    0    0    0 -0.00000000000E+00 -0.00000000000E+00 -0.74505805969E-08  0.93827000000E+00  0.93827000000E+00 0. -1.
     999902    2    1    2    0    0  0.14900440328E-01  0.60411502186E-02 -0.19562176562E-01  0.10186081247E+01  0.10182933341E+01 0.  0.
     999903    2    3    3    0    0 -0.10225141389E+00 -0.56288609052E-01  0.44276387650E-01  0.12637221523E+00  0.19641260794E-01 0.  0.
         14    1    1    2    0    0 -0.14900440328E-01 -0.60411502186E-02  0.19562176562E-01  0.25321875321E-01  0.00000000000E+00 0.  1.
     999901    1    3    3    0    0  0.11715185422E+00  0.62329759270E-01 -0.63838564213E-01  0.89223590945E+00  0.88000000000E+00 0.  1.
        -11    1    4    4    0    0 -0.70678758856E-01 -0.46360248726E-01  0.25374485349E-01  0.88254661311E-01  0.51100000000E-03 0. -1.
         11    1    4    4    0    0 -0.31572655036E-01 -0.99283603260E-02  0.18901902301E-01  0.38117553914E-01  0.51100000000E-03 0.  1.
</event>
<event>
 8    1  0.1101883E+005  0.1043930E+01  0.7957747E-01            NaN
         13   -1    0    0    0    0  0.00000000000E+00  0.00000000000E+00  0.74505805969E-08  0.10566000000E+00  0.10566000000E+00 0.  1.
     999900   -1    0    0    0    0 -0.00000000000E+00 -0.00000000000E+00 -0.74505805969E-08  0.93827000000E+00  0.93827000000E+00 0.  1.
     999902    2    1    2    0    0 -0.17587347800E-01  0.16929976614E-01 -0.17077110693E-02  0.10194584821E+01  0.10191647274E+01 0.  0.
     999903    2    3    3    0    0 -0.11423646181E+00  0.33545368296E-01 -0.54392805385E-01  0.13244504273E+00  0.20195324296E-01 0.  0.
         14    1    1    2    0    0  0.17587347800E-01 -0.16929976614E-01  0.17077110693E-02  0.24471517891E-01  0.00000000000E+00 0.  1.
     999901    1    3    3    0    0  0.96649114015E-01 -0.16615391682E-01  0.52685094316E-01  0.88701343938E+00  0.88000000000E+00 0. -1.
        -11    1    4    4    0    0 -0.69025724867E-01  0.30286971952E-01 -0.32117504866E-01  0.81936845212E-01  0.51100000000E-03 0.  1.
         11    1    4    4    0    0 -0.45210736947E-01  0.32583963438E-02 -0.22275300520E-01  0.50508197516E-01  0.51100000000E-03 0. -1.
</event>
<event>
 8    1  0.1101883E+005  0.1043930E+01  0.7957747E-01            NaN
         13   -1    0    0    0    0  0.00000000000E+00  0.00000000000E+00  0.74505805969E-08  0.10566000000E+00  0.10566000000E+00 0.  1.
     999900   -1    0    0    0    0 -0.00000000000E+00 -0.00000000000E+00 -0.74505805969E-08  0.93827000000E+00  0.93827000000E+00 0. -1.
     999902    2    1    2    0    0 -0.19996089419E-02 -0.11937524453E-01 -0.19489033080E-01  0.10209882185E+01  0.10207304331E+01 0.  0.
     999903    2    3    3    0    0  0.10150172789E+00  0.63623667507E-01 -0.49790200247E-01  0.13119038691E+00  0.19526437041E-01 0.  0.
         14    1    1    2    0    0  0.19996089419E-02  0.11937524453E-01  0.19489033080E-01  0.22941781456E-01  0.00000000000E+00 0.  1.
     999901    1    3    3    0    0 -0.10350133684E+00 -0.75561191959E-01  0.30301167167E-01  0.88979783164E+00  0.88000000000E+00 0. -1.
        -11    1    4    4    0    0  0.90930949982E-01  0.58053792855E-01 -0.37957349207E-01  0.11436652486E+00  0.51100000000E-03 0. -1.
         11    1    4    4    0    0  0.10570777911E-01  0.55698746511E-02 -0.11832851040E-01  0.16823862042E-01  0.51100000000E-03 0.  1.
</event>
<event>
 8    1  0.1101883E+005  0.1043930E+01  0.7957747E-01            NaN
         13   -1    0    0    0    0  0.00000000000E+00  0.00000000000E+00  0.74505805969E-08  0.10566000000E+00  0.10566000000E+00 0.  1.
     999900   -1    0    0    0    0 -0.00000000000E+00 -0.00000000000E+00 -0.74505805969E-08  0.93827000000E+00  0.93827000000E+00 0. -1.
     999902    2    1    2    0    0 -0.10151922593E-01  0.19372659088E-01 -0.96259870240E-02  0.10200339527E+01  0.10197540113E+01 0.  0.
     999903    2    3    3    0    0 -0.14797383217E-01  0.75608909228E-01  0.10367227610E+00  0.13097794061E+00  0.21716592495E-01 0.  0.
         14    1    1    2    0    0  0.10151922593E-01 -0.19372659088E-01  0.96259870240E-02  0.23896047343E-01  0.00000000000E+00 0.  1.
     999901    1    3    3    0    0  0.46454606245E-02 -0.56236250140E-01 -0.11329826312E+00  0.88905601205E+00  0.88000000000E+00 0. -1.
        -11    1    4    4    0    0  0.23553127775E-02  0.24389495915E-01  0.21283658223E-01  0.32459979015E-01  0.51100000000E-03 0.  1.
         11    1    4    4    0    0 -0.17152695995E-01  0.51219413313E-01  0.82388617875E-01  0.98517961593E-01  0.51100000000E-03 0. -1.
</event>
<event>
 8    1  0.1101883E+005  0.1043930E+01  0.7957747E-01            NaN
         13   -1    0    0    0    0  0.00000000000E+00  0.00000000000E+00  0.74505805969E-08  0.10566000000E+00  0.10566000000E+00 0. -1.
     999900   -1    0    0    0    0 -0.00000000000E+00 -0.00000000000E+00 -0.74505805969E-08  0.93827000000E+00  0.93827000000E+00 0. -1.
     999902    2    1    2    0    0  0.52015105783E-02 -0.33275634917E-02 -0.24283537156E-01  0.10188736921E+01  0.10185655511E+01 0.  0.
     999903    2    3    3    0    0  0.65504067567E-01 -0.10130661217E+00  0.41006415035E-01  0.12898658111E+00  0.20054912043E-01 0.  0.
         14    1    1    2    0    0 -0.52015105783E-02  0.33275634917E-02  0.24283537156E-01  0.25056307946E-01  0.00000000000E+00 0. -1.
     999901    1    3    3    0    0 -0.60302556989E-01  0.97979048675E-01 -0.65289952191E-01  0.88988711094E+00  0.88000000000E+00 0. -1.
        -11    1    4    4    0    0  0.24248526390E-01 -0.44097691348E-01  0.74477802395E-02  0.50875612683E-01  0.51100000000E-03 0.  1.
         11    1    4    4    0    0  0.41255541177E-01 -0.57208920819E-01  0.33558634795E-01  0.78110968432E-01  0.51100000000E-03 0. -1.
</event>
<event>
 8    1  0.1101883E+005  0.1043930E+01  0.7957747E-01            NaN
         13   -1    0    0    0    0  0.00000000000E+00  0.00000000000E+00  0.74505805969E-08  0.10566000000E+00  0.10566000000E+00 0.  1.
     999900   -1    0    0    0    0 -0.00000000000E+00 -0.00000000000E+00 -0.74505805969E-08  0.93827000000E+00  0.93827000000E+00 0. -1.
     999902    2    1    2    0    0  0.35874468494E-04 -0.19194955149E-01  0.14127766007E-01  0.10200963817E+01  0.10198179183E+01 0.  0.
     999903    2    3    3    0    0  0.73669015452E-01 -0.23326057091E-02 -0.10496969116E+00  0.12886667919E+00  0.12466758122E-01 0.  0.
         14    1    1    2    0    0 -0.35874468494E-04  0.19194955149E-01 -0.14127766007E-01  0.23833618326E-01  0.00000000000E+00 0. -1.
     999901    1    3    3    0    0 -0.73633140984E-01 -0.16862349440E-01  0.11909745716E+00  0.89122970248E+00  0.88000000000E+00 0.  1.
        -11    1    4    4    0    0  0.11791062921E-01  0.37355680579E-02 -0.14129208743E-01  0.18785081693E-01  0.51100000000E-03 0.  1.
         11    1    4    4    0    0  0.61877952531E-01 -0.60681737670E-02 -0.90840482413E-01  0.11008159750E+00  0.51100000000E-03 0. -1.
</event>
<event>
 8    1  0.1101883E+005  0.1043930E+01  0.7957747E-01            NaN
         13   -1    0    0    0    0  0.00000000000E+00  0.00000000000E+00  0.74505805969E-08  0.10566000000E+00  0.10566000000E+00 0.  1.
     999900   -1    0    0    0    0 -0.00000000000E+00 -0.00000000000E+00 -0.74505805969E-08  0.93827000000E+00  0.93827000000E+00 0. -1.
     999902    2    1    2    0    0 -0.10128817216E-01  0.23304686567E-03 -0.21484404589E-01  0.10201765394E+01  0.10198999680E+01 0.  0.
     999903    2    3    3    0    0  0.81134254197E-01  0.88380523637E-01 -0.47742194874E-01  0.13068882314E+00  0.20158550526E-01 0.  0.
         14    1    1    2    0    0  0.10128817216E-01 -0.23304686567E-03  0.21484404589E-01  0.23753460581E-01  0.00000000000E+00 0.  1.
     999901    1    3    3    0    0 -0.91263071412E-01 -0.88147476771E-01  0.26257790284E-01  0.88948771628E+00  0.88000000000E+00 0.  1.
        -11    1    4    4    0    0  0.35964571450E-01  0.41109000876E-01 -0.32467366383E-01  0.63543617724E-01  0.51100000000E-03 0.  1.
         11    1    4    4    0    0  0.45169682747E-01  0.47271522761E-01 -0.15274828490E-01  0.67145205413E-01  0.51100000000E-03 0. -1.
</event>
<event>
 8    1  0.1101883E+005  0.1043930E+01  0.7957747E-01            NaN
         13   -1    0    0    0    0  0.00000000000E+00  0.00000000000E+00  0.74505805969E-08  0.10566000000E+00  0.10566000000E+00 0.  1.
     999900   -1    0    0    0    0 -0.00000000000E+00 -0.00000000000E+00 -0.74505805969E-08  0.93827000000E+00  0.93827000000E+00 0.  1.
     999902    2    1    2    0    0  0.19124836015E-01 -0.14424493097E-01 -0.10147011484E-02  0.10199538666E+01  0.10196720233E+01 0.  0.
     999903    2    3    3    0    0 -0.10530139378E+00 -0.70116402184E-01  0.18216621217E-01  0.12925003303E+00  0.19210215077E-01 0.  0.
         14    1    1    2    0    0 -0.19124836015E-01  0.14424493097E-01  0.10147011484E-02  0.23976133386E-01  0.00000000000E+00 0.  1.
     999901    1    3    3    0    0  0.12442622979E+00  0.55691909087E-01 -0.19231322365E-01  0.89070383358E+00  0.88000000000E+00 0.  1.
        -11    1    4    4    0    0 -0.80003340348E-01 -0.42835121489E-01  0.12800114683E-01  0.91648710611E-01  0.51100000000E-03 0.  1.
         11    1    4    4    0    0 -0.25298053430E-01 -0.27281280696E-01  0.54165065338E-02  0.37601322420E-01  0.51100000000E-03 0. -1.
</event>
<event>
 8    1  0.1101883E+005  0.1043930E+01  0.7957747E-01            NaN
         13   -1    0    0    0    0  0.00000000000E+00  0.00000000000E+00  0.74505805969E-08  0.10566000000E+00  0.10566000000E+00 0.  1.
     999900   -1    0    0    0    0 -0.00000000000E+00 -0.00000000000E+00 -0.74505805969E-08  0.93827000000E+00  0.93827000000E+00 0. -1.
     999902    2    1    2    0    0  0.57157001359E-02 -0.25113534441E-01  0.10146938284E-01  0.10162475291E+01  0.10158704254E+01 0.  0.
     999903    2    3    3    0    0 -0.21725807498E-01 -0.12109224253E+00  0.37547546305E-01  0.13017995712E+00  0.20041484241E-01 0.  0.
         14    1    1    2    0    0 -0.57157001359E-02  0.25113534441E-01 -0.10146938284E-01  0.27682470928E-01  0.00000000000E+00 0.  1.
     999901    1    3    3    0    0  0.27441507634E-01  0.95978708085E-01 -0.27400608022E-01  0.88606757195E+00  0.88000000000E+00 0. -1.
        -11    1    4    4    0    0 -0.19843778507E-01 -0.54191038444E-01  0.18002519670E-01  0.60454909052E-01  0.51100000000E-03 0. -1.
         11    1    4    4    0    0 -0.18820289910E-02 -0.66901204081E-01  0.19545026636E-01  0.69725048066E-01  0.51100000000E-03 0.  1.
</event>
<event>
 8    1  0.1101883E+005  0.1043930E+01  0.7957747E-01            NaN
         13   -1    0    0    0    0  0.00000000000E+00  0.00000000000E+00  0.74505805969E-08  0.10566000000E+00  0.10566000000E+00 0.  1.
     999900   -1    0    0    0    0 -0.00000000000E+00 -0.00000000000E+00 -0.74505805969E-08  0.93827000000E+00  0.93827000000E+00 0.  1.
     999902    2    1    2    0    0 -0.91548254123E-02  0.20830520182E-01  0.60520225841E-02  0.10203853960E+01  0.10201137231E+01 0.  0.
     999903    2    3    3    0    0  0.82745360729E-02  0.36344089884E-01  0.12514886935E+00  0.13205633964E+00  0.19679342548E-01 0.  0.
         14    1    1    2    0    0  0.91548254123E-02 -0.20830520182E-01 -0.60520225841E-02  0.23544603983E-01  0.00000000000E+00 0.  1.
     999901    1    3    3    0    0 -0.17429361485E-01 -0.15513569703E-01 -0.11909684677E+00  0.88832905637E+00  0.88000000000E+00 0.  1.
        -11    1    4    4    0    0 -0.63738588777E-02  0.10497662617E-01  0.31814432382E-01  0.34106395679E-01  0.51100000000E-03 0. -1.
         11    1    4    4    0    0  0.14648394951E-01  0.25846427268E-01  0.93334436970E-01  0.97949943965E-01  0.51100000000E-03 0.  1.
</event>
<event>
 8    1  0.1101883E+005  0.1043930E+01  0.7957747E-01            NaN
         13   -1    0    0    0    0  0.00000000000E+00  0.00000000000E+00  0.74505805969E-08  0.10566000000E+00  0.10566000000E+00 0. -1.
     999900   -1    0    0    0    0 -0.00000000000E+00 -0.00000000000E+00 -0.74505805969E-08  0.93827000000E+00  0.93827000000E+00 0.  1.
     999902    2    1    2    0    0  0.16792957207E-01 -0.97374468064E-02 -0.15425909478E-01  0.10191352432E+01  0.10188335801E+01 0.  0.
     999903    2    3    3    0    0  0.79543529241E-01 -0.10280978189E+00  0.84541068569E-02  0.13168363942E+00  0.19289496409E-01 0.  0.
         14    1    1    2    0    0 -0.16792957207E-01  0.97374468064E-02  0.15425909478E-01  0.24794756811E-01  0.00000000000E+00 0. -1.
     999901    1    3    3    0    0 -0.62750572033E-01  0.93072335087E-01 -0.23880016335E-01  0.88745160377E+00  0.88000000000E+00 0. -1.
        -11    1    4    4    0    0  0.50953500649E-01 -0.51219207664E-01  0.12462807463E-02  0.72259814550E-01  0.51100000000E-03 0.  1.
         11    1    4    4    0    0  0.28590028591E-01 -0.51590574229E-01  0.72078261106E-02  0.59423824872E-01  0.51100000000E-03 0. -1.
</event>
<event>
 8    1  0.1101883E+005  0.1043930E+01  0.7957747E-01            NaN
         13   -1    0    0    0    0  0.00000000000E+00  0.00000000000E+00  0.74505805969E-08  0.10566000000E+00  0.10566000000E+00 0.  1.
     999900   -1    0    0    0    0 -0.00000000000E+00 -0.00000000000E+00 -0.74505805969E-08  0.93827000000E+00  0.93827000000E+00 0. -1.
     999902    2    1    2    0    0 -0.21568742312E-01 -0.81792066821E-02 -0.20546493275E-02  0.10207711647E+01  0.10205084219E+01 0.  0.
     999903    2    3    3    0    0  0.44221031860E-01 -0.19063838413E-01  0.11910901107E+00  0.12996961434E+00  0.19652341802E-01 0.  0.
         14    1    1    2    0    0  0.21568742312E-01  0.81792066821E-02  0.20546493275E-02  0.23158835263E-01  0.00000000000E+00 0.  1.
     999901    1    3    3    0    0 -0.65789774173E-01  0.10884631731E-01 -0.12116366040E+00  0.89080155040E+00  0.88000000000E+00 0. -1.
        -11    1    4    4    0    0  0.23412574362E-01  0.39120258344E-03  0.57735329654E-01  0.62305144964E-01  0.51100000000E-03 0.  1.
         11    1    4    4    0    0  0.20808457499E-01 -0.19455040996E-01  0.61373681418E-01  0.67664469373E-01  0.51100000000E-03 0. -1.
</event>
<event>
 8    1  0.1101883E+005  0.1043930E+01  0.7957747E-01            NaN
         13   -1    0    0    0    0  0.00000000000E+00  0.00000000000E+00  0.74505805969E-08  0.10566000000E+00  0.10566000000E+00 0.  1.
     999900   -1    0    0    0    0 -0.00000000000E+00 -0.00000000000E+00 -0.74505805969E-08  0.93827000000E+00  0.93827000000E+00 0.  1.
     999902    2    1    2    0    0 -0.51012209941E-02  0.22740442756E-01  0.69474341430E-02  0.10196109327E+01  0.10193208705E+01 0.  0.
     999903    2    3    3    0    0  0.12691046421E+00  0.21219422957E-01  0.14502431597E-01  0.12973089781E+00  0.79533319855E-02 0.  0.
         14    1    1    2    0    0  0.51012209941E-02 -0.22740442756E-01 -0.69474341430E-02  0.24319067284E-01  0.00000000000E+00 0. -1.
     999901    1    3    3    0    0 -0.13201168520E+00  0.15210197990E-02 -0.75549974538E-02  0.88988003490E+00  0.88000000000E+00 0.  1.
        -11    1    4    4    0    0  0.25278034500E-01  0.23304971536E-02  0.53880493564E-02  0.25955778587E-01  0.51100000000E-03 0.  1.
         11    1    4    4    0    0  0.10163242971E+00  0.18888925804E-01  0.91143822405E-02  0.10377511923E+00  0.51100000000E-03 0. -1.
</event>
<event>
 8    1  0.1101883E+005  0.1043930E+01  0.7957747E-01            NaN
         13   -1    0    0    0    0  0.00000000000E+00  0.00000000000E+00  0.74505805969E-08  0.10566000000E+00  0.10566000000E+00 0.  1.
     999900   -1    0    0    0    0 -0.00000000000E+00 -0.00000000000E+00 -0.74505805969E-08  0.93827000000E+00  0.93827000000E+00 0. -1.
     999902    2    1    2    0    0  0.58140205702E-04 -0.26041789022E-01 -0.27754160691E-03  0.10178866672E+01  0.10175534443E+01 0.  0.
     999903    2    3    3    0    0 -0.11344070823E+00  0.36437460450E-01  0.40553881840E-01  0.12746381798E+00  0.20147574414E-01 0.  0.
         14    1    1    2    0    0 -0.58140205702E-04  0.26041789022E-01  0.27754160691E-03  0.26043332834E-01  0.00000000000E+00 0. -1.
     999901    1    3    3    0    0  0.11349884843E+00 -0.62479249472E-01 -0.40831423447E-01  0.89042284919E+00  0.88000000000E+00 0.  1.
        -11    1    4    4    0    0 -0.62783568609E-01  0.25157863665E-01  0.32139351596E-01  0.74885870720E-01  0.51100000000E-03 0. -1.
         11    1    4    4    0    0 -0.50657139618E-01  0.11279596785E-01  0.84145302447E-02  0.52577947261E-01  0.51100000000E-03 0.  1.
</event>
<event>
 8    1  0.1101883E+005  0.1043930E+01  0.7957747E-01            NaN
         13   -1    0    0    0    0  0.00000000000E+00  0.00000000000E+00  0.74505805969E-08  0.10566000000E+00  0.10566000000E+00 0. -1.
     999900   -1    0    0    0    0 -0.00000000000E+00 -0.00000000000E+00 -0.74505805969E-08  0.93827000000E+00  0.93827000000E+00 0.  1.
     999902    2    1    2    0    0  0.20133902020E-01 -0.14070978214E-01  0.61387113216E-02  0.10186110305E+01  0.10182963131E+01 0.  0.
     999903    2    3    3    0    0  0.65035147147E-01 -0.76966764866E-01  0.81296812193E-01  0.13203292234E+00  0.25885664954E-01 0.  0.
         14    1    1    2    0    0 -0.20133902020E-01  0.14070978214E-01 -0.61387113216E-02  0.25318969472E-01  0.00000000000E+00 0. -1.
     999901    1    3    3    0    0 -0.44901245127E-01  0.62895786652E-01 -0.75158100872E-01  0.88657810819E+00  0.88000000000E+00 0.  1.
        -11    1    4    4    0    0  0.36990616125E-01 -0.30671228429E-01  0.25939771006E-01  0.54609182154E-01  0.51100000000E-03 0. -1.
         11    1    4    4    0    0  0.28044531022E-01 -0.46295536437E-01  0.55357041187E-01  0.77423740185E-01  0.51100000000E-03 0.  1.
</event>
<event>
 8    1  0.1101883E+005  0.1043930E+01  0.7957747E-01            NaN
         13   -1    0    0    0    0  0.00000000000E+00  0.00000000000E+00  0.74505805969E-08  0.10566000000E+00  0.10566000000E+00 0.  1.
     999900   -1    0    0    0    0 -0.00000000000E+00 -0.00000000000E+00 -0.74505805969E-08  0.93827000000E+00  0.93827000000E+00 0.  1.
     999902    2    1    2    0    0  0.39455767458E-03  0.10849537184E-01 -0.20707969934E-01  0.10205486367E+01  0.10202807612E+01 0.  0.
     999903    2    3    3    0    0  0.12165367460E+00  0.45239758324E-01 -0.19532635233E-02  0.13137025199E+00  0.20200881022E-01 0.  0.
         14    1    1    2    0    0 -0.39455767458E-03 -0.10849537184E-01  0.20707969934E-01  0.23381363341E-01  0.00000000000E+00 0.  1.
     999901    1    3    3    0    0 -0.12125911692E+00 -0.34390221140E-01 -0.18754706411E-01  0.88917838467E+00  0.88000000000E+00 0.  1.
        -11    1    4    4    0    0  0.76602546305E-01  0.26992735868E-01  0.84546228134E-02  0.81659657469E-01  0.51100000000E-03 0.  1.
         11    1    4    4    0    0  0.45051128292E-01  0.18247022456E-01 -0.10407886337E-01  0.49710594524E-01  0.51100000000E-03 0. -1.
</event>
<event>
 8    1  0.1101883E+005  0.1043930E+01  0.7957747E-01            NaN
         13   -1    0    0    0    0  0.00000000000E+00  0.00000000000E+00  0.74505805969E-08  0.10566000000E+00  0.10566000000E+00 0.  1.
     999900   -1    0    0    0    0 -0.00000000000E+00 -0.00000000000E+00 -0.74505805969E-08  0.93827000000E+00  0.93827000000E+00 0.  1.
     999902    2    1    2    0    0  0.20890382851E-01 -0.41126213877E-02 -0.12233080599E-01  0.10193745523E+01  0.10190787545E+01 0.  0.
     999903    2    3    3    0    0  0.79251844731E-01  0.49146989171E-01  0.88162392307E-01  0.13014910433E+00  0.21677188553E-01 0.  0.
         14    1    1    2    0    0 -0.20890382851E-01  0.41126213877E-02  0.12233080599E-01  0.24555447690E-01  0.00000000000E+00 0. -1.
     999901    1    3    3    0    0 -0.58361461881E-01 -0.53259610559E-01 -0.10039547291E+00  0.88922544798E+00  0.88000000000E+00 0.  1.
        -11    1    4    4    0    0  0.45076058298E-01  0.20361668507E-01  0.34449161394E-01  0.60278142123E-01  0.51100000000E-03 0.  1.
         11    1    4    4    0    0  0.34175786434E-01  0.28785320664E-01  0.53713230913E-01  0.69870962210E-01  0.51100000000E-03 0. -1.
</event>
<event>
 8    1  0.1101883E+005  0.1043930E+01  0.7957747E-01            NaN
         13   -1    0    0    0    0  0.00000000000E+00  0.00000000000E+00  0.74505805969E-08  0.10566000000E+00  0.10566000000E+00 0.  1.
     999900   -1    0    0    0    0 -0.00000000000E+00 -0.00000000000E+00 -0.74505805969E-08  0.93827000000E+00  0.93827000000E+00 0. -1.
     999902    2    1    2    0    0  0.33318296745E-02 -0.20236770284E-01  0.25241168084E-01  0.10114070154E+01  0.10108839727E+01 0.  0.
     999903    2    3    3    0    0  0.18218500764E-01  0.61368624092E-01  0.10492926898E+00  0.12392110183E+00  0.15756465266E-01 0.  0.
         14    1    1    2    0    0 -0.33318296745E-02  0.20236770284E-01 -0.25241168084E-01  0.32522984592E-01  0.00000000000E+00 0.  1.
     999901    1    3    3    0    0 -0.14886671089E-01 -0.81605394376E-01 -0.79688100899E-01  0.88748591357E+00  0.88000000000E+00 0. -1.
        -11    1    4    4    0    0  0.92617106500E-02  0.38384999591E-01  0.77813939026E-01  0.87260860100E-01  0.51100000000E-03 0.  1.
         11    1    4    4    0    0  0.89567901140E-02  0.22983624501E-01  0.27115329957E-01  0.36660241734E-01  0.51100000000E-03 0. -1.
</event>
<event>
 8    1  0.1101883E+005  0.1043930E+01  0.7957747E-01            NaN
         13   -1    0    0    0    0  0.00000000000E+00  0.00000000000E+00  0.74505805969E-08  0.10566000000E+00  0.10566000000E+00 0.  1.
     999900   -1    0    0    0    0 -0.00000000000E+00 -0.00000000000E+00 -0.74505805969E-08  0.93827000000E+00  0.93827000000E+00 0.  1.
     999902    2    1    2    0    0  0.19969203955E-01  0.13096061381E-01  0.14270108545E-02  0.10200069506E+01  0.10197263687E+01 0.  0.
     999903    2    3    3    0    0  0.76280273173E-01 -0.78750139664E-01 -0.68268938999E-01  0.13070149886E+00  0.20049169525E-01 0.  0.
         14    1    1    2    0    0 -0.19969203955E-01 -0.13096061381E-01 -0.14270108545E-02  0.23923049352E-01  0.00000000000E+00 0.  1.
     999901    1    3    3    0    0 -0.56311069218E-01  0.91846201044E-01  0.69695949853E-01  0.88930545179E+00  0.88000000000E+00 0.  1.
        -11    1    4    4    0    0  0.47552301922E-01 -0.57276873038E-01 -0.54573165839E-01  0.92305759050E-01  0.51100000000E-03 0. -1.
         11    1    4    4    0    0  0.28727971251E-01 -0.21473266625E-01 -0.13695773160E-01  0.38395739805E-01  0.51100000000E-03 0.  1.
</event>
<event>
 7    1  0.1101883E+005  0.1043930E+01  0.7957747E-01            NaN
         13   -1    0    0    0    0  0.00000000000E+00  0.00000000000E+00  0.74505805969E-08  0.10566000000E+00  0.10566000000E+00 0. -1.
     999900   -1    0    0    0    0 -0.00000000000E+00 -0.00000000000E+00 -0.74505805969E-08  0.93827000000E+00  0.93827000000E+00 0. -1.
     999903    2    1    2    0    0 -0.71113286305E-01  0.38264443563E-01  0.49009138664E-01  0.96596550845E-01  0.20192345880E-01 0.  0.
         14    1    1    2    0    0  0.43582649961E-01 -0.37447171530E-01 -0.34016881686E-01  0.66774892533E-01  0.00000000000E+00 0. -1.
     999901    1    1    2    0    0  0.27530636345E-01 -0.81727203301E-03 -0.14992256978E-01  0.88055855662E+00  0.88000000000E+00 0.  1.
        -11    1    3    3    0    0 -0.44323218379E-01  0.33413010630E-01  0.27802162706E-01  0.62082190192E-01  0.51100000000E-03 0. -1.
         11    1    3    3    0    0 -0.26790067926E-01  0.48514329323E-02  0.21206975958E-01  0.34514360653E-01  0.51100000000E-03 0.  1.
</event>
<event>
 8    1  0.1101883E+005  0.1043930E+01  0.7957747E-01            NaN
         13   -1    0    0    0    0  0.00000000000E+00  0.00000000000E+00  0.74505805969E-08  0.10566000000E+00  0.10566000000E+00 0.  1.
     999900   -1    0    0    0    0 -0.00000000000E+00 -0.00000000000E+00 -0.74505805969E-08  0.93827000000E+00  0.93827000000E+00 0.  1.
     999902    2    1    2    0    0 -0.20823763339E-01 -0.73256369663E-02  0.73255429123E-02  0.10206715036E+01  0.10204064683E+01 0.  0.
     999903    2    3    3    0    0  0.15023712472E-01  0.65112862751E-01 -0.10897578193E+00  0.12934755803E+00  0.19740133963E-01 0.  0.
         14    1    1    2    0    0  0.20823763339E-01  0.73256369663E-02 -0.73255429123E-02  0.23258496416E-01  0.00000000000E+00 0.  1.
     999901    1    3    3    0    0 -0.35847475811E-01 -0.72438499718E-01  0.11630132484E+00  0.89132394556E+00  0.88000000000E+00 0. -1.
        -11    1    4    4    0    0  0.12912159094E-01  0.19885954659E-01 -0.46384004289E-01  0.52095220702E-01  0.51100000000E-03 0.  1.
         11    1    4    4    0    0  0.21115533780E-02  0.45226908092E-01 -0.62591777639E-01  0.77252337325E-01  0.51100000000E-03 0. -1.
</event>
<event>
 8    1  0.1101883E+005  0.1043930E+01  0.7957747E-01            NaN
         13   -1    0    0    0    0  0.00000000000E+00  0.00000000000E+00  0.74505805969E-08  0.10566000000E+00  0.10566000000E+00 0.  1.
     999900   -1    0    0    0    0 -0.00000000000E+00 -0.00000000000E+00 -0.74505805969E-08  0.93827000000E+00  0.93827000000E+00 0. -1.
     999902    2    1    2    0    0 -0.14183683795E-01 -0.35666397943E-02  0.19347254781E-01  0.10196768750E+01  0.10193884026E+01 0.  0.
     999903    2    3    3    0    0  0.47086658444E-01 -0.71394339901E-01 -0.92804093809E-01  0.12786266971E+00  0.20541599361E-01 0.  0.
         14    1    1    2    0    0  0.14183683795E-01  0.35666397943E-02 -0.19347254781E-01  0.24253125015E-01  0.00000000000E+00 0. -1.
     999901    1    3    3    0    0 -0.61270342239E-01  0.67827700106E-01  0.11215134859E+00  0.89181420528E+00  0.88000000000E+00 0. -1.
        -11    1    4    4    0    0  0.39271401505E-01 -0.69574125833E-01 -0.83488959354E-01  0.11555721274E+00  0.51100000000E-03 0. -1.
         11    1    4    4    0    0  0.78152569397E-02 -0.18202140679E-02 -0.93151344554E-02  0.12305456969E-01  0.51100000000E-03 0.  1.
</event>
<event>
 8    1  0.1101883E+005  0.1043930E+01  0.7957747E-01            NaN
         13   -1    0    0    0    0  0.00000000000E+00  0.00000000000E+00  0.74505805969E-08  0.10566000000E+00  0.10566000000E+00 0. -1.
     999900   -1    0    0    0    0 -0.00000000000E+00 -0.00000000000E+00 -0.74505805969E-08  0.93827000000E+00  0.93827000000E+00 0. -1.
     999902    2    1    2    0    0  0.73193594825E-03  0.15897053189E-01  0.16704733899E-01  0.10208583688E+01  0.10205976235E+01 0.  0.
     999903    2    3    3    0    0  0.11613387983E+00 -0.45806899712E-01  0.35178731306E-01  0.13098968468E+00  0.18314045128E-01 0.  0.
         14    1    1    2    0    0 -0.73193594825E-03 -0.15897053189E-01 -0.16704733899E-01  0.23071631172E-01  0.00000000000E+00 0.  1.
     999901    1    3    3    0    0 -0.11540194388E+00  0.61703952900E-01 -0.18473997408E-01  0.88986868415E+00  0.88000000000E+00 0. -1.
        -11    1    4    4    0    0  0.39075439558E-01 -0.84053569888E-02  0.55654515618E-02  0.40358089336E-01  0.51100000000E-03 0.  1.
         11    1    4    4    0    0  0.77058440274E-01 -0.37401542723E-01  0.29613279745E-01  0.90631595339E-01  0.51100000000E-03 0. -1.
</event>
<event>
 8    1  0.1101883E+005  0.1043930E+01  0.7957747E-01            NaN
         13   -1    0    0    0    0  0.00000000000E+00  0.00000000000E+00  0.74505805969E-08  0.10566000000E+00  0.10566000000E+00 0. -1.
     999900   -1    0    0    0    0 -0.00000000000E+00 -0.00000000000E+00 -0.74505805969E-08  0.93827000000E+00  0.93827000000E+00 0. -1.
     999902    2    1    2    0    0  0.14542825122E-01  0.26734435177E-02 -0.21395379859E-01  0.10179222446E+01  0.10175899433E+01 0.  0.
     999903    2    3    3    0    0 -0.76689149928E-01 -0.60800456973E-01  0.76173768016E-01  0.12558153166E+00  0.19757451139E-01 0.  0.
         14    1    1    2    0    0 -0.14542825122E-01 -0.26734435177E-02  0.21395379859E-01  0.26007755422E-01  0.00000000000E+00 0. -1.
     999901    1    3    3    0    0  0.91231975050E-01  0.63473900490E-01 -0.97569147875E-01  0.89234071292E+00  0.88000000000E+00 0. -1.
        -11    1    4    4    0    0 -0.45915703113E-01 -0.28345854833E-01  0.51033818795E-01  0.74272815083E-01  0.51100000000E-03 0. -1.
         11    1    4    4    0    0 -0.30773446815E-01 -0.32454602139E-01  0.25139949221E-01  0.51308716577E-01  0.51100000000E-03 0.  1.
</event>
<event>
 8    1  0.1101883E+005  0.1043930E+01  0.7957747E-01            NaN
         13   -1    0    0    0    0  0.00000000000E+00  0.00000000000E+00  0.74505805969E-08  0.10566000000E+00  0.10566000000E+00 0.  1.
     999900   -1    0    0    0    0 -0.00000000000E+00 -0.00000000000E+00 -0.74505805969E-08  0.93827000000E+00  0.93827000000E+00 0. -1.
     999902    2    1    2    0    0 -0.19555184360E-02 -0.46046138937E-02 -0.22178757517E-01  0.10211940416E+01  0.10209409124E+01 0.  0.
     999903    2    3    3    0    0 -0.94379797662E-02 -0.96100859662E-01 -0.90468175274E-01  0.13378714796E+00  0.19749924877E-01 0.  0.
         14    1    1    2    0    0  0.19555184360E-02  0.46046138937E-02  0.22178757517E-01  0.22735958446E-01  0.00000000000E+00 0.  1.
     999901    1    3    3    0    0  0.74824613303E-02  0.91496245768E-01  0.68289417757E-01  0.88740689359E+00  0.88000000000E+00 0.  1.
        -11    1    4    4    0    0  0.39802792098E-02 -0.44472738824E-01 -0.34155778855E-01  0.56218728830E-01  0.51100000000E-03 0. -1.
         11    1    4    4    0    0 -0.13418258976E-01 -0.51628120837E-01 -0.56312396419E-01  0.77568419131E-01  0.51100000000E-03 0.  1.
</event>
<event>
 8    1  0.1101883E+005  0.1043930E+01  0.7957747E-01            NaN
         13   -1    0    0    0    0  0.00000000000E+00  0.00000000000E+00  0.74505805969E-08  0.10566000000E+00  0.10566000000E+00 0.  1.
     999900   -1    0    0    0    0 -0.00000000000E+00 -0.00000000000E+00 -0.74505805969E-08  0.93827000000E+00  0.93827000000E+00 0.  1.
     999902    2    1    2    0    0 -0.21518619538E-01  0.41749924856E-02  0.85761782426E-02  0.10203921075E+01  0.10201205913E+01 0.  0.
     999903    2    3    3    0    0 -0.42548416136E-01  0.43042184770E-01  0.11641580926E+00  0.13270843808E+00  0.19897022527E-01 0.  0.
         14    1    1    2    0    0  0.21518619538E-01 -0.41749924856E-02 -0.85761782426E-02  0.23537892479E-01  0.00000000000E+00 0. -1.
     999901    1    3    3    0    0  0.21029796598E-01 -0.38867192284E-01 -0.10783963102E+00  0.88768366944E+00  0.88000000000E+00 0.  1.
        -11    1    4    4    0    0 -0.17919446004E-01  0.11603467768E-01  0.24562816227E-01  0.32547504841E-01  0.51100000000E-03 0.  1.
         11    1    4    4    0    0 -0.24628970132E-01  0.31438717002E-01  0.91852993033E-01  0.10016093324E+00  0.51100000000E-03 0. -1.
</event>
<event>
 8    1  0.1101883E+005  0.1043930E+01  0.7957747E-01            NaN
         13   -1    0    0    0    0  0.00000000000E+00  0.00000000000E+00  0.74505805969E-08  0.10566000000E+00  0.10566000000E+00 0. -1.
     999900   -1    0    0    0    0 -0.00000000000E+00 -0.00000000000E+00 -0.74505805969E-08  0.93827000000E+00  0.93827000000E+00 0.  1.
     999902    2    1    2    0    0  0.46652314444E-02 -0.18548359633E-01 -0.14822875328E-01  0.10197324038E+01  0.10194452666E+01 0.  0.
     999903    2    3    3    0    0 -0.44754762820E-01 -0.10981284266E+00  0.52299973638E-01  0.13109467189E+00  0.19714881391E-01 0.  0.
         14    1    1    2    0    0 -0.46652314444E-02  0.18548359633E-01  0.14822875328E-01  0.24197596213E-01  0.00000000000E+00 0. -1.
     999901    1    3    3    0    0  0.49419994264E-01  0.91264483024E-01 -0.67122848965E-01  0.88863773190E+00  0.88000000000E+00 0.  1.
        -11    1    4    4    0    0 -0.32530175802E-01 -0.94275499653E-01  0.48725083436E-01  0.11099764434E+00  0.51100000000E-03 0.  1.
         11    1    4    4    0    0 -0.12224587017E-01 -0.15537343004E-01  0.35748902018E-02  0.20097027549E-01  0.51100000000E-03 0. -1.
</event>
<event>
 8    1  0.1101883E+005  0.1043930E+01  0.7957747E-01            NaN
         13   -1    0    0    0    0  0.00000000000E+00  0.00000000000E+00  0.74505805969E-08  0.10566000000E+00  0.10566000000E+00 0.  1.
     999900   -1    0    0    0    0 -0.00000000000E+00 -0.00000000000E+00 -0.74505805969E-08  0.93827000000E+00  0.93827000000E+00 0.  1.
     999902    2    1    2    0    0 -0.92503982201E-02 -0.10534035800E-01 -0.19707976169E-01  0.10197444650E+01  0.10194576175E+01 0.  0.
     999903    2    3    3    0    0  0.70872858522E-01 -0.57181257971E-01  0.88192390713E-01  0.12831965676E+00  0.19884119139E-01 0.  0.
         14    1    1    2    0    0  0.92503982201E-02  0.10534035800E-01  0.19707976169E-01  0.24185534977E-01  0.00000000000E+00 0.  1.
     999901    1    3    3    0    0 -0.80123256742E-01  0.46647222172E-01 -0.10790036688E+00  0.89142480826E+00  0.88000000000E+00 0.  1.
        -11    1    4    4    0    0  0.19192112268E-01 -0.11487630315E-01  0.33497892567E-01  0.40282412427E-01  0.51100000000E-03 0. -1.
         11    1    4    4    0    0  0.51680746255E-01 -0.45693627656E-01  0.54694498146E-01  0.88037244336E-01  0.51100000000E-03 0.  1.
</event>
<event>
 7    1  0.1101883E+005  0.1043930E+01  0.7957747E-01            NaN
         13   -1    0    0    0    0  0.00000000000E+00  0.00000000000E+00  0.74505805969E-08  0.10566000000E+00  0.10566000000E+00 0. -1.
     999900   -1    0    0    0    0 -0.00000000000E+00 -0.00000000000E+00 -0.74505805969E-08  0.93827000000E+00  0.93827000000E+00 0. -1.
     999903    2    1    2    0    0 -0.60338433979E-01  0.10111450036E+00  0.90322507224E-01  0.14972174594E+00  0.19838777653E-01 0.  0.
         14    1    1    2    0    0 -0.20820349782E-03 -0.71485296347E-03  0.15218083339E-02  0.16941853680E-02  0.00000000000E+00 0. -1.
     999901    1    1    2    0    0  0.60546637477E-01 -0.10039964740E+00 -0.91844315557E-01  0.89251406869E+00  0.88000000000E+00 0. -1.
        -11    1    3    3    0    0 -0.40432082312E-01  0.81750343837E-01  0.63691455505E-01  0.11124178452E+00  0.51100000000E-03 0. -1.
         11    1    3    3    0    0 -0.19906351667E-01  0.19364156524E-01  0.26631051718E-01  0.38479961424E-01  0.51100000000E-03 0.  1.
</event>
<event>
 8    1  0.1101883E+005  0.1043930E+01  0.7957747E-01            NaN
         13   -1    0    0    0    0  0.00000000000E+00  0.00000000000E+00  0.74505805969E-08  0.10566000000E+00  0.10566000000E+00 0. -1.
     999900   -1    0    0    0    0 -0.00000000000E+00 -0.00000000000E+00 -0.74505805969E-08  0.93827000000E+00  0.93827000000E+00 0. -1.
     999902    2    1    2    0    0  0.10460479690E-01 -0.22729939443E-02 -0.22155540347E-01  0.10193239823E+01  0.10190269500E+01 0.  0.
     999903    2    3    3    0    0 -0.10086330976E-01 -0.35478863802E-01 -0.12558793045E+00  0.13240625192E+00  0.19965055025E-01 0.  0.
         14    1    1    2    0    0 -0.10460479690E-01  0.22729939443E-02  0.22155540347E-01  0.24606017656E-01  0.00000000000E+00 0. -1.
     999901    1    3    3    0    0  0.20546810667E-01  0.33205869858E-01  0.10343239011E+00  0.88691773043E+00  0.88000000000E+00 0.  1.
        -11    1    4    4    0    0  0.49945071924E-02 -0.11292469587E-01 -0.52985341677E-01  0.54407467549E-01  0.51100000000E-03 0. -1.
         11    1    4    4    0    0 -0.15080838169E-01 -0.24186394215E-01 -0.72602588775E-01  0.77998784368E-01  0.51100000000E-03 0.  1.
</event>
<event>
 8    1  0.1101883E+005  0.1043930E+01  0.7957747E-01            NaN
         13   -1    0    0    0    0  0.00000000000E+00  0.00000000000E+00  0.74505805969E-08  0.10566000000E+00  0.10566000000E+00 0.  1.
     999900   -1    0    0    0    0 -0.00000000000E+00 -0.00000000000E+00 -0.74505805969E-08  0.93827000000E+00  0.93827000000E+00 0. -1.
     999902    2    1    2    0    0 -0.15907081474E-01  0.12786074126E-01 -0.11598690743E-01  0.10204555765E+01  0.10201855395E+01 0.  0.
     999903    2    3    3    0    0  0.12027727256E-01 -0.64854604845E-02  0.12676654562E+00  0.12899795875E+00  0.19595633493E-01 0.  0.
         14    1    1    2    0    0  0.15907081474E-01 -0.12786074126E-01  0.11598690743E-01  0.23474423519E-01  0.00000000000E+00 0. -1.
     999901    1    3    3    0    0 -0.27934808730E-01  0.19271534611E-01 -0.13836523636E+00  0.89145761774E+00  0.88000000000E+00 0. -1.
        -11    1    4    4    0    0  0.74124849328E-02  0.45874665873E-02  0.87551201619E-01  0.87985588641E-01  0.51100000000E-03 0. -1.
         11    1    4    4    0    0  0.46152423232E-02 -0.11072927072E-01  0.39215343999E-01  0.41012370105E-01  0.51100000000E-03 0.  1.
</event>
<event>
 8    1  0.1101883E+005  0.1043930E+01  0.7957747E-01            NaN
         13   -1    0    0    0    0  0.00000000000E+00  0.00000000000E+00  0.74505805969E-08  0.10566000000E+00  0.10566000000E+00 0. -1.
     999900   -1    0    0    0    0 -0.00000000000E+00 -0.00000000000E+00 -0.74505805969E-08  0.93827000000E+00  0.93827000000E+00 0.  1.
     999902    2    1    2    0    0  0.23366931307E-01 -0.10155689252E-02 -0.25673855207E-03  0.10205396008E+01  0.10202715159E+01 0.  0.
     999903    2    3    3    0    0  0.58499697710E-01  0.82215990279E-01  0.83367532089E-01  0.13197062637E+00  0.16864670999E-01 0.  0.
         14    1    1    2    0    0 -0.23366931307E-01  0.10155689252E-02  0.25673855207E-03  0.23390399177E-01  0.00000000000E+00 0. -1.
     999901    1    3    3    0    0 -0.35132766402E-01 -0.83231559204E-01 -0.83624270641E-01  0.88856897445E+00  0.88000000000E+00 0.  1.
        -11    1    4    4    0    0  0.81569608254E-02  0.14097727981E-01  0.21976582606E-01  0.27358970159E-01  0.51100000000E-03 0.  1.
         11    1    4    4    0    0  0.50342736884E-01  0.68118262298E-01  0.61390949483E-01  0.10461165621E+00  0.51100000000E-03 0. -1.
</event>
<event>
 8    1  0.1101883E+005  0.1043930E+01  0.7957747E-01            NaN
         13   -1    0    0    0    0  0.00000000000E+00  0.00000000000E+00  0.74505805969E-08  0.10566000000E+00  0.10566000000E+00 0.  1.
     999900   -1    0    0    0    0 -0.00000000000E+00 -0.00000000000E+00 -0.74505805969E-08  0.93827000000E+00  0.93827000000E+00 0. -1.
     999902    2    1    2    0    0 -0.84669892912E-02  0.97618213041E-02  0.18959825109E-01  0.10209853267E+01  0.10207274756E+01 0.  0.
     999903    2    3    3    0    0 -0.40978706441E-01  0.90027345190E-01  0.88138337377E-01  0.13403254748E+00  0.20302216749E-01 0.  0.
         14    1    1    2    0    0  0.84669892912E-02 -0.97618213041E-02 -0.18959825109E-01  0.22944673260E-01  0.00000000000E+00 0. -1.
     999901    1    3    3    0    0  0.32511717150E-01 -0.80265523886E-01 -0.69178512268E-01  0.88695277926E+00  0.88000000000E+00 0. -1.
        -11    1    4    4    0    0 -0.20774054221E-01  0.61527971957E-01  0.66424133238E-01  0.92896066975E-01  0.51100000000E-03 0. -1.
         11    1    4    4    0    0 -0.20204652220E-01  0.28499373233E-01  0.21714204139E-01  0.41136480506E-01  0.51100000000E-03 0.  1.
</event>
<event>
 8    1  0.1101883E+005  0.1043930E+01  0.7957747E-01            NaN
         13   -1    0    0    0    0  0.00000000000E+00  0.00000000000E+00  0.74505805969E-08  0.10566000000E+00  0.10566000000E+00 0.  1.
     999900   -1    0    0    0    0 -0.00000000000E+00 -0.00000000000E+00 -0.74505805969E-08  0.93827000000E+00  0.93827000000E+00 0. -1.
     999902    2    1    2    0    0 -0.22458854182E-01  0.97349992311E-03  0.75055957754E-02  0.10202301730E+01  0.10199548637E+01 0.  0.
     999903    2    3    3    0    0 -0.12852556508E+00  0.14415292008E-01 -0.24992272585E-01  0.13316369272E+00  0.19527771165E-01 0.  0.
         14    1    1    2    0    0  0.22458854182E-01 -0.97349992311E-03 -0.75055957754E-02  0.23699827029E-01  0.00000000000E+00 0.  1.
     999901    1    3    3    0    0  0.10606671090E+00 -0.13441792085E-01  0.32497868360E-01  0.88706648025E+00  0.88000000000E+00 0. -1.
        -11    1    4    4    0    0 -0.58274585753E-01 -0.97784491267E-03 -0.17497270999E-01  0.60854738014E-01  0.51100000000E-03 0. -1.
         11    1    4    4    0    0 -0.70250979329E-01  0.15393136921E-01 -0.74950015854E-02  0.72308954707E-01  0.51100000000E-03 0.  1.
</event>
<event>
 8    1  0.1101883E+005  0.1043930E+01  0.7957747E-01            NaN
         13   -1    0    0    0    0  0.00000000000E+00  0.00000000000E+00  0.74505805969E-08  0.10566000000E+00  0.10566000000E+00 0. -1.
     999900   -1    0    0    0    0 -0.00000000000E+00 -0.00000000000E+00 -0.74505805969E-08  0.93827000000E+00  0.93827000000E+00 0. -1.
     999902    2    1    2    0    0 -0.96156867878E-02 -0.19440761867E-01  0.39947472218E-02  0.10218763686E+01  0.10216383655E+01 0.  0.
     999903    2    3    3    0    0 -0.44496640084E-01 -0.37050757358E-01 -0.11751933930E+00  0.13266746956E+00  0.20908198622E-01 0.  0.
         14    1    1    2    0    0  0.96156867878E-02  0.19440761867E-01 -0.39947472218E-02  0.22053631441E-01  0.00000000000E+00 0. -1.
     999901    1    3    3    0    0  0.34880953296E-01  0.17609995491E-01  0.12151408652E+00  0.88920889900E+00  0.88000000000E+00 0.  1.
        -11    1    4    4    0    0 -0.36847039971E-01 -0.38932071824E-01 -0.10432742829E+00  0.11729400660E+00  0.51100000000E-03 0.  1.
         11    1    4    4    0    0 -0.76496001128E-02  0.18813144660E-02 -0.13191911010E-01  0.15373462951E-01  0.51100000000E-03 0. -1.
</event>
<event>
 8    1  0.1101883E+005  0.1043930E+01  0.7957747E-01            NaN
         13   -1    0    0    0    0  0.00000000000E+00  0.00000000000E+00  0.74505805969E-08  0.10566000000E+00  0.10566000000E+00 0.  1.
     999900   -1    0    0    0    0 -0.00000000000E+00 -0.00000000000E+00 -0.74505805969E-08  0.93827000000E+00  0.93827000000E+00 0. -1.
     999902    2    1    2    0    0 -0.73037651308E-02  0.23067045772E-01  0.11393157452E-02  0.10197074562E+01  0.10194197196E+01 0.  0.
     999903    2    3    3    0    0 -0.52401806136E-01  0.53579913149E-01  0.10620987885E+00  0.13178589912E+00  0.21684751835E-01 0.  0.
         14    1    1    2    0    0  0.73037651308E-02 -0.23067045772E-01 -0.11393157452E-02  0.24222543758E-01  0.00000000000E+00 0.  1.
     999901    1    3    3    0    0  0.45098041005E-01 -0.30512867377E-01 -0.10507056310E+00  0.88792155713E+00  0.88000000000E+00 0. -1.
        -11    1    4    4    0    0 -0.27536716110E-01  0.18383465392E-01  0.60459309605E-01  0.68933386489E-01  0.51100000000E-03 0. -1.
         11    1    4    4    0    0 -0.24865090026E-01  0.35196447757E-01  0.45750569241E-01  0.62852512628E-01  0.51100000000E-03 0.  1.
</event>
<event>
 8    1  0.1101883E+005  0.1043930E+01  0.7957747E-01            NaN
         13   -1    0    0    0    0  0.00000000000E+00  0.00000000000E+00  0.74505805969E-08  0.10566000000E+00  0.10566000000E+00 0.  1.
     999900   -1    0    0    0    0 -0.00000000000E+00 -0.00000000000E+00 -0.74505805969E-08  0.93827000000E+00  0.93827000000E+00 0. -1.
     999902    2    1    2    0    0  0.10430745166E-01 -0.21668818892E-01  0.74893126661E-02  0.10187421466E+01  0.10184307209E+01 0.  0.
     999903    2    3    3    0    0 -0.97875236649E-01 -0.38315782688E-01 -0.70987562280E-01  0.12848042830E+00  0.20501836609E-01 0.  0.
         14    1    1    2    0    0 -0.10430745166E-01  0.21668818892E-01 -0.74893126661E-02  0.25187853444E-01  0.00000000000E+00 0. -1.
     999901    1    3    3    0    0  0.10830598181E+00  0.16646963796E-01  0.78476874946E-01  0.89026171826E+00  0.88000000000E+00 0.  1.
        -11    1    4    4    0    0 -0.38458887039E-01 -0.52109338483E-02 -0.21560699255E-01  0.44400052897E-01  0.51100000000E-03 0. -1.
         11    1    4    4    0    0 -0.59416349610E-01 -0.33104848840E-01 -0.49426863025E-01  0.84080375398E-01  0.51100000000E-03 0.  1.
</event>
<event>
 8    1  0.1101883E+005  0.1043930E+01  0.7957747E-01            NaN
         13   -1    0    0    0    0  0.00000000000E+00  0.00000000000E+00  0.74505805969E-08  0.10566000000E+00  0.10566000000E+00 0. -1.
     999900   -1    0    0    0    0 -0.00000000000E+00 -0.00000000000E+00 -0.74505805969E-08  0.93827000000E+00  0.93827000000E+00 0.  1.
     999902    2    1    2    0    0  0.10438862068E-02 -0.34418603014E-02  0.22830809474E-01  0.10208176232E+01  0.10205559455E+01 0.  0.
     999903    2    3    3    0    0 -0.88558651980E-02 -0.52163867494E-01  0.12139571763E+00  0.13392028968E+00  0.19955658572E-01 0.  0.
         14    1    1    2    0    0 -0.10438862068E-02  0.34418603014E-02 -0.22830809474E-01  0.23112376814E-01  0.00000000000E+00 0.  1.
     999901    1    3    3    0    0  0.98997514049E-02  0.48722007192E-01 -0.98564908154E-01  0.88689733351E+00  0.88000000000E+00 0.  1.
        -11    1    4    4    0    0  0.25910907601E-02 -0.16060900161E-01  0.20677762163E-01  0.26315342187E-01  0.51100000000E-03 0. -1.
         11    1    4    4    0    0 -0.11446955958E-01 -0.36102967333E-01  0.10071795546E+00  0.10760494749E+00  0.51100000000E-03 0.  1.
</event>
<event>
 8    1  0.1101883E+005  0.1043930E+01  0.7957747E-01            NaN
         13   -1    0    0    0    0  0.00000000000E+00  0.00000000000E+00  0.74505805969E-08  0.10566000000E+00  0.10566000000E+00 0.  1.
     999900   -1    0    0    0    0 -0.00000000000E+00 -0.00000000000E+00 -0.74505805969E-08  0.93827000000E+00  0.93827000000E+00 0. -1.
     999902    2    1    2    0    0  0.13313548059E-01 -0.14672546632E-01 -0.11744778787E-01  0.10208979785E+01  0.10206381379E+01 0.  0.
     999903    2    3    3    0    0 -0.83826616383E-01 -0.18117945379E-01  0.94438546425E-01  0.12920129189E+00  0.20473720138E-01 0.  0.
         14    1    1    2    0    0 -0.13313548059E-01  0.14672546632E-01  0.11744778787E-01  0.23032021521E-01  0.00000000000E+00 0.  1.
     999901    1    3    3    0    0  0.97140164442E-01  0.34453987472E-02 -0.10618332521E+00  0.89169668659E+00  0.88000000000E+00 0. -1.
        -11    1    4    4    0    0 -0.77595017918E-01 -0.21836111283E-01  0.83473569292E-01  0.11604266652E+00  0.51100000000E-03 0. -1.
         11    1    4    4    0    0 -0.62315984652E-02  0.37181659040E-02  0.10964977133E-01  0.13158625371E-01  0.51100000000E-03 0.  1.
</event>
<event>
 8    1  0.1101883E+005  0.1043930E+01  0.7957747E-01            NaN
         13   -1    0    0    0    0  0.00000000000E+00  0.00000000000E+00  0.74505805969E-08  0.10566000000E+00  0.10566000000E+00 0. -1.
     999900   -1    0    0    0    0 -0.00000000000E+00 -0.00000000000E+00 -0.74505805969E-08  0.93827000000E+00  0.93827000000E+00 0.  1.
     999902    2    1    2    0    0 -0.74705512877E-02  0.12440757626E-01  0.19723076394E-01  0.10194436501E+01  0.10191495349E+01 0.  0.
     999903    2    3    3    0    0 -0.77316200527E-01 -0.51145444224E-01  0.91251494702E-01  0.13150337377E+00  0.19304162722E-01 0.  0.
         14    1    1    2    0    0  0.74705512877E-02 -0.12440757626E-01 -0.19723076394E-01  0.24486349856E-01  0.00000000000E+00 0.  1.
     999901    1    3    3    0    0  0.69845649239E-01  0.63586201850E-01 -0.71528418308E-01  0.88794027638E+00  0.88000000000E+00 0.  1.
        -11    1    4    4    0    0 -0.39126061917E-01 -0.33975035487E-01  0.40918291634E-01  0.66028171781E-01  0.51100000000E-03 0.  1.
         11    1    4    4    0    0 -0.38190138609E-01 -0.17170408737E-01  0.50333203068E-01  0.65475201988E-01  0.51100000000E-03 0. -1.
</event>
<event>
 8    1  0.1101883E+005  0.1043930E+01  0.7957747E-01            NaN
         13   -1    0    0    0    0  0.00000000000E+00  0.00000000000E+00  0.74505805969E-08  0.10566000000E+00  0.10566000000E+00 0. -1.
     999900   -1    0    0    0    0 -0.00000000000E+00 -0.00000000000E+00 -0.74505805969E-08  0.93827000000E+00  0.93827000000E+00 0.  1.
     999902    2    1    2    0    0  0.79160785159E-02  0.18341912147E-01 -0.14333025845E-01  0.10193428963E+01  0.10190463260E+01 0.  0.
     999903    2    3    3    0    0 -0.10280241765E+00 -0.63060562728E-01 -0.38933348798E-01  0.12833777608E+00  0.20243702053E-01 0.  0.
         14    1    1    2    0    0 -0.79160785159E-02 -0.18341912147E-01  0.14333025845E-01  0.24587103736E-01  0.00000000000E+00 0.  1.
     999901    1    3    3    0    0  0.11071849617E+00  0.81402474875E-01  0.24600322953E-01  0.89100512019E+00  0.88000000000E+00 0. -1.
        -11    1    4    4    0    0 -0.18794080708E-01 -0.14937865459E-01 -0.15959632214E-01  0.28832763925E-01  0.51100000000E-03 0.  1.
         11    1    4    4    0    0 -0.84008336945E-01 -0.48122697269E-01 -0.22973716584E-01  0.99505012152E-01  0.51100000000E-03 0. -1.
</event>
<event>
 8    1  0.1101883E+005  0.1043930E+01  0.7957747E-01            NaN
         13   -1    0    0    0    0  0.00000000000E+00  0.00000000000E+00  0.74505805969E-08  0.10566000000E+00  0.10566000000E+00 0.  1.
     999900   -1    0    0    0    0 -0.00000000000E+00 -0.00000000000E+00 -0.74505805969E-08  0.93827000000E+00  0.93827000000E+00 0.  1.
     999902    2    1    2    0    0 -0.18897064950E-01 -0.12106742223E-01  0.89425615276E-02  0.10197713229E+01  0.10194851198E+01 0.  0.
     999903    2    3    3    0    0  0.12694025295E+00  0.34168977258E-02 -0.22806635529E-02  0.12756312555E+00  0.11901536266E-01 0.  0.
         14    1    1    2    0    0  0.18897064950E-01  0.12106742223E-01 -0.89425615276E-02  0.24158677067E-01  0.00000000000E+00 0. -1.
     999901    1    3    3    0    0 -0.14583731790E+00 -0.15523639949E-01  0.11223225080E-01  0.89220819738E+00  0.88000000000E+00 0. -1.
        -11    1    4    4    0    0  0.10408544776E+00  0.22102407080E-03  0.19024723200E-02  0.10410432176E+00  0.51100000000E-03 0. -1.
         11    1    4    4    0    0  0.22854805190E-01  0.31958736550E-02 -0.41831358728E-02  0.23458803794E-01  0.51100000000E-03 0.  1.
</event>
<event>
 8    1  0.1101883E+005  0.1043930E+01  0.7957747E-01            NaN
         13   -1    0    0    0    0  0.00000000000E+00  0.00000000000E+00  0.74505805969E-08  0.10566000000E+00  0.10566000000E+00 0. -1.
     999900   -1    0    0    0    0 -0.00000000000E+00 -0.00000000000E+00 -0.74505805969E-08  0.93827000000E+00  0.93827000000E+00 0.  1.
     999902    2    1    2    0    0 -0.20362736887E-02  0.13732935203E-01  0.16317686582E-01  0.10225055557E+01  0.10222810790E+01 0.  0.
     999903    2    3    3    0    0  0.61275252874E-01  0.10617746255E+00  0.51017880820E-01  0.13472267482E+00  0.22782993195E-01 0.  0.
         14    1    1    2    0    0  0.20362736887E-02 -0.13732935203E-01 -0.16317686582E-01  0.21424444338E-01  0.00000000000E+00 0.  1.
     999901    1    3    3    0    0 -0.63311526563E-01 -0.92444527349E-01 -0.34700194238E-01  0.88778288084E+00  0.88000000000E+00 0.  1.
        -11    1    4    4    0    0  0.25867765919E-01  0.67000244671E-01  0.31422307219E-01  0.78395131300E-01  0.51100000000E-03 0.  1.
         11    1    4    4    0    0  0.35407486956E-01  0.39177217881E-01  0.19595573601E-01  0.56327543521E-01  0.51100000000E-03 0. -1.
</event>
<event>
 8    1  0.1162673E+005  0.1043930E+01  0.7957747E-01            NaN
         13   -1    0    0    0    0  0.00000000000E+00  0.00000000000E+00  0.74505805969E-08  0.10566000000E+00  0.10566000000E+00 0.  1.
     999900   -1    0    0    0    0 -0.00000000000E+00 -0.00000000000E+00 -0.74505805969E-08  0.93827000000E+00  0.93827000000E+00 0.  1.
     999902    2    1    2    0    0  0.73823188071E-02 -0.18162823508E-01 -0.98049313094E-02  0.10220091545E+01  0.10217740398E+01 0.  0.
     999903    2    3    3    0    0  0.40239815987E-01 -0.99631373030E-01 -0.78941219655E-01  0.13493724872E+00  0.20753111806E-01 0.  0.
         14    1    1    2    0    0 -0.73823188071E-02  0.18162823508E-01  0.98049313094E-02  0.21920845484E-01  0.00000000000E+00 0.  1.
     999901    1    3    3    0    0 -0.32857497180E-01  0.81468549522E-01  0.69136288345E-01  0.88707190579E+00  0.88000000000E+00 0. -1.
        -11    1    4    4    0    0  0.89818400440E-02 -0.42616353739E-01 -0.23522430262E-01  0.49501443444E-01  0.51100000000E-03 0. -1.
         11    1    4    4    0    0  0.31257975943E-01 -0.57015019291E-01 -0.55418789393E-01  0.85435805278E-01  0.51100000000E-03 0.  1.
</event>
<event>
 8    1  0.1101883E+005  0.1043930E+01  0.7957747E-01            NaN
         13   -1    0    0    0    0  0.00000000000E+00  0.00000000000E+00  0.74505805969E-08  0.10566000000E+00  0.10566000000E+00 0.  1.
     999900   -1    0    0    0    0 -0.00000000000E+00 -0.00000000000E+00 -0.74505805969E-08  0.93827000000E+00  0.93827000000E+00 0. -1.
     999902    2    1    2    0    0  0.99936481180E-02 -0.78620103214E-02  0.20593770111E-01  0.10197269511E+01  0.10194396830E+01 0.  0.
     999903    2    3    3    0    0  0.41633719206E-01  0.23264220974E-01 -0.11691075663E+00  0.12794366394E+00  0.20660725381E-01 0.  0.
         14    1    1    2    0    0 -0.99936481180E-02  0.78620103214E-02 -0.20593770111E-01  0.24203048907E-01  0.00000000000E+00 0. -1.
     999901    1    3    3    0    0 -0.31640071088E-01 -0.31126231295E-01  0.13750452674E+00  0.89178328715E+00  0.88000000000E+00 0.  1.
        -11    1    4    4    0    0  0.34565770507E-01  0.26922658629E-01 -0.94727337629E-01  0.10437026231E+00  0.51100000000E-03 0.  1.
         11    1    4    4    0    0  0.70679486989E-02 -0.36584376554E-02 -0.22183419004E-01  0.23573401634E-01  0.51100000000E-03 0. -1.
</event>
<event>
 8    1  0.1101883E+005  0.1043930E+01  0.7957747E-01            NaN
         13   -1    0    0    0    0  0.00000000000E+00  0.00000000000E+00  0.74505805969E-08  0.10566000000E+00  0.10566000000E+00 0. -1.
     999900   -1    0    0    0    0 -0.00000000000E+00 -0.00000000000E+00 -0.74505805969E-08  0.93827000000E+00  0.93827000000E+00 0. -1.
     999902    2    1    2    0    0  0.11057726553E-01 -0.13118713449E-02 -0.23616995643E-01  0.10178195269E+01  0.10174845613E+01 0.  0.
     999903    2    3    3    0    0  0.58254840632E-01  0.93743062964E-01 -0.66149485672E-01  0.13042332404E+00  0.21286161912E-01 0.  0.
         14    1    1    2    0    0 -0.11057726553E-01  0.13118713449E-02  0.23616995643E-01  0.26110473112E-01  0.00000000000E+00 0. -1.
     999901    1    3    3    0    0 -0.47197114080E-01 -0.95054934309E-01  0.42532490029E-01  0.88739620284E+00  0.88000000000E+00 0.  1.
        -11    1    4    4    0    0  0.10329805648E-01  0.18113691196E-01 -0.22940893757E-01  0.31005748190E-01  0.51100000000E-03 0. -1.
         11    1    4    4    0    0  0.47925034985E-01  0.75629371768E-01 -0.43208591916E-01  0.99417575854E-01  0.51100000000E-03 0.  1.
</event>
<event>
 8    1  0.1101883E+005  0.1043930E+01  0.7957747E-01            NaN
         13   -1    0    0    0    0  0.00000000000E+00  0.00000000000E+00  0.74505805969E-08  0.10566000000E+00  0.10566000000E+00 0. -1.
     999900   -1    0    0    0    0 -0.00000000000E+00 -0.00000000000E+00 -0.74505805969E-08  0.93827000000E+00  0.93827000000E+00 0. -1.
     999902    2    1    2    0    0 -0.11423747862E-01  0.17333984516E-02 -0.20203491291E-01  0.10206558137E+01  0.10203904166E+01 0.  0.
     999903    2    3    3    0    0  0.67650905681E-01  0.98998440316E-01  0.44334497662E-01  0.12943281067E+00  0.20247680597E-01 0.  0.
         14    1    1    2    0    0  0.11423747862E-01 -0.17333984516E-02  0.20203491291E-01  0.23274186253E-01  0.00000000000E+00 0. -1.
     999901    1    3    3    0    0 -0.79074653542E-01 -0.97265041865E-01 -0.64537988953E-01  0.89122300308E+00  0.88000000000E+00 0. -1.
        -11    1    4    4    0    0  0.49672917528E-01  0.71369121875E-01  0.41479912914E-01  0.96342070713E-01  0.51100000000E-03 0. -1.
         11    1    4    4    0    0  0.17977988152E-01  0.27629318442E-01  0.28545847477E-02  0.33090739953E-01  0.51100000000E-03 0.  1.
</event>
<event>
 7    1  0.1101883E+005  0.1043930E+01  0.7957747E-01            NaN
         13   -1    0    0    0    0  0.00000000000E+00  0.00000000000E+00  0.74505805969E-08  0.10566000000E+00  0.10566000000E+00 0.  1.
     999900   -1    0    0    0    0 -0.00000000000E+00 -0.00000000000E+00 -0.74505805969E-08  0.93827000000E+00  0.93827000000E+00 0.  1.
     999903    2    1    2    0    0 -0.11090067169E+00 -0.91045823646E-03 -0.46354550469E-02  0.11262005857E+00  0.19026356277E-01 0.  0.
         14    1    1    2    0    0 -0.19129389466E-01 -0.34760829416E-01  0.10416658927E-01  0.41021404001E-01  0.00000000000E+00 0. -1.
     999901    1    1    2    0    0  0.13003006115E+00  0.35671287652E-01 -0.57812038804E-02  0.89028853743E+00  0.88000000000E+00 0.  1.
        -11    1    3    3    0    0 -0.78405443327E-01  0.11660307743E-02  0.52384574866E-02  0.78590557504E-01  0.51100000000E-03 0.  1.
         11    1    3    3    0    0 -0.32495228360E-01 -0.20764890108E-02 -0.98739125335E-02  0.34029501061E-01  0.51100000000E-03 0. -1.
</event>
<event>
 8    1  0.1101883E+005  0.1043930E+01  0.7957747E-01            NaN
         13   -1    0    0    0    0  0.00000000000E+00  0.00000000000E+00  0.74505805969E-08  0.10566000000E+00  0.10566000000E+00 0. -1.
     999900   -1    0    0    0    0 -0.00000000000E+00 -0.00000000000E+00 -0.74505805969E-08  0.93827000000E+00  0.93827000000E+00 0. -1.
     999902    2    1    2    0    0  0.93379986313E-02 -0.20120981355E-01 -0.57868688650E-02  0.10210053417E+01  0.10207479452E+01 0.  0.
     999903    2    3    3    0    0 -0.67825672587E-02  0.12789550509E+00 -0.45276339909E-02  0.12849744893E+00  0.93718445328E-02 0.  0.
         14    1    1    2    0    0 -0.93379986313E-02  0.20120981355E-01  0.57868688650E-02  0.22924658348E-01  0.00000000000E+00 0.  1.
     999901    1    3    3    0    0  0.16120565890E-01 -0.14801648645E+00 -0.12592348740E-02  0.89250789273E+00  0.88000000000E+00 0. -1.
        -11    1    4    4    0    0  0.24821529077E-03  0.80331971813E-01 -0.30218404601E-02  0.80390795163E-01  0.51100000000E-03 0. -1.
         11    1    4    4    0    0 -0.70307825494E-02  0.47563533278E-01 -0.15057935309E-02  0.48106653763E-01  0.51100000000E-03 0.  1.
</event>
<event>
 8    1  0.1101883E+005  0.1043930E+01  0.7957747E-01            NaN
         13   -1    0    0    0    0  0.00000000000E+00  0.00000000000E+00  0.74505805969E-08  0.10566000000E+00  0.10566000000E+00 0.  1.
     999900   -1    0    0    0    0 -0.00000000000E+00 -0.00000000000E+00 -0.74505805969E-08  0.93827000000E+00  0.93827000000E+00 0. -1.
     999902    2    1    2    0    0  0.12195201725E-01  0.61745691065E-03 -0.15272554946E-01  0.10243760967E+01  0.10241894514E+01 0.  0.
     999903    2    3    3    0    0 -0.94319030042E-01  0.40893436661E-01  0.80003087834E-01  0.13193848871E+00  0.20950373516E-01 0.  0.
         14    1    1    2    0    0 -0.12195201725E-01 -0.61745691065E-03  0.15272554946E-01  0.19553903261E-01  0.00000000000E+00 0.  1.
     999901    1    3    3    0    0  0.10651423177E+00 -0.40275979750E-01 -0.95275642780E-01  0.89243760803E+00  0.88000000000E+00 0. -1.
        -11    1    4    4    0    0 -0.62359759129E-01  0.33492124688E-01  0.44574896876E-01  0.83651924827E-01  0.51100000000E-03 0.  1.
         11    1    4    4    0    0 -0.31959270913E-01  0.74013119730E-02  0.35428190958E-01  0.48286563884E-01  0.51100000000E-03 0. -1.
</event>
<event>
 8    1  0.1101883E+005  0.1043930E+01  0.7957747E-01            NaN
         13   -1    0    0    0    0  0.00000000000E+00  0.00000000000E+00  0.74505805969E-08  0.10566000000E+00  0.10566000000E+00 0. -1.
     999900   -1    0    0    0    0 -0.00000000000E+00 -0.00000000000E+00 -0.74505805969E-08  0.93827000000E+00  0.93827000000E+00 0. -1.
     999902    2    1    2    0    0 -0.19167827314E-01 -0.12726388017E-01  0.57937216498E-02  0.10202037747E+01  0.10199278446E+01 0.  0.
     999903    2    3    3    0    0  0.96023408765E-01  0.26550571109E-01 -0.77852498006E-01  0.12789867529E+00  0.19277755017E-01 0.  0.
         14    1    1    2    0    0  0.19167827314E-01  0.12726388017E-01 -0.57937216498E-02  0.23726225289E-01  0.00000000000E+00 0.  1.
     999901    1    3    3    0    0 -0.11519123608E+00 -0.39276959126E-01  0.83646219656E-01  0.89230509942E+00  0.88000000000E+00 0.  1.
        -11    1    4    4    0    0  0.34467485517E-01  0.12536417244E-01 -0.17819361137E-01  0.40779407395E-01  0.51100000000E-03 0.  1.
         11    1    4    4    0    0  0.61555923248E-01  0.14014153865E-01 -0.60033136869E-01  0.87119267896E-01  0.51100000000E-03 0. -1.
</event>
<event>
 8    1  0.1101883E+005  0.1043930E+01  0.7957747E-01            NaN
         13   -1    0    0    0    0  0.00000000000E+00  0.00000000000E+00  0.74505805969E-08  0.10566000000E+00  0.10566000000E+00 0. -1.
     999900   -1    0    0    0    0 -0.00000000000E+00 -0.00000000000E+00 -0.74505805969E-08  0.93827000000E+00  0.93827000000E+00 0.  1.
     999902    2    1    2    0    0 -0.18637814307E-01 -0.57174548149E-02  0.29350724620E-02  0.10242152324E+01  0.10240254734E+01 0.  0.
     999903    2    3    3    0    0  0.12675995974E+00  0.48253657905E-03  0.31327341522E-01  0.13181113472E+00  0.18012569873E-01 0.  0.
         14    1    1    2    0    0  0.18637814307E-01  0.57174548149E-02 -0.29350724620E-02  0.19714767613E-01  0.00000000000E+00 0. -1.
     999901    1    3    3    0    0 -0.14539777405E+00 -0.61999913939E-02 -0.28392269060E-01  0.89240409767E+00  0.88000000000E+00 0.  1.
        -11    1    4    4    0    0  0.82012871539E-01 -0.81086479170E-02  0.18358718449E-01  0.84434382411E-01  0.51100000000E-03 0. -1.
         11    1    4    4    0    0  0.44747088204E-01  0.85911844961E-02  0.12968623072E-01  0.47376752307E-01  0.51100000000E-03 0.  1.
</event>
<event>
 8    1  0.1101883E+005  0.1043930E+01  0.7957747E-01            NaN
         13   -1    0    0    0    0  0.00000000000E+00  0.00000000000E+00  0.74505805969E-08  0.10566000000E+00  0.10566000000E+00 0. -1.
     999900   -1    0    0    0    0 -0.00000000000E+00 -0.00000000000E+00 -0.74505805969E-08  0.93827000000E+00  0.93827000000E+00 0. -1.
     999902    2    1    2    0    0 -0.12011286556E-01  0.51966211909E-02  0.18322167151E-01  0.10214138350E+01  0.10211656304E+01 0.  0.
     999903    2    3    3    0    0 -0.78761328075E-01 -0.37419706069E-01 -0.93860664731E-01  0.13076423660E+00  0.26189310542E-01 0.  0.
         14    1    1    2    0    0  0.12011286556E-01 -0.51966211909E-02 -0.18322167151E-01  0.22516164985E-01  0.00000000000E+00 0.  1.
     999901    1    3    3    0    0  0.66750041518E-01  0.42616327260E-01  0.11218283188E+00  0.89064959842E+00  0.88000000000E+00 0.  1.
        -11    1    4    4    0    0 -0.31066788328E-01 -0.26923122956E-01 -0.32922207279E-01  0.52670036452E-01  0.51100000000E-03 0.  1.
         11    1    4    4    0    0 -0.47694539747E-01 -0.10496583113E-01 -0.60938457452E-01  0.78094200145E-01  0.51100000000E-03 0. -1.
</event>
<event>
 7    1  0.1101883E+005  0.1043930E+01  0.7957747E-01            NaN
         13   -1    0    0    0    0  0.00000000000E+00  0.00000000000E+00  0.74505805969E-08  0.10566000000E+00  0.10566000000E+00 0. -1.
     999900   -1    0    0    0    0 -0.00000000000E+00 -0.00000000000E+00 -0.74505805969E-08  0.93827000000E+00  0.93827000000E+00 0. -1.
     999903    2    1    2    0    0  0.13502081382E-01  0.51257210102E-01  0.75434797565E-01  0.94383843103E-01  0.20206270465E-01 0.  0.
         14    1    1    2    0    0  0.45956281629E-01  0.27517703297E-01  0.23550849434E-01  0.58513642213E-01  0.00000000000E+00 0.  1.
     999901    1    1    2    0    0 -0.59458363011E-01 -0.78774913399E-01 -0.98985646999E-01  0.89103251468E+00  0.88000000000E+00 0. -1.
        -11    1    3    3    0    0  0.43592684222E-02  0.60199167536E-02  0.24685996422E-01  0.25785696795E-01  0.51100000000E-03 0.  1.
         11    1    3    3    0    0  0.91428129598E-02  0.45237293349E-01  0.50748801143E-01  0.68598146307E-01  0.51100000000E-03 0. -1.
</event>
<event>
 8    1  0.1101883E+005  0.1043930E+01  0.7957747E-01            NaN
         13   -1    0    0    0    0  0.00000000000E+00  0.00000000000E+00  0.74505805969E-08  0.10566000000E+00  0.10566000000E+00 0. -1.
     999900   -1    0    0    0    0 -0.00000000000E+00 -0.00000000000E+00 -0.74505805969E-08  0.93827000000E+00  0.93827000000E+00 0.  1.
     999902    2    1    2    0    0 -0.11421531521E-01  0.10032988571E-01  0.16778609809E-01  0.10212885780E+01  0.10210375731E+01 0.  0.
     999903    2    3    3    0    0  0.74195545372E-01 -0.10016626150E+00 -0.28653644412E-01  0.12913486465E+00  0.17791094218E-01 0.  0.
         14    1    1    2    0    0  0.11421531521E-01 -0.10032988571E-01 -0.16778609809E-01  0.22641421975E-01  0.00000000000E+00 0. -1.
     999901    1    3    3    0    0 -0.85617076892E-01  0.11019925007E+00  0.45432254221E-01  0.89215371338E+00  0.88000000000E+00 0.  1.
        -11    1    4    4    0    0  0.29860026588E-01 -0.52324956666E-01 -0.19151625766E-01  0.63218416371E-01  0.51100000000E-03 0.  1.
         11    1    4    4    0    0  0.44335518783E-01 -0.47841304833E-01 -0.95020186458E-02  0.65916448275E-01  0.51100000000E-03 0. -1.
</event>
<event>
 8    1  0.1101883E+005  0.1043930E+01  0.7957747E-01            NaN
         13   -1    0    0    0    0  0.00000000000E+00  0.00000000000E+00  0.74505805969E-08  0.10566000000E+00  0.10566000000E+00 0.  1.
     999900   -1    0    0    0    0 -0.00000000000E+00 -0.00000000000E+00 -0.74505805969E-08  0.93827000000E+00  0.93827000000E+00 0.  1.
     999902    2    1    2    0    0 -0.18996460394E-01  0.14897160579E-01 -0.45809237791E-02  0.10193581510E+01  0.10190619531E+01 0.  0.
     999903    2    3    3    0    0  0.49230319998E-01  0.69658446899E-01 -0.96211176442E-01  0.13028571568E+00  0.21020314112E-01 0.  0.
         14    1    1    2    0    0  0.18996460394E-01 -0.14897160579E-01  0.45809237791E-02  0.24571849004E-01  0.00000000000E+00 0. -1.
     999901    1    3    3    0    0 -0.68226780392E-01 -0.54761286320E-01  0.91630252663E-01  0.88907243532E+00  0.88000000000E+00 0.  1.
        -11    1    4    4    0    0  0.13890703923E-01  0.16718233204E-01 -0.39236863519E-01  0.44858037816E-01  0.51100000000E-03 0. -1.
         11    1    4    4    0    0  0.35339616075E-01  0.52940213695E-01 -0.56974312923E-01  0.85427677860E-01  0.51100000000E-03 0.  1.
</event>
<event>
 7    1  0.1101883E+005  0.1043930E+01  0.7957747E-01            NaN
         13   -1    0    0    0    0  0.00000000000E+00  0.00000000000E+00  0.74505805969E-08  0.10566000000E+00  0.10566000000E+00 0.  1.
     999900   -1    0    0    0    0 -0.00000000000E+00 -0.00000000000E+00 -0.74505805969E-08  0.93827000000E+00  0.93827000000E+00 0. -1.
     999902    2    1    2    0    0  0.98025939688E-02  0.20791962241E-01 -0.18418999257E-02  0.10208694463E+01  0.10206089541E+01 0.  0.
         14    1    1    2    0    0 -0.98025939688E-02 -0.20791962241E-01  0.18418999257E-02  0.23060553716E-01  0.00000000000E+00 0.  1.
     999901    1    3    3    0    0  0.85393441384E-01 -0.87349221721E-01 -0.12057921873E-01  0.88851973520E+00  0.88000000000E+00 0.  1.
        -11    1    3    3    0    0 -0.27662513807E-01  0.38653350731E-01  0.31429172995E-02  0.47638589851E-01  0.51100000000E-03 0. -1.
         11    1    3    3    0    0 -0.47928333608E-01  0.69487833231E-01  0.70731046480E-02  0.84711121229E-01  0.51100000000E-03 0.  1.
</event>
<event>
 8    1  0.1101883E+005  0.1043930E+01  0.7957747E-01            NaN
         13   -1    0    0    0    0  0.00000000000E+00  0.00000000000E+00  0.74505805969E-08  0.10566000000E+00  0.10566000000E+00 0.  1.
     999900   -1    0    0    0    0 -0.00000000000E+00 -0.00000000000E+00 -0.74505805969E-08  0.93827000000E+00  0.93827000000E+00 0.  1.
     999902    2    1    2    0    0  0.28767352077E-02 -0.22983518183E-01 -0.45193252357E-02  0.10203303811E+01  0.10200574222E+01 0.  0.
     999903    2    3    3    0    0 -0.82068700094E-01  0.96251028721E-01  0.61917046906E-02  0.12817157775E+00  0.19750546119E-01 0.  0.
         14    1    1    2    0    0 -0.28767352077E-02  0.22983518183E-01  0.45193252357E-02  0.23599618940E-01  0.00000000000E+00 0.  1.
     999901    1    3    3    0    0  0.84945435302E-01 -0.11923454690E+00 -0.10711029926E-01  0.89215880331E+00  0.88000000000E+00 0.  1.
        -11    1    4    4    0    0 -0.37314790633E-01  0.30507082450E-01 -0.18278247059E-02  0.48235648060E-01  0.51100000000E-03 0.  1.
         11    1    4    4    0    0 -0.44753909462E-01  0.65743946271E-01  0.80195293965E-02  0.79935929695E-01  0.51100000000E-03 0. -1.
</event>
<event>
 8    1  0.1101883E+005  0.1043930E+01  0.7957747E-01            NaN
         13   -1    0    0    0    0  0.00000000000E+00  0.00000000000E+00  0.74505805969E-08  0.10566000000E+00  0.10566000000E+00 0. -1.
     999900   -1    0    0    0    0 -0.00000000000E+00 -0.00000000000E+00 -0.74505805969E-08  0.93827000000E+00  0.93827000000E+00 0. -1.
     999902    2    1    2    0    0 -0.16416364820E-01  0.38188321692E-02  0.17221739878E-01  0.10198329289E+01  0.10195482009E+01 0.  0.
     999903    2    3    3    0    0  0.68716960017E-02  0.30387432082E-01 -0.12288857532E+00  0.12804869223E+00  0.18006926517E-01 0.  0.
         14    1    1    2    0    0  0.16416364820E-01 -0.38188321692E-02 -0.17221739878E-01  0.24097071139E-01  0.00000000000E+00 0.  1.
     999901    1    3    3    0    0 -0.23288060822E-01 -0.26568599912E-01  0.14011031520E+00  0.89178423663E+00  0.88000000000E+00 0.  1.
        -11    1    4    4    0    0 -0.45258715482E-02  0.18627768112E-01 -0.56395523575E-01  0.59566714350E-01  0.51100000000E-03 0.  1.
         11    1    4    4    0    0  0.11397567550E-01  0.11759663970E-01 -0.66493051747E-01  0.68481977880E-01  0.51100000000E-03 0. -1.
</event>
<event>
 8    1  0.1101883E+005  0.1043930E+01  0.7957747E-01            NaN
         13   -1    0    0    0    0  0.00000000000E+00  0.00000000000E+00  0.74505805969E-08  0.10566000000E+00  0.10566000000E+00 0.  1.
     999900   -1    0    0    0    0 -0.00000000000E+00 -0.00000000000E+00 -0.74505805969E-08  0.93827000000E+00  0.93827000000E+00 0.  1.
     999902    2    1    2    0    0  0.10529589050E-01 -0.72844992463E-02 -0.19959666621E-01  0.10202166184E+01  0.10199409905E+01 0.  0.
     999903    2    3    3    0    0 -0.29527307981E-01 -0.12626309767E+00 -0.52739712068E-02  0.13118561134E+00  0.19173369532E-01 0.  0.
         14    1    1    2    0    0 -0.10529589050E-01  0.72844992463E-02  0.19959666621E-01  0.23713381590E-01  0.00000000000E+00 0.  1.
     999901    1    3    3    0    0  0.40056897030E-01  0.11897859843E+00 -0.14685695414E-01  0.88903100707E+00  0.88000000000E+00 0.  1.
        -11    1    4    4    0    0 -0.29763469520E-01 -0.95831588364E-01 -0.77565670025E-02  0.10064781617E+00  0.51100000000E-03 0.  1.
         11    1    4    4    0    0  0.23616153894E-03 -0.30431509310E-01  0.24825957957E-02  0.30537795173E-01  0.51100000000E-03 0. -1.
</event>
<event>
 8    1  0.1101883E+005  0.1043930E+01  0.7957747E-01            NaN
         13   -1    0    0    0    0  0.00000000000E+00  0.00000000000E+00  0.74505805969E-08  0.10566000000E+00  0.10566000000E+00 0. -1.
     999900   -1    0    0    0    0 -0.00000000000E+00 -0.00000000000E+00 -0.74505805969E-08  0.93827000000E+00  0.93827000000E+00 0.  1.
     999902    2    1    2    0    0 -0.19330150401E-01 -0.69006076741E-02 -0.28845852698E-02  0.10232033521E+01  0.10229934046E+01 0.  0.
     999903    2    3    3    0    0 -0.61640170716E-01 -0.11086576482E+00 -0.42026452782E-01  0.13521068462E+00  0.20614995677E-01 0.  0.
         14    1    1    2    0    0  0.19330150401E-01  0.69006076741E-02  0.28845852698E-02  0.20726647895E-01  0.00000000000E+00 0. -1.
     999901    1    3    3    0    0  0.42310020315E-01  0.10396515714E+00  0.39141867512E-01  0.88799266749E+00  0.88000000000E+00 0.  1.
        -11    1    4    4    0    0 -0.55371867246E-01 -0.94469606992E-01 -0.28801544776E-01  0.11322694216E+00  0.51100000000E-03 0.  1.
         11    1    4    4    0    0 -0.62683034699E-02 -0.16396157826E-01 -0.13224908006E-01  0.21983742462E-01  0.51100000000E-03 0. -1.
</event>
<event>
 8    1  0.1101883E+005  0.1043930E+01  0.7957747E-01            NaN
         13   -1    0    0    0    0  0.00000000000E+00  0.00000000000E+00  0.74505805969E-08  0.10566000000E+00  0.10566000000E+00 0.  1.
     999900   -1    0    0    0    0 -0.00000000000E+00 -0.00000000000E+00 -0.74505805969E-08  0.93827000000E+00  0.93827000000E+00 0.  1.
     999902    2    1    2    0    0 -0.91354583402E-02  0.21491700661E-01  0.29679384785E-02  0.10203894296E+01  0.10201178508E+01 0.  0.
     999903    2    3    3    0    0 -0.12518041684E+00 -0.17775154122E-01 -0.29248630626E-01  0.13131900178E+00  0.20077474264E-01 0.  0.
         14    1    1    2    0    0  0.91354583402E-02 -0.21491700661E-01 -0.29679384785E-02  0.23540570409E-01  0.00000000000E+00 0. -1.
     999901    1    3    3    0    0  0.11604495850E+00  0.39266854782E-01  0.32216569105E-01  0.88907042781E+00  0.88000000000E+00 0. -1.
        -11    1    4    4    0    0 -0.10408476505E+00 -0.88542353568E-02 -0.28980394002E-01  0.10840738055E+00  0.51100000000E-03 0. -1.
         11    1    4    4    0    0 -0.21095651782E-01 -0.89209187648E-02 -0.26823662419E-03  0.22911621235E-01  0.51100000000E-03 0.  1.
</event>
<event>
 8    1  0.1101883E+005  0.1043930E+01  0.7957747E-01            NaN
         13   -1    0    0    0    0  0.00000000000E+00  0.00000000000E+00  0.74505805969E-08  0.10566000000E+00  0.10566000000E+00 0. -1.
     999900   -1    0    0    0    0 -0.00000000000E+00 -0.00000000000E+00 -0.74505805969E-08  0.93827000000E+00  0.93827000000E+00 0.  1.
     999902    2    1    2    0    0 -0.83803425598E-02 -0.11567832682E-01  0.19325630930E-01  0.10198982521E+01  0.10196150841E+01 0.  0.
     999903    2    3    3    0    0 -0.13291808394E-01 -0.10280136709E+00  0.81030742934E-01  0.13301877829E+00  0.19576026942E-01 0.  0.
         14    1    1    2    0    0  0.83803425598E-02  0.11567832682E-01 -0.19325630930E-01  0.24031747860E-01  0.00000000000E+00 0.  1.
     999901    1    3    3    0    0  0.49114658347E-02  0.91233534405E-01 -0.61705112004E-01  0.88687947385E+00  0.88000000000E+00 0. -1.
        -11    1    4    4    0    0 -0.11532861003E-01 -0.36590489929E-01  0.38192795593E-01  0.54137063019E-01  0.51100000000E-03 0.  1.
         11    1    4    4    0    0 -0.17589473915E-02 -0.66210877158E-01  0.42837947340E-01  0.78881715266E-01  0.51100000000E-03 0. -1.
</event>
<event>
 8    1  0.1101883E+005  0.1043930E+01  0.7957747E-01            NaN
         13   -1    0    0    0    0  0.00000000000E+00  0.00000000000E+00  0.74505805969E-08  0.10566000000E+00  0.10566000000E+00 0.  1.
     999900   -1    0    0    0    0 -0.00000000000E+00 -0.00000000000E+00 -0.74505805969E-08  0.93827000000E+00  0.93827000000E+00 0. -1.
     999902    2    1    2    0    0  0.73348077484E-02  0.19018359664E-01 -0.10812408845E-01  0.10208560841E+01  0.10205952865E+01 0.  0.
     999903    2    3    3    0    0  0.19306929360E-02 -0.11339121233E+00  0.56980645590E-01  0.12835544130E+00  0.19158046084E-01 0.  0.
         14    1    1    2    0    0 -0.73348077484E-02 -0.19018359664E-01  0.10812408845E-01  0.23073915881E-01  0.00000000000E+00 0. -1.
     999901    1    3    3    0    0  0.54041148124E-02  0.13240957199E+00 -0.67793054435E-01  0.89250064282E+00  0.88000000000E+00 0.  1.
        -11    1    4    4    0    0 -0.42064985737E-02 -0.10037502942E+00  0.47604655910E-01  0.11117241361E+00  0.51100000000E-03 0. -1.
         11    1    4    4    0    0  0.61371915098E-02 -0.13016182906E-01  0.93759896806E-02  0.17183027689E-01  0.51100000000E-03 0.  1.
</event>
<event>
 8    1  0.1101883E+005  0.1043930E+01  0.7957747E-01            NaN
         13   -1    0    0    0    0  0.00000000000E+00  0.00000000000E+00  0.74505805969E-08  0.10566000000E+00  0.10566000000E+00 0.  1.
     999900   -1    0    0    0    0 -0.00000000000E+00 -0.00000000000E+00 -0.74505805969E-08  0.93827000000E+00  0.93827000000E+00 0.  1.
     999902    2    1    2    0    0  0.96614974310E-02 -0.20869495197E-01  0.87480815398E-02  0.10193249336E+01  0.10190279245E+01 0.  0.
     999903    2    3    3    0    0  0.98078065596E-01 -0.23550486314E-01  0.82467585338E-01  0.13182324769E+00  0.20063241083E-01 0.  0.
         14    1    1    2    0    0 -0.96614974310E-02  0.20869495197E-01 -0.87480815398E-02  0.24605066410E-01  0.00000000000E+00 0. -1.
     999901    1    3    3    0    0 -0.88416568165E-01  0.26809911168E-02 -0.73719503798E-01  0.88750168590E+00  0.88000000000E+00 0.  1.
        -11    1    4    4    0    0  0.82764499717E-02 -0.83212213648E-02  0.88653106383E-02  0.14717241686E-01  0.51100000000E-03 0.  1.
         11    1    4    4    0    0  0.89801615625E-01 -0.15229264949E-01  0.73602274700E-01  0.11710600600E+00  0.51100000000E-03 0. -1.
</event>
<event>
 8    1  0.1101883E+005  0.1043930E+01  0.7957747E-01            NaN
         13   -1    0    0    0    0  0.00000000000E+00  0.00000000000E+00  0.74505805969E-08  0.10566000000E+00  0.10566000000E+00 0. -1.
     999900   -1    0    0    0    0 -0.00000000000E+00 -0.00000000000E+00 -0.74505805969E-08  0.93827000000E+00  0.93827000000E+00 0. -1.
     999902    2    1    2    0    0 -0.98110171793E-02 -0.56903381952E-02  0.21113274161E-01  0.10199632240E+01  0.10196816032E+01 0.  0.
     999903    2    3    3    0    0  0.18068757943E-01  0.11474805305E+00  0.56054328557E-01  0.13063563236E+00  0.20736079636E-01 0.  0.
         14    1    1    2    0    0  0.98110171793E-02  0.56903381952E-02 -0.21113274161E-01  0.23966776017E-01  0.00000000000E+00 0.  1.
     999901    1    3    3    0    0 -0.27879775122E-01 -0.12043839125E+00 -0.34941054396E-01  0.88932759163E+00  0.88000000000E+00 0. -1.
        -11    1    4    4    0    0  0.35616772902E-02  0.65648552724E-01  0.22820406511E-01  0.69594899915E-01  0.51100000000E-03 0.  1.
         11    1    4    4    0    0  0.14507080653E-01  0.49099500326E-01  0.33233922046E-01  0.61040732440E-01  0.51100000000E-03 0. -1.
</event>
<event>
 8    1  0.1101883E+005  0.1043930E+01  0.7957747E-01            NaN
         13   -1    0    0    0    0  0.00000000000E+00  0.00000000000E+00  0.74505805969E-08  0.10566000000E+00  0.10566000000E+00 0. -1.
     999900   -1    0    0    0    0 -0.00000000000E+00 -0.00000000000E+00 -0.74505805969E-08  0.93827000000E+00  0.93827000000E+00 0.  1.
     999902    2    1    2    0    0 -0.33636368130E-02 -0.19309561259E-01 -0.12222351059E-01  0.10208311023E+01  0.10205697332E+01 0.  0.
     999903    2    3    3    0    0 -0.97101645912E-01 -0.88699298294E-01  0.36283354913E-02  0.13299497205E+00  0.19447432083E-01 0.  0.
         14    1    1    2    0    0  0.33636368130E-02  0.19309561259E-01  0.12222351059E-01  0.23098897680E-01  0.00000000000E+00 0. -1.
     999901    1    3    3    0    0  0.93738009099E-01  0.69389737035E-01 -0.15850686550E-01  0.88783613027E+00  0.88000000000E+00 0. -1.
        -11    1    4    4    0    0 -0.75831595822E-01 -0.65633150853E-01 -0.51069824039E-02  0.10042153059E+00  0.51100000000E-03 0. -1.
         11    1    4    4    0    0 -0.21270050090E-01 -0.23066147441E-01  0.87353178952E-02  0.32573441457E-01  0.51100000000E-03 0.  1.
</event>
<event>
 8    1  0.1101883E+005  0.1043930E+01  0.7957747E-01            NaN
         13   -1    0    0    0    0  0.00000000000E+00  0.00000000000E+00  0.74505805969E-08  0.10566000000E+00  0.10566000000E+00 0.  1.
     999900   -1    0    0    0    0 -0.00000000000E+00 -0.00000000000E+00 -0.74505805969E-08  0.93827000000E+00  0.93827000000E+00 0.  1.
     999902    2    1    2    0    0 -0.13972197837E-01 -0.16918240561E-01  0.99469564317E-02  0.10198386921E+01  0.10195541019E+01 0.  0.
     999903    2    3    3    0    0 -0.40926819188E-01 -0.12420789941E+00  0.13236945269E-01  0.13290665039E+00  0.19655894601E-01 0.  0.
         14    1    1    2    0    0  0.13972197837E-01  0.16918240561E-01 -0.99469564317E-02  0.24091307942E-01  0.00000000000E+00 0. -1.
     999901    1    3    3    0    0  0.26954621351E-01  0.10728965885E+00 -0.32899888370E-02  0.88693204167E+00  0.88000000000E+00 0.  1.
        -11    1    4    4    0    0 -0.84200536600E-02 -0.50498969299E-01  0.10709362720E-01  0.52306737375E-01  0.51100000000E-03 0.  1.
         11    1    4    4    0    0 -0.32506765528E-01 -0.73708930115E-01  0.25275825483E-02  0.80599913017E-01  0.51100000000E-03 0. -1.
</event>
<event>
 8    1  0.1101883E+005  0.1043930E+01  0.7957747E-01            NaN
         13   -1    0    0    0    0  0.00000000000E+00  0.00000000000E+00  0.74505805969E-08  0.10566000000E+00  0.10566000000E+00 0. -1.
     999900   -1    0    0    0    0 -0.00000000000E+00 -0.00000000000E+00 -0.74505805969E-08  0.93827000000E+00  0.93827000000E+00 0. -1.
     999902    2    1    2    0    0  0.23282490324E-01  0.78387750181E-03  0.30239524307E-02  0.10204388717E+01  0.10201684458E+01 0.  0.
     999903    2    3    3    0    0 -0.40064422283E-01  0.10753866094E+00 -0.57080593491E-01  0.12969650068E+00  0.19830950682E-01 0.  0.
         14    1    1    2    0    0 -0.23282490324E-01 -0.78387750181E-03 -0.30239524307E-02  0.23491128281E-01  0.00000000000E+00 0.  1.
     999901    1    3    3    0    0  0.63346912607E-01 -0.10675478344E+00  0.60104545921E-01  0.89074237104E+00  0.88000000000E+00 0. -1.
        -11    1    4    4    0    0 -0.32263488801E-01  0.10158605191E+00 -0.53265313158E-01  0.11915583644E+00  0.51100000000E-03 0. -1.
         11    1    4    4    0    0 -0.78009334828E-02  0.59526090378E-02 -0.38152803324E-02  0.10540664238E-01  0.51100000000E-03 0.  1.
</event>
<event>
 8    1  0.1101883E+005  0.1043930E+01  0.7957747E-01            NaN
         13   -1    0    0    0    0  0.00000000000E+00  0.00000000000E+00  0.74505805969E-08  0.10566000000E+00  0.10566000000E+00 0. -1.
     999900   -1    0    0    0    0 -0.00000000000E+00 -0.00000000000E+00 -0.74505805969E-08  0.93827000000E+00  0.93827000000E+00 0.  1.
     999902    2    1    2    0    0  0.24603202381E-01 -0.22885404706E-02 -0.12427004297E-02  0.10191893596E+01  0.10188890280E+01 0.  0.
     999903    2    3    3    0    0  0.23882523220E-01  0.35018277611E-01  0.12127073456E+00  0.12991895085E+00  0.19382673912E-01 0.  0.
         14    1    1    2    0    0 -0.24603202381E-01  0.22885404706E-02  0.12427004297E-02  0.24740640437E-01  0.00000000000E+00 0.  1.
     999901    1    3    3    0    0  0.72067916140E-03 -0.37306818082E-01 -0.12251343499E+00  0.88927040871E+00  0.88000000000E+00 0.  1.
        -11    1    4    4    0    0  0.16879507325E-01  0.13493934798E-01  0.39002551745E-01  0.44592198954E-01  0.51100000000E-03 0.  1.
         11    1    4    4    0    0  0.70030158944E-02  0.21524342813E-01  0.82268182814E-01  0.85326751899E-01  0.51100000000E-03 0. -1.
</event>
<event>
 8    1  0.1101883E+005  0.1043930E+01  0.7957747E-01            NaN
         13   -1    0    0    0    0  0.00000000000E+00  0.00000000000E+00  0.74505805969E-08  0.10566000000E+00  0.10566000000E+00 0.  1.
     999900   -1    0    0    0    0 -0.00000000000E+00 -0.00000000000E+00 -0.74505805969E-08  0.93827000000E+00  0.93827000000E+00 0. -1.
     999902    2    1    2    0    0 -0.29868988645E-02 -0.14743661337E-01 -0.17905984919E-01  0.10205436491E+01  0.10202756580E+01 0.  0.
     999903    2    3    3    0    0  0.11275804846E+00  0.56728609728E-01 -0.26120058185E-01  0.13005353156E+00  0.17295981524E-01 0.  0.
         14    1    1    2    0    0  0.29868988645E-02  0.14743661337E-01  0.17905984919E-01  0.23386350942E-01  0.00000000000E+00 0.  1.
     999901    1    3    3    0    0 -0.11574494733E+00 -0.71472271065E-01  0.82140732653E-02  0.89049011750E+00  0.88000000000E+00 0. -1.
        -11    1    4    4    0    0  0.19364141187E-01  0.17460662351E-01 -0.60082522525E-02  0.26762004966E-01  0.51100000000E-03 0.  1.
         11    1    4    4    0    0  0.93393907275E-01  0.39267947377E-01 -0.20111805932E-01  0.10329152659E+00  0.51100000000E-03 0. -1.
</event>
<event>
 8    1  0.1101883E+005  0.1043930E+01  0.7957747E-01            NaN
         13   -1    0    0    0    0  0.00000000000E+00  0.00000000000E+00  0.74505805969E-08  0.10566000000E+00  0.10566000000E+00 0. -1.
     999900   -1    0    0    0    0 -0.00000000000E+00 -0.00000000000E+00 -0.74505805969E-08  0.93827000000E+00  0.93827000000E+00 0. -1.
     999902    2    1    2    0    0 -0.12294282243E-01 -0.13254471696E-01 -0.24561198574E-02  0.10256854687E+01  0.10255231923E+01 0.  0.
     999903    2    3    3    0    0  0.70242495328E-02  0.74451623276E-01  0.10938462470E+00  0.13407237053E+00  0.20445540598E-01 0.  0.
         14    1    1    2    0    0  0.12294282243E-01  0.13254471696E-01  0.24561198574E-02  0.18244531251E-01  0.00000000000E+00 0. -1.
     999901    1    3    3    0    0 -0.19318531776E-01 -0.87706094973E-01 -0.11184074456E+00  0.89161309821E+00  0.88000000000E+00 0. -1.
        -11    1    4    4    0    0  0.27600765370E-02  0.15812567192E-01  0.40136624543E-01  0.43230371898E-01  0.51100000000E-03 0.  1.
         11    1    4    4    0    0  0.42641729958E-02  0.58639056085E-01  0.69248000155E-01  0.90841998636E-01  0.51100000000E-03 0. -1.
</event>
<event>
 8    1  0.1101883E+005  0.1043930E+01  0.7957747E-01            NaN
         13   -1    0    0    0    0  0.00000000000E+00  0.00000000000E+00  0.74505805969E-08  0.10566000000E+00  0.10566000000E+00 0. -1.
     999900   -1    0    0    0    0 -0.00000000000E+00 -0.00000000000E+00 -0.74505805969E-08  0.93827000000E+00  0.93827000000E+00 0. -1.
     999902    2    1    2    0    0  0.22150599506E-01 -0.55971903613E-02 -0.47467321796E-02  0.10205952820E+01  0.10203284866E+01 0.  0.
     999903    2    3    3    0    0 -0.29228681334E-01  0.11064878007E+00 -0.57914199936E-01  0.12987661946E+00  0.20406209451E-01 0.  0.
         14    1    1    2    0    0 -0.22150599506E-01  0.55971903613E-02  0.47467321796E-02  0.23334718015E-01  0.00000000000E+00 0.  1.
     999901    1    3    3    0    0  0.51379280841E-01 -0.11624597043E+00  0.53167467757E-01  0.89071866252E+00  0.88000000000E+00 0.  1.
        -11    1    4    4    0    0 -0.99743073511E-02  0.74322393503E-01 -0.40452885538E-01  0.85205645661E-01  0.51100000000E-03 0.  1.
         11    1    4    4    0    0 -0.19254373983E-01  0.36326386570E-01 -0.17461314398E-01  0.44670973800E-01  0.51100000000E-03 0. -1.
</event>
<event>
 8    1  0.1101883E+005  0.1043930E+01  0.7957747E-01            NaN
         13   -1    0    0    0    0  0.00000000000E+00  0.00000000000E+00  0.74505805969E-08  0.10566000000E+00  0.10566000000E+00 0.  1.
     999900   -1    0    0    0    0 -0.00000000000E+00 -0.00000000000E+00 -0.74505805969E-08  0.93827000000E+00  0.93827000000E+00 0. -1.
     999902    2    1    2    0    0 -0.86033397800E-02 -0.22715518276E-01  0.44982465447E-02  0.10192268332E+01  0.10189274219E+01 0.  0.
     999903    2    3    3    0    0  0.73685832602E-01 -0.65407069863E-01 -0.82805883361E-01  0.13006088272E+00  0.18743857138E-01 0.  0.
         14    1    1    2    0    0  0.86033397800E-02  0.22715518276E-01 -0.44982465447E-02  0.24703166759E-01  0.00000000000E+00 0. -1.
     999901    1    3    3    0    0 -0.82289172382E-01  0.42691551587E-01  0.87304129905E-01  0.88916595052E+00  0.88000000000E+00 0.  1.
        -11    1    4    4    0    0  0.11351863328E-01 -0.20107052308E-01 -0.22065521492E-01  0.31942240266E-01  0.51100000000E-03 0. -1.
         11    1    4    4    0    0  0.62333969273E-01 -0.45300017555E-01 -0.60740361869E-01  0.98118642453E-01  0.51100000000E-03 0.  1.
</event>
<event>
 7    1  0.1101883E+005  0.1043930E+01  0.7957747E-01            NaN
         13   -1    0    0    0    0  0.00000000000E+00  0.00000000000E+00  0.74505805969E-08  0.10566000000E+00  0.10566000000E+00 0. -1.
     999900   -1    0    0    0    0 -0.00000000000E+00 -0.00000000000E+00 -0.74505805969E-08  0.93827000000E+00  0.93827000000E+00 0. -1.
     999903    2    1    2    0    0  0.82142372292E-02 -0.96418530814E-01  0.69734773306E-01  0.12089786892E+00  0.19731936645E-01 0.  0.
         14    1    1    2    0    0 -0.18904290316E-01  0.22619906989E-01 -0.25156370569E-01  0.38754036754E-01  0.00000000000E+00 0.  1.
     999901    1    1    2    0    0  0.10690053087E-01  0.73798623825E-01 -0.44578402737E-01  0.88427809433E+00  0.88000000000E+00 0. -1.
        -11    1    3    3    0    0 -0.44344436364E-02 -0.60497334452E-01  0.43706127210E-01  0.74766827155E-01  0.51100000000E-03 0.  1.
         11    1    3    3    0    0  0.12648680866E-01 -0.35921196361E-01  0.26028646096E-01  0.46131041765E-01  0.51100000000E-03 0. -1.
</event>
<event>
 8    1  0.1101883E+005  0.1043930E+01  0.7957747E-01            NaN
         13   -1    0    0    0    0  0.00000000000E+00  0.00000000000E+00  0.74505805969E-08  0.10566000000E+00  0.10566000000E+00 0. -1.
     999900   -1    0    0    0    0 -0.00000000000E+00 -0.00000000000E+00 -0.74505805969E-08  0.93827000000E+00  0.93827000000E+00 0. -1.
     999902    2    1    2    0    0  0.11485625927E-01 -0.17587066064E-01 -0.16478378380E-01  0.10172324074E+01  0.10168820036E+01 0.  0.
     999903    2    3    3    0    0  0.30429575046E-01  0.68859802932E-01  0.98222974937E-01  0.12538694164E+00  0.20161865790E-01 0.  0.
         14    1    1    2    0    0 -0.11485625927E-01  0.17587066064E-01  0.16478378380E-01  0.26697592582E-01  0.00000000000E+00 0. -1.
     999901    1    3    3    0    0 -0.18943949119E-01 -0.86446868996E-01 -0.11470135332E+00  0.89184546577E+00  0.88000000000E+00 0. -1.
        -11    1    4    4    0    0  0.95393844604E-02  0.35956823999E-01  0.34793943377E-01  0.50938911107E-01  0.51100000000E-03 0.  1.
         11    1    4    4    0    0  0.20890190586E-01  0.32902978934E-01  0.63429031559E-01  0.74448030538E-01  0.51100000000E-03 0. -1.
</event>
<event>
 8    1  0.1101883E+005  0.1043930E+01  0.7957747E-01            NaN
         13   -1    0    0    0    0  0.00000000000E+00  0.00000000000E+00  0.74505805969E-08  0.10566000000E+00  0.10566000000E+00 0.  1.
     999900   -1    0    0    0    0 -0.00000000000E+00 -0.00000000000E+00 -0.74505805969E-08  0.93827000000E+00  0.93827000000E+00 0.  1.
     999902    2    1    2    0    0 -0.58241783131E-03 -0.22469021882E-01  0.83779635984E-02  0.10199427861E+01  0.10196606791E+01 0.  0.
     999903    2    3    3    0    0  0.10421416749E+00  0.71784633098E-01  0.12141433127E-01  0.12871877419E+00  0.20186187729E-01 0.  0.
         14    1    1    2    0    0  0.58241783131E-03  0.22469021882E-01 -0.83779635984E-02  0.23987213863E-01  0.00000000000E+00 0. -1.
     999901    1    3    3    0    0 -0.10479658532E+00 -0.94253654980E-01 -0.37634695282E-02  0.89122401195E+00  0.88000000000E+00 0.  1.
        -11    1    4    4    0    0  0.92233889636E-01  0.55696901725E-01  0.13592755364E-01  0.10860137835E+00  0.51100000000E-03 0. -1.
         11    1    4    4    0    0  0.11980277855E-01  0.16087731373E-01 -0.14513222372E-02  0.20117395842E-01  0.51100000000E-03 0.  1.
</event>
<event>
 8    1  0.1101883E+005  0.1043930E+01  0.7957747E-01            NaN
         13   -1    0    0    0    0  0.00000000000E+00  0.00000000000E+00  0.74505805969E-08  0.10566000000E+00  0.10566000000E+00 0. -1.
     999900   -1    0    0    0    0 -0.00000000000E+00 -0.00000000000E+00 -0.74505805969E-08  0.93827000000E+00  0.93827000000E+00 0. -1.
     999902    2    1    2    0    0 -0.15581051784E-01 -0.74264171631E-02 -0.14923680436E-01  0.10211125268E+01  0.10208575587E+01 0.  0.
     999903    2    3    3    0    0  0.11927509183E+00 -0.19560059820E-01 -0.43947799475E-01  0.13028380910E+00  0.20816300388E-01 0.  0.
         14    1    1    2    0    0  0.15581051784E-01  0.74264171631E-02  0.14923680436E-01  0.22817473224E-01  0.00000000000E+00 0. -1.
     999901    1    3    3    0    0 -0.13485614362E+00  0.12133642657E-01  0.29024119039E-01  0.89082871768E+00  0.88000000000E+00 0. -1.
        -11    1    4    4    0    0  0.10881447240E-01  0.27435711800E-02 -0.84747254430E-02  0.14071786283E-01  0.51100000000E-03 0.  1.
         11    1    4    4    0    0  0.10839364459E+00 -0.22303631000E-01 -0.35473074032E-01  0.11621202281E+00  0.51100000000E-03 0. -1.
</event>
<event>
 8    1  0.1101883E+005  0.1043930E+01  0.7957747E-01            NaN
         13   -1    0    0    0    0  0.00000000000E+00  0.00000000000E+00  0.74505805969E-08  0.10566000000E+00  0.10566000000E+00 0. -1.
     999900   -1    0    0    0    0 -0.00000000000E+00 -0.00000000000E+00 -0.74505805969E-08  0.93827000000E+00  0.93827000000E+00 0.  1.
     999902    2    1    2    0    0  0.16328667134E-01  0.12337437644E-01 -0.18261156583E-01  0.10165017741E+01  0.10161316593E+01 0.  0.
     999903    2    3    3    0    0  0.11632722824E+00  0.43459310905E-01 -0.36344466333E-01  0.13010722912E+00  0.13646798217E-01 0.  0.
         14    1    1    2    0    0 -0.16328667134E-01 -0.12337437644E-01  0.18261156583E-01  0.27428225931E-01  0.00000000000E+00 0. -1.
     999901    1    3    3    0    0 -0.99998561110E-01 -0.31121873262E-01  0.18083309751E-01  0.88639454495E+00  0.88000000000E+00 0.  1.
        -11    1    4    4    0    0  0.60462669993E-01  0.21340792341E-01 -0.11778464760E-01  0.65193229967E-01  0.51100000000E-03 0. -1.
         11    1    4    4    0    0  0.55864558251E-01  0.22118518565E-01 -0.24566001573E-01  0.64913999156E-01  0.51100000000E-03 0.  1.
</event>
<event>
 8    1  0.1101883E+005  0.1043930E+01  0.7957747E-01            NaN
         13   -1    0    0    0    0  0.00000000000E+00  0.00000000000E+00  0.74505805969E-08  0.10566000000E+00  0.10566000000E+00 0. -1.
     999900   -1    0    0    0    0 -0.00000000000E+00 -0.00000000000E+00 -0.74505805969E-08  0.93827000000E+00  0.93827000000E+00 0. -1.
     999902    2    1    2    0    0 -0.72625730265E-02 -0.85913306859E-02 -0.23421898790E-01  0.10179465192E+01  0.10176148460E+01 0.  0.
     999903    2    3    3    0    0  0.93478618495E-01  0.30451389615E-01 -0.81513253198E-01  0.12943780958E+00  0.21075978163E-01 0.  0.
         14    1    1    2    0    0  0.72625730265E-02  0.85913306859E-02  0.23421898790E-01  0.25983480769E-01  0.00000000000E+00 0. -1.
     999901    1    3    3    0    0 -0.10074119152E+00 -0.39042720301E-01  0.58091354408E-01  0.88850870966E+00  0.88000000000E+00 0.  1.
        -11    1    4    4    0    0  0.43242750177E-01  0.12492806657E-01 -0.24088816158E-01  0.51054263739E-01  0.51100000000E-03 0. -1.
         11    1    4    4    0    0  0.50235868317E-01  0.17958582959E-01 -0.57424437040E-01  0.78383545836E-01  0.51100000000E-03 0.  1.
</event>
<event>
 8    1  0.1101883E+005  0.1043930E+01  0.7957747E-01            NaN
         13   -1    0    0    0    0  0.00000000000E+00  0.00000000000E+00  0.74505805969E-08  0.10566000000E+00  0.10566000000E+00 0. -1.
     999900   -1    0    0    0    0 -0.00000000000E+00 -0.00000000000E+00 -0.74505805969E-08  0.93827000000E+00  0.93827000000E+00 0. -1.
     999902    2    1    2    0    0 -0.11340423310E-01  0.10908492688E-01 -0.17604288819E-01  0.10203183207E+01  0.10200450795E+01 0.  0.
     999903    2    3    3    0    0  0.78368710699E-01  0.55374546093E-01  0.83566922215E-01  0.12888095748E+00  0.20466449181E-01 0.  0.
         14    1    1    2    0    0  0.11340423310E-01 -0.10908492688E-01  0.17604288819E-01  0.23611679280E-01  0.00000000000E+00 0. -1.
     999901    1    3    3    0    0 -0.89709134009E-01 -0.44466053405E-01 -0.10117121103E+00  0.89143736324E+00  0.88000000000E+00 0. -1.
        -11    1    4    4    0    0  0.46772081532E-01  0.44089878411E-01  0.50190754619E-01  0.81553160327E-01  0.51100000000E-03 0. -1.
         11    1    4    4    0    0  0.31596629167E-01  0.11284667683E-01  0.33376167595E-01  0.47327797157E-01  0.51100000000E-03 0.  1.
</event>
<event>
 8    1  0.1101883E+005  0.1043930E+01  0.7957747E-01            NaN
         13   -1    0    0    0    0  0.00000000000E+00  0.00000000000E+00  0.74505805969E-08  0.10566000000E+00  0.10566000000E+00 0. -1.
     999900   -1    0    0    0    0 -0.00000000000E+00 -0.00000000000E+00 -0.74505805969E-08  0.93827000000E+00  0.93827000000E+00 0.  1.
     999902    2    1    2    0    0 -0.96027354481E-02  0.18159972044E-01 -0.10090179597E-01  0.10210431296E+01  0.10207865907E+01 0.  0.
     999903    2    3    3    0    0 -0.27163728080E-01  0.12639075279E+00 -0.28151565581E-01  0.13405468320E+00  0.21579085496E-01 0.  0.
         14    1    1    2    0    0  0.96027354481E-02 -0.18159972044E-01  0.10090179597E-01  0.22886870407E-01  0.00000000000E+00 0.  1.
     999901    1    3    3    0    0  0.17560992632E-01 -0.10823078074E+00  0.18061385984E-01  0.88698844639E+00  0.88000000000E+00 0.  1.
        -11    1    4    4    0    0 -0.15944614600E-01  0.44448177477E-01 -0.18761933595E-01  0.50814786125E-01  0.51100000000E-03 0.  1.
         11    1    4    4    0    0 -0.11219113480E-01  0.81942575311E-01 -0.93896319867E-02  0.83239897079E-01  0.51100000000E-03 0. -1.
</event>
<event>
 8    1  0.1101883E+005  0.1043930E+01  0.7957747E-01            NaN
         13   -1    0    0    0    0  0.00000000000E+00  0.00000000000E+00  0.74505805969E-08  0.10566000000E+00  0.10566000000E+00 0. -1.
     999900   -1    0    0    0    0 -0.00000000000E+00 -0.00000000000E+00 -0.74505805969E-08  0.93827000000E+00  0.93827000000E+00 0. -1.
     999902    2    1    2    0    0 -0.13902152604E-01 -0.10017699213E-01  0.11182930484E-01  0.10234682777E+01  0.10232637165E+01 0.  0.
     999903    2    3    3    0    0 -0.81948135264E-01  0.44471416437E-01 -0.92708009752E-01  0.13307923525E+00  0.20545170472E-01 0.  0.
         14    1    1    2    0    0  0.13902152604E-01  0.10017699213E-01 -0.11182930484E-01  0.20461722282E-01  0.00000000000E+00 0.  1.
     999901    1    3    3    0    0  0.68045982661E-01 -0.54489115650E-01  0.10389094024E+00  0.89038904247E+00  0.88000000000E+00 0.  1.
        -11    1    4    4    0    0 -0.44058837067E-01  0.35253572576E-01 -0.52758335391E-01  0.77250880754E-01  0.51100000000E-03 0. -1.
         11    1    4    4    0    0 -0.37889298198E-01  0.92178438612E-02 -0.39949674361E-01  0.55828354497E-01  0.51100000000E-03 0.  1.
</event>
<event>
 8    1  0.1101883E+005  0.1043930E+01  0.7957747E-01            NaN
         13   -1    0    0    0    0  0.00000000000E+00  0.00000000000E+00  0.74505805969E-08  0.10566000000E+00  0.10566000000E+00 0. -1.
     999900   -1    0    0    0    0 -0.00000000000E+00 -0.00000000000E+00 -0.74505805969E-08  0.93827000000E+00  0.93827000000E+00 0. -1.
     999902    2    1    2    0    0  0.16134624805E-01 -0.81257486584E-02 -0.14478828573E-01  0.10207785338E+01  0.10205159601E+01 0.  0.
     999903    2    3    3    0    0 -0.91209301534E-01  0.77350549743E-01 -0.45756913452E-01  0.12959548041E+00  0.19976215424E-01 0.  0.
         14    1    1    2    0    0 -0.16134624805E-01  0.81257486584E-02  0.14478828573E-01  0.23151466167E-01  0.00000000000E+00 0. -1.
     999901    1    3    3    0    0  0.10734392634E+00 -0.85476298401E-01  0.31278084879E-01  0.89118305342E+00  0.88000000000E+00 0.  1.
        -11    1    4    4    0    0 -0.22835839842E-01  0.23422441426E-01 -0.38126917493E-02  0.32937578585E-01  0.51100000000E-03 0. -1.
         11    1    4    4    0    0 -0.68373461692E-01  0.53928108317E-01 -0.41944221703E-01  0.96657901827E-01  0.51100000000E-03 0.  1.
</event>
<event>
 8    1  0.1101883E+005  0.1043930E+01  0.7957747E-01            NaN
         13   -1    0    0    0    0  0.00000000000E+00  0.00000000000E+00  0.74505805969E-08  0.10566000000E+00  0.10566000000E+00 0.  1.
     999900   -1    0    0    0    0 -0.00000000000E+00 -0.00000000000E+00 -0.74505805969E-08  0.93827000000E+00  0.93827000000E+00 0. -1.
     999902    2    1    2    0    0  0.12214011447E-01  0.17198297000E-01  0.96127360287E-02  0.10207487966E+01  0.10204855401E+01 0.  0.
     999903    2    3    3    0    0  0.41085375691E-01  0.11956640477E+00 -0.37126518605E-01  0.13311297994E+00  0.18882632187E-01 0.  0.
         14    1    1    2    0    0 -0.12214011447E-01 -0.17198297000E-01 -0.96127360287E-02  0.23181203361E-01  0.00000000000E+00 0. -1.
     999901    1    3    3    0    0 -0.28871364244E-01 -0.10236810778E+00  0.46739254634E-01  0.88763581670E+00  0.88000000000E+00 0.  1.
        -11    1    4    4    0    0  0.13796744057E-01  0.60778808558E-01 -0.25104163945E-01  0.67192960083E-01  0.51100000000E-03 0.  1.
         11    1    4    4    0    0  0.27288631634E-01  0.58787596217E-01 -0.12022354660E-01  0.65920019857E-01  0.51100000000E-03 0. -1.
</event>
<event>
 8    1  0.1101883E+005  0.1043930E+01  0.7957747E-01            NaN
         13   -1    0    0    0    0  0.00000000000E+00  0.00000000000E+00  0.74505805969E-08  0.10566000000E+00  0.10566000000E+00 0.  1.
     999900   -1    0    0    0    0 -0.00000000000E+00 -0.00000000000E+00 -0.74505805969E-08  0.93827000000E+00  0.93827000000E+00 0.  1.
     999902    2    1    2    0    0 -0.11955946416E-01 -0.16803462503E-01  0.10124278462E-01  0.10209560578E+01  0.10206975408E+01 0.  0.
     999903    2    3    3    0    0  0.10577484426E+00  0.65725097744E-01  0.20967661844E-01  0.12922230755E+00  0.27398098027E-01 0.  0.
         14    1    1    2    0    0  0.11955946416E-01  0.16803462503E-01 -0.10124278462E-01  0.22973942221E-01  0.00000000000E+00 0.  1.
     999901    1    3    3    0    0 -0.11773079067E+00 -0.82528560247E-01 -0.10843383382E-01  0.89173375023E+00  0.88000000000E+00 0. -1.
        -11    1    4    4    0    0  0.34494128282E-01  0.31303235632E-01  0.18209318535E-01  0.50015776006E-01  0.51100000000E-03 0.  1.
         11    1    4    4    0    0  0.71280715974E-01  0.34421862111E-01  0.27583433095E-02  0.79206531547E-01  0.51100000000E-03 0. -1.
</event>
<event>
 8    1  0.1101883E+005  0.1043930E+01  0.7957747E-01            NaN
         13   -1    0    0    0    0  0.00000000000E+00  0.00000000000E+00  0.74505805969E-08  0.10566000000E+00  0.10566000000E+00 0. -1.
     999900   -1    0    0    0    0 -0.00000000000E+00 -0.00000000000E+00 -0.74505805969E-08  0.93827000000E+00  0.93827000000E+00 0.  1.
     999902    2    1    2    0    0 -0.53841429567E-02 -0.91038834799E-02 -0.21189563316E-01  0.10202473633E+01  0.10199724579E+01 0.  0.
     999903    2    3    3    0    0  0.12145957421E+00  0.18227840612E-01  0.32779042974E-01  0.12909700434E+00  0.22514185104E-01 0.  0.
         14    1    1    2    0    0  0.53841429567E-02  0.91038834799E-02  0.21189563316E-01  0.23682636747E-01  0.00000000000E+00 0. -1.
     999901    1    3    3    0    0 -0.12684371716E+00 -0.27331724092E-01 -0.53968606290E-01  0.89115035891E+00  0.88000000000E+00 0.  1.
        -11    1    4    4    0    0  0.56702841101E-01  0.12506977136E-01  0.26356397886E-01  0.63769565598E-01  0.51100000000E-03 0.  1.
         11    1    4    4    0    0  0.64756733107E-01  0.57208634754E-02  0.64226450887E-02  0.65327438742E-01  0.51100000000E-03 0. -1.
</event>
<event>
 8    1  0.1101883E+005  0.1043930E+01  0.7957747E-01            NaN
         13   -1    0    0    0    0  0.00000000000E+00  0.00000000000E+00  0.74505805969E-08  0.10566000000E+00  0.10566000000E+00 0. -1.
     999900   -1    0    0    0    0 -0.00000000000E+00 -0.00000000000E+00 -0.74505805969E-08  0.93827000000E+00  0.93827000000E+00 0. -1.
     999902    2    1    2    0    0  0.11571631412E-01  0.21076426365E-01  0.20272292107E-03  0.10198850525E+01  0.10196015697E+01 0.  0.
     999903    2    3    3    0    0 -0.57964672088E-01  0.45118755490E-02 -0.11470809663E+00  0.12954007541E+00  0.15569954160E-01 0.  0.
         14    1    1    2    0    0 -0.11571631412E-01 -0.21076426365E-01 -0.20272292107E-03  0.24044947462E-01  0.00000000000E+00 0.  1.
     999901    1    3    3    0    0  0.69536303500E-01  0.16564550816E-01  0.11491081955E+00  0.89034497713E+00  0.88000000000E+00 0.  1.
        -11    1    4    4    0    0 -0.39016350790E-01  0.59941271947E-02 -0.61937242017E-01  0.73448541575E-01  0.51100000000E-03 0.  1.
         11    1    4    4    0    0 -0.18948321298E-01 -0.14822516457E-02 -0.52770854616E-01  0.56091533834E-01  0.51100000000E-03 0. -1.
</event>
<event>
 8    1  0.1101883E+005  0.1043930E+01  0.7957747E-01            NaN
         13   -1    0    0    0    0  0.00000000000E+00  0.00000000000E+00  0.74505805969E-08  0.10566000000E+00  0.10566000000E+00 0. -1.
     999900   -1    0    0    0    0 -0.00000000000E+00 -0.00000000000E+00 -0.74505805969E-08  0.93827000000E+00  0.93827000000E+00 0. -1.
     999902    2    1    2    0    0  0.12581549893E-02 -0.49460599817E-02 -0.22748114414E-01  0.10206164166E+01  0.10203501098E+01 0.  0.
     999903    2    3    3    0    0  0.16435320921E-01 -0.89291187044E-01  0.90434768763E-01  0.12923837562E+00  0.16765275866E-01 0.  0.
         14    1    1    2    0    0 -0.12581549893E-02  0.49460599817E-02  0.22748114414E-01  0.23313583438E-01  0.00000000000E+00 0. -1.
     999901    1    3    3    0    0 -0.15177165932E-01  0.84345127063E-01 -0.11318288318E+00  0.89137804094E+00  0.88000000000E+00 0. -1.
        -11    1    4    4    0    0  0.16422390115E-01 -0.64496209584E-01  0.57121634104E-01  0.87707457787E-01  0.51100000000E-03 0.  1.
         11    1    4    4    0    0  0.12930805939E-04 -0.24794977460E-01  0.33313134659E-01  0.41530917835E-01  0.51100000000E-03 0. -1.
</event>
<event>
 8    1  0.1101883E+005  0.1043930E+01  0.7957747E-01            NaN
         13   -1    0    0    0    0  0.00000000000E+00  0.00000000000E+00  0.74505805969E-08  0.10566000000E+00  0.10566000000E+00 0. -1.
     999900   -1    0    0    0    0 -0.00000000000E+00 -0.00000000000E+00 -0.74505805969E-08  0.93827000000E+00  0.93827000000E+00 0.  1.
     999902    2    1    2    0    0 -0.11090970542E-01  0.13547062967E-01 -0.15044819886E-01  0.10208458247E+01  0.10205847925E+01 0.  0.
     999903    2    3    3    0    0  0.10276878178E+00 -0.65477224433E-01  0.35934973037E-01  0.12854104469E+00  0.19564980275E-01 0.  0.
         14    1    1    2    0    0  0.11090970542E-01 -0.13547062967E-01  0.15044819886E-01  0.23084175273E-01  0.00000000000E+00 0.  1.
     999901    1    3    3    0    0 -0.11385975233E+00  0.79024287400E-01 -0.50979792923E-01  0.89230478004E+00  0.88000000000E+00 0. -1.
        -11    1    4    4    0    0  0.15338175585E-01 -0.17682979891E-01  0.30476707597E-02  0.23611370696E-01  0.51100000000E-03 0.  1.
         11    1    4    4    0    0  0.87430606198E-01 -0.47794244542E-01  0.32887302277E-01  0.10492967399E+00  0.51100000000E-03 0. -1.
</event>
<event>
 8    1  0.1101883E+005  0.1043930E+01  0.7957747E-01            NaN
         13   -1    0    0    0    0  0.00000000000E+00  0.00000000000E+00  0.74505805969E-08  0.10566000000E+00  0.10566000000E+00 0. -1.
     999900   -1    0    0    0    0 -0.00000000000E+00 -0.00000000000E+00 -0.74505805969E-08  0.93827000000E+00  0.93827000000E+00 0. -1.
     999902    2    1    2    0    0  0.71010681997E-02 -0.13553516835E-01 -0.17249823666E-01  0.10208718256E+01  0.10206113878E+01 0.  0.
     999903    2    3    3    0    0  0.12771021916E+00 -0.91212691388E-02 -0.28527619257E-01  0.13256253222E+00  0.19128571760E-01 0.  0.
         14    1    1    2    0    0 -0.71010681997E-02  0.13553516835E-01  0.17249823666E-01  0.23058174357E-01  0.00000000000E+00 0. -1.
     999901    1    3    3    0    0 -0.12060915096E+00 -0.44322476963E-02  0.11277795591E-01  0.88830929343E+00  0.88000000000E+00 0. -1.
        -11    1    4    4    0    0  0.59153708556E-01  0.27240029374E-02 -0.64467161282E-02  0.59568470668E-01  0.51100000000E-03 0. -1.
         11    1    4    4    0    0  0.68556510607E-01 -0.11845272076E-01 -0.22080903129E-01  0.72994061547E-01  0.51100000000E-03 0.  1.
</event>
<event>
 8    1  0.1101883E+005  0.1043930E+01  0.7957747E-01            NaN
         13   -1    0    0    0    0  0.00000000000E+00  0.00000000000E+00  0.74505805969E-08  0.10566000000E+00  0.10566000000E+00 0. -1.
     999900   -1    0    0    0    0 -0.00000000000E+00 -0.00000000000E+00 -0.74505805969E-08  0.93827000000E+00  0.93827000000E+00 0. -1.
     999902    2    1    2    0    0  0.37866410027E-02 -0.73867971150E-03  0.25187424033E-01  0.10184488182E+01  0.10181300038E+01 0.  0.
     999903    2    3    3    0    0 -0.99866362481E-01 -0.42197658655E-01 -0.63029843921E-01  0.12702014552E+00  0.20184731654E-01 0.  0.
         14    1    1    2    0    0 -0.37866410027E-02  0.73867971150E-03 -0.25187424033E-01  0.25481181826E-01  0.00000000000E+00 0.  1.
     999901    1    3    3    0    0  0.10365300348E+00  0.41458978944E-01  0.88217267954E-01  0.89142867266E+00  0.88000000000E+00 0.  1.
        -11    1    4    4    0    0 -0.57753989345E-01 -0.14251712422E-01 -0.38291053004E-01  0.70746734577E-01  0.51100000000E-03 0. -1.
         11    1    4    4    0    0 -0.42112373136E-01 -0.27945946233E-01 -0.24738790917E-01  0.56273410942E-01  0.51100000000E-03 0.  1.
</event>
<event>
 8    1  0.1101883E+005  0.1043930E+01  0.7957747E-01            NaN
         13   -1    0    0    0    0  0.00000000000E+00  0.00000000000E+00  0.74505805969E-08  0.10566000000E+00  0.10566000000E+00 0.  1.
     999900   -1    0    0    0    0 -0.00000000000E+00 -0.00000000000E+00 -0.74505805969E-08  0.93827000000E+00  0.93827000000E+00 0.  1.
     999902    2    1    2    0    0 -0.16949212276E-01 -0.30957216830E-02  0.17160996300E-01  0.10196121242E+01  0.10193220908E+01 0.  0.
     999903    2    3    3    0    0 -0.79644220358E-01  0.10022191345E+00 -0.17552212739E-01  0.13067444098E+00  0.19496040125E-01 0.  0.
         14    1    1    2    0    0  0.16949212276E-01  0.30957216830E-02 -0.17160996300E-01  0.24317875802E-01  0.00000000000E+00 0. -1.
     999901    1    3    3    0    0  0.62695008082E-01 -0.10331763513E+00  0.34713209040E-01  0.88893768322E+00  0.88000000000E+00 0. -1.
        -11    1    4    4    0    0 -0.61454815097E-01  0.86983961853E-01 -0.10154858216E-01  0.10698731787E+00  0.51100000000E-03 0.  1.
         11    1    4    4    0    0 -0.18189405260E-01  0.13237951598E-01 -0.73973545234E-02  0.23687123109E-01  0.51100000000E-03 0. -1.
</event>
<event>
 8    1  0.1101883E+005  0.1043930E+01  0.7957747E-01            NaN
         13   -1    0    0    0    0  0.00000000000E+00  0.00000000000E+00  0.74505805969E-08  0.10566000000E+00  0.10566000000E+00 0.  1.
     999900   -1    0    0    0    0 -0.00000000000E+00 -0.00000000000E+00 -0.74505805969E-08  0.93827000000E+00  0.93827000000E+00 0. -1.
     999902    2    1    2    0    0  0.16733074794E-01 -0.96230095404E-02  0.13107764843E-01  0.10205973704E+01  0.10203306233E+01 0.  0.
     999903    2    3    3    0    0 -0.12237410822E+00  0.32275163157E-01 -0.76435969792E-02  0.12844442149E+00  0.20553255673E-01 0.  0.
         14    1    1    2    0    0 -0.16733074794E-01  0.96230095404E-02 -0.13107764843E-01  0.23332629595E-01  0.00000000000E+00 0. -1.
     999901    1    3    3    0    0  0.13910718301E+00 -0.41898172697E-01  0.20751361822E-01  0.89215294891E+00  0.88000000000E+00 0.  1.
        -11    1    4    4    0    0 -0.39096631695E-01  0.14363691565E-01  0.62960613150E-02  0.42127945053E-01  0.51100000000E-03 0. -1.
         11    1    4    4    0    0 -0.83277476520E-01  0.17911471592E-01 -0.13939658294E-01  0.86316476437E-01  0.51100000000E-03 0.  1.
</event>
<event>
 8    1  0.1101883E+005  0.1043930E+01  0.7957747E-01            NaN
         13   -1    0    0    0    0  0.00000000000E+00  0.00000000000E+00  0.74505805969E-08  0.10566000000E+00  0.10566000000E+00 0.  1.
     999900   -1    0    0    0    0 -0.00000000000E+00 -0.00000000000E+00 -0.74505805969E-08  0.93827000000E+00  0.93827000000E+00 0. -1.
     999902    2    1    2    0    0  0.21855061808E-01  0.57149457334E-02  0.49508446202E-02  0.10208039283E+01  0.10205419368E+01 0.  0.
     999903    2    3    3    0    0 -0.10539880930E+00 -0.68520175619E-01 -0.14305682540E-01  0.12834932730E+00  0.21563251025E-01 0.  0.
         14    1    1    2    0    0 -0.21855061808E-01 -0.57149457334E-02 -0.49508446202E-02  0.23126071733E-01  0.00000000000E+00 0.  1.
     999901    1    3    3    0    0  0.12725387111E+00  0.74235121353E-01  0.19256527160E-01  0.89245460097E+00  0.88000000000E+00 0.  1.
        -11    1    4    4    0    0 -0.50312681343E-01 -0.25755587091E-01 -0.15461257218E-01  0.58600578206E-01  0.51100000000E-03 0.  1.
         11    1    4    4    0    0 -0.55086127961E-01 -0.42764588528E-01  0.11555746783E-02  0.69748749090E-01  0.51100000000E-03 0. -1.
</event>
<event>
 8    1  0.1101883E+005  0.1043930E+01  0.7957747E-01            NaN
         13   -1    0    0    0    0  0.00000000000E+00  0.00000000000E+00  0.74505805969E-08  0.10566000000E+00  0.10566000000E+00 0. -1.
     999900   -1    0    0    0    0 -0.00000000000E+00 -0.00000000000E+00 -0.74505805969E-08  0.93827000000E+00  0.93827000000E+00 0. -1.
     999902    2    1    2    0    0  0.11125904016E-01  0.16909805767E-01 -0.11781428224E-01  0.10205092971E+01  0.10202405090E+01 0.  0.
     999903    2    3    3    0    0 -0.80509429728E-01  0.53383253190E-01  0.84367925953E-01  0.12979495176E+00  0.19930945230E-01 0.  0.
         14    1    1    2    0    0 -0.11125904016E-01 -0.16909805767E-01  0.11781428224E-01  0.23420702855E-01  0.00000000000E+00 0.  1.
     999901    1    3    3    0    0  0.91635333744E-01 -0.36473447423E-01 -0.96149354176E-01  0.89071434538E+00  0.88000000000E+00 0. -1.
        -11    1    4    4    0    0 -0.23384016051E-01  0.22489285119E-01  0.38148480397E-01  0.50081412015E-01  0.51100000000E-03 0. -1.
         11    1    4    4    0    0 -0.57125413677E-01  0.30893968071E-01  0.46219445556E-01  0.79713539750E-01  0.51100000000E-03 0.  1.
</event>
<event>
 8    1  0.1101883E+005  0.1043930E+01  0.7957747E-01            NaN
         13   -1    0    0    0    0  0.00000000000E+00  0.00000000000E+00  0.74505805969E-08  0.10566000000E+00  0.10566000000E+00 0. -1.
     999900   -1    0    0    0    0 -0.00000000000E+00 -0.00000000000E+00 -0.74505805969E-08  0.93827000000E+00  0.93827000000E+00 0. -1.
     999902    2    1    2    0    0 -0.15556435382E-01 -0.15593025732E-01  0.73430062550E-02  0.10207122293E+01  0.10204481321E+01 0.  0.
     999903    2    3    3    0    0  0.50942656099E-01  0.10887257311E+00  0.41903469085E-01  0.12879954301E+00  0.19622185669E-01 0.  0.
         14    1    1    2    0    0  0.15556435382E-01  0.15593025732E-01 -0.73430062550E-02  0.23217770653E-01  0.00000000000E+00 0. -1.
     999901    1    3    3    0    0 -0.66499091480E-01 -0.12446559885E+00 -0.34560462830E-01  0.89191268634E+00  0.88000000000E+00 0.  1.
        -11    1    4    4    0    0  0.23009785909E-01  0.53796450801E-01  0.10252097636E-01  0.59404334802E-01  0.51100000000E-03 0. -1.
         11    1    4    4    0    0  0.27932870190E-01  0.55076122313E-01  0.31651371449E-01  0.69395208204E-01  0.51100000000E-03 0.  1.
</event>
<event>
 8    1  0.1101883E+005  0.1043930E+01  0.7957747E-01            NaN
         13   -1    0    0    0    0  0.00000000000E+00  0.00000000000E+00  0.74505805969E-08  0.10566000000E+00  0.10566000000E+00 0.  1.
     999900   -1    0    0    0    0 -0.00000000000E+00 -0.00000000000E+00 -0.74505805969E-08  0.93827000000E+00  0.93827000000E+00 0. -1.
     999902    2    1    2    0    0  0.57751660508E-02 -0.13091188049E-02 -0.24640101613E-01  0.10185883161E+01  0.10182730266E+01 0.  0.
     999903    2    3    3    0    0 -0.94045134626E-01 -0.57266550534E-01 -0.66468955179E-01  0.13019370807E+00  0.20207287367E-01 0.  0.
         14    1    1    2    0    0 -0.57751660508E-02  0.13091188049E-02  0.24640101613E-01  0.25341683892E-01  0.00000000000E+00 0.  1.
     999901    1    3    3    0    0  0.99820300677E-01  0.55957431729E-01  0.41828853566E-01  0.88839460803E+00  0.88000000000E+00 0.  1.
        -11    1    4    4    0    0 -0.52563197297E-01 -0.21290473037E-01 -0.28831802794E-01  0.63621599521E-01  0.51100000000E-03 0. -1.
         11    1    4    4    0    0 -0.41481937329E-01 -0.35976077498E-01 -0.37637152385E-01  0.66572108554E-01  0.51100000000E-03 0.  1.
</event>
<event>
 8    1  0.1101883E+005  0.1043930E+01  0.7957747E-01            NaN
         13   -1    0    0    0    0  0.00000000000E+00  0.00000000000E+00  0.74505805969E-08  0.10566000000E+00  0.10566000000E+00 0.  1.
     999900   -1    0    0    0    0 -0.00000000000E+00 -0.00000000000E+00 -0.74505805969E-08  0.93827000000E+00  0.93827000000E+00 0. -1.
     999902    2    1    2    0    0 -0.97664180078E-02 -0.21776528919E-01 -0.10841395744E-02  0.10200390919E+01  0.10197592723E+01 0.  0.
     999903    2    3    3    0    0 -0.77942093096E-01  0.47711567728E-01 -0.89158735543E-01  0.13030112331E+00  0.26033421615E-01 0.  0.
         14    1    1    2    0    0  0.97664180078E-02  0.21776528919E-01  0.10841395744E-02  0.23890908126E-01  0.00000000000E+00 0.  1.
     999901    1    3    3    0    0  0.68175675088E-01 -0.69488096647E-01  0.88074595968E-01  0.88973796856E+00  0.88000000000E+00 0.  1.
        -11    1    4    4    0    0 -0.67982252401E-01  0.32212834289E-01 -0.79655546029E-01  0.10956514258E+00  0.51100000000E-03 0.  1.
         11    1    4    4    0    0 -0.99598406955E-02  0.15498733439E-01 -0.95031895133E-02  0.20735980730E-01  0.51100000000E-03 0. -1.
</event>
<event>
 8    1  0.1101883E+005  0.1043930E+01  0.7957747E-01            NaN
         13   -1    0    0    0    0  0.00000000000E+00  0.00000000000E+00  0.74505805969E-08  0.10566000000E+00  0.10566000000E+00 0.  1.
     999900   -1    0    0    0    0 -0.00000000000E+00 -0.00000000000E+00 -0.74505805969E-08  0.93827000000E+00  0.93827000000E+00 0.  1.
     999902    2    1    2    0    0 -0.20314722270E-02  0.23589440869E-01 -0.11204195626E-03  0.10202529826E+01  0.10199782092E+01 0.  0.
     999903    2    3    3    0    0  0.97302798192E-01 -0.78139334250E-01  0.22577733931E-01  0.12855187409E+00  0.21029507141E-01 0.  0.
         14    1    1    2    0    0  0.20314722270E-02 -0.23589440869E-01  0.11204195626E-03  0.23677017408E-01  0.00000000000E+00 0.  1.
     999901    1    3    3    0    0 -0.99334270419E-01  0.10172877512E+00 -0.22689775887E-01  0.89170110850E+00  0.88000000000E+00 0. -1.
        -11    1    4    4    0    0  0.61687005880E-01 -0.58906792179E-01  0.21911607389E-01  0.88066318866E-01  0.51100000000E-03 0. -1.
         11    1    4    4    0    0  0.35615792312E-01 -0.19232542071E-01  0.66612654136E-03  0.40485555228E-01  0.51100000000E-03 0.  1.
</event>
<event>
 8    1  0.1101883E+005  0.1043930E+01  0.7957747E-01            NaN
         13   -1    0    0    0    0  0.00000000000E+00  0.00000000000E+00  0.74505805969E-08  0.10566000000E+00  0.10566000000E+00 0. -1.
     999900   -1    0    0    0    0 -0.00000000000E+00 -0.00000000000E+00 -0.74505805969E-08  0.93827000000E+00  0.93827000000E+00 0. -1.
     999902    2    1    2    0    0 -0.35746088945E-02 -0.23032576027E-01  0.43834901814E-02  0.10202130783E+01  0.10199373671E+01 0.  0.
     999903    2    3    3    0    0  0.87287027686E-01 -0.86196062924E-01  0.45398804952E-01  0.13233486646E+00  0.20066861321E-01 0.  0.
         14    1    1    2    0    0  0.35746088945E-02  0.23032576027E-01 -0.43834901814E-02  0.23716921667E-01  0.00000000000E+00 0. -1.
     999901    1    3    3    0    0 -0.90861636580E-01  0.63163486897E-01 -0.41015314771E-01  0.88787821188E+00  0.88000000000E+00 0. -1.
        -11    1    4    4    0    0  0.51334859171E-01 -0.63564673614E-01  0.27192103907E-01  0.86112758251E-01  0.51100000000E-03 0. -1.
         11    1    4    4    0    0  0.35952168515E-01 -0.22631389309E-01  0.18206701045E-01  0.46222108205E-01  0.51100000000E-03 0.  1.
</event>
<event>
 8    1  0.1101883E+005  0.1043930E+01  0.7957747E-01            NaN
         13   -1    0    0    0    0  0.00000000000E+00  0.00000000000E+00  0.74505805969E-08  0.10566000000E+00  0.10566000000E+00 0.  1.
     999900   -1    0    0    0    0 -0.00000000000E+00 -0.00000000000E+00 -0.74505805969E-08  0.93827000000E+00  0.93827000000E+00 0.  1.
     999902    2    1    2    0    0 -0.13333139395E-02  0.25758885188E-01  0.19882185611E-03  0.10181358646E+01  0.10178090692E+01 0.  0.
     999903    2    3    3    0    0  0.71421558357E-01 -0.10055894858E+00  0.16545247679E-01  0.12599424342E+00  0.19689159863E-01 0.  0.
         14    1    1    2    0    0  0.13333139395E-02 -0.25758885188E-01 -0.19882185611E-03  0.25794135424E-01  0.00000000000E+00 0. -1.
     999901    1    3    3    0    0 -0.72754872297E-01  0.12631783376E+00 -0.16346425822E-01  0.89214162116E+00  0.88000000000E+00 0. -1.
        -11    1    4    4    0    0  0.59653155794E-01 -0.89083347736E-01  0.81293046044E-02  0.10752064246E+00  0.51100000000E-03 0. -1.
         11    1    4    4    0    0  0.11768402563E-01 -0.11475600840E-01  0.84159430741E-02  0.18473600958E-01  0.51100000000E-03 0.  1.
</event>
<event>
 8    1  0.1101883E+005  0.1043930E+01  0.7957747E-01            NaN
         13   -1    0    0    0    0  0.00000000000E+00  0.00000000000E+00  0.74505805969E-08  0.10566000000E+00  0.10566000000E+00 0. -1.
     999900   -1    0    0    0    0 -0.00000000000E+00 -0.00000000000E+00 -0.74505805969E-08  0.93827000000E+00  0.93827000000E+00 0. -1.
     999902    2    1    2    0    0 -0.15938961980E-01 -0.13958791017E-01  0.61134931964E-02  0.10218783979E+01  0.10216404392E+01 0.  0.
     999903    2    3    3    0    0 -0.62518250627E-01 -0.85736831802E-01 -0.78809458658E-01  0.13365904154E+00  0.19861334895E-01 0.  0.
         14    1    1    2    0    0  0.15938961980E-01  0.13958791017E-01 -0.61134931964E-02  0.22051602090E-01  0.00000000000E+00 0.  1.
     999901    1    3    3    0    0  0.46579288647E-01  0.71778040785E-01  0.84922951854E-01  0.88821935636E+00  0.88000000000E+00 0.  1.
        -11    1    4    4    0    0 -0.40155753765E-01 -0.58436310251E-01 -0.63517730103E-01  0.95194800671E-01  0.51100000000E-03 0. -1.
         11    1    4    4    0    0 -0.22362496862E-01 -0.27300521550E-01 -0.15291728555E-01  0.38464240874E-01  0.51100000000E-03 0.  1.
</event>
<event>
 8    1  0.1101883E+005  0.1043930E+01  0.7957747E-01            NaN
         13   -1    0    0    0    0  0.00000000000E+00  0.00000000000E+00  0.74505805969E-08  0.10566000000E+00  0.10566000000E+00 0.  1.
     999900   -1    0    0    0    0 -0.00000000000E+00 -0.00000000000E+00 -0.74505805969E-08  0.93827000000E+00  0.93827000000E+00 0. -1.
     999902    2    1    2    0    0 -0.10659549223E-01 -0.20112230266E-01  0.89244305801E-02  0.10194805980E+01  0.10191873805E+01 0.  0.
     999903    2    3    3    0    0  0.81950396411E-01 -0.35152570831E-01 -0.90899766934E-01  0.12888097738E+00  0.19898944556E-01 0.  0.
         14    1    1    2    0    0  0.10659549223E-01  0.20112230266E-01 -0.89244305801E-02  0.24449401978E-01  0.00000000000E+00 0.  1.
     999901    1    3    3    0    0 -0.92609945634E-01  0.15040340566E-01  0.99824197514E-01  0.89059962064E+00  0.88000000000E+00 0.  1.
        -11    1    4    4    0    0  0.67351779782E-01 -0.36652158342E-01 -0.76274262640E-01  0.10815575442E+00  0.51100000000E-03 0. -1.
         11    1    4    4    0    0  0.14598616628E-01  0.14995875102E-02 -0.14625504294E-01  0.20725222967E-01  0.51100000000E-03 0.  1.
</event>
<event>
 8    1  0.1101883E+005  0.1043930E+01  0.7957747E-01            NaN
         13   -1    0    0    0    0  0.00000000000E+00  0.00000000000E+00  0.74505805969E-08  0.10566000000E+00  0.10566000000E+00 0.  1.
     999900   -1    0    0    0    0 -0.00000000000E+00 -0.00000000000E+00 -0.74505805969E-08  0.93827000000E+00  0.93827000000E+00 0.  1.
     999902    2    1    2    0    0 -0.15275544210E-01 -0.43500556069E-02  0.17291108910E-01  0.10204513356E+01  0.10201811999E+01 0.  0.
     999903    2    3    3    0    0 -0.12719842785E+00  0.31267633803E-01 -0.91172780702E-04  0.13247752101E+00  0.19828774303E-01 0.  0.
         14    1    1    2    0    0  0.15275544210E-01  0.43500556069E-02 -0.17291108910E-01  0.23478664400E-01  0.00000000000E+00 0. -1.
     999901    1    3    3    0    0  0.11192288364E+00 -0.35617689410E-01  0.17382281690E-01  0.88797381459E+00  0.88000000000E+00 0. -1.
        -11    1    4    4    0    0 -0.86368024501E-01  0.25656472092E-01 -0.81932269552E-02  0.90471433642E-01  0.51100000000E-03 0.  1.
         11    1    4    4    0    0 -0.40830403346E-01  0.56111617103E-02  0.81020541745E-02  0.42006087368E-01  0.51100000000E-03 0. -1.
</event>
<event>
 8    1  0.1101883E+005  0.1043930E+01  0.7957747E-01            NaN
         13   -1    0    0    0    0  0.00000000000E+00  0.00000000000E+00  0.74505805969E-08  0.10566000000E+00  0.10566000000E+00 0. -1.
     999900   -1    0    0    0    0 -0.00000000000E+00 -0.00000000000E+00 -0.74505805969E-08  0.93827000000E+00  0.93827000000E+00 0.  1.
     999902    2    1    2    0    0  0.92298355358E-02 -0.23666123273E-03 -0.22043416625E-01  0.10200310860E+01  0.10197510767E+01 0.  0.
     999903    2    3    3    0    0 -0.31189611469E-01 -0.82792259099E-01  0.90513050898E-01  0.12811286286E+00  0.19822795394E-01 0.  0.
         14    1    1    2    0    0 -0.92298355358E-02  0.23666123273E-03  0.22043416625E-01  0.23898913973E-01  0.00000000000E+00 0. -1.
     999901    1    3    3    0    0  0.40419447005E-01  0.82555597866E-01 -0.11255646752E+00  0.89191822317E+00  0.88000000000E+00 0.  1.
        -11    1    4    4    0    0 -0.14979344046E-01 -0.61981681440E-01  0.70015105115E-01  0.94702088929E-01  0.51100000000E-03 0. -1.
         11    1    4    4    0    0 -0.16210267423E-01 -0.20810577658E-01  0.20497945783E-01  0.33410773932E-01  0.51100000000E-03 0.  1.
</event>
<event>
 8    1  0.1101883E+005  0.1043930E+01  0.7957747E-01            NaN
         13   -1    0    0    0    0  0.00000000000E+00  0.00000000000E+00  0.74505805969E-08  0.10566000000E+00  0.10566000000E+00 0. -1.
     999900   -1    0    0    0    0 -0.00000000000E+00 -0.00000000000E+00 -0.74505805969E-08  0.93827000000E+00  0.93827000000E+00 0. -1.
     999902    2    1    2    0    0  0.12027299488E-01  0.19527872723E-01  0.52901313424E-02  0.10203932365E+01  0.10201217466E+01 0.  0.
     999903    2    3    3    0    0 -0.12146852912E+00  0.19095796635E-01  0.36445457386E-01  0.12977997741E+00  0.19882609414E-01 0.  0.
         14    1    1    2    0    0 -0.12027299488E-01 -0.19527872723E-01 -0.52901313424E-02  0.23536763492E-01  0.00000000000E+00 0.  1.
     999901    1    3    3    0    0  0.13349582860E+00  0.43207608718E-03 -0.31155326044E-01  0.89061325910E+00  0.88000000000E+00 0. -1.
        -11    1    4    4    0    0 -0.74802876128E-01  0.19292880547E-02  0.21498754735E-01  0.77856598985E-01  0.51100000000E-03 0.  1.
         11    1    4    4    0    0 -0.46665652989E-01  0.17166508581E-01  0.14946702651E-01  0.51923378423E-01  0.51100000000E-03 0. -1.
</event>
<event>
 8    1  0.1101883E+005  0.1043930E+01  0.7957747E-01            NaN
         13   -1    0    0    0    0  0.00000000000E+00  0.00000000000E+00  0.74505805969E-08  0.10566000000E+00  0.10566000000E+00 0.  1.
     999900   -1    0    0    0    0 -0.00000000000E+00 -0.00000000000E+00 -0.74505805969E-08  0.93827000000E+00  0.93827000000E+00 0. -1.
     999902    2    1    2    0    0  0.17978483236E-01  0.11801422820E-01  0.80455581702E-02  0.10209685008E+01  0.10207102670E+01 0.  0.
     999903    2    3    3    0    0 -0.53256064564E-01 -0.10519295050E+00  0.49501227185E-01  0.12940772513E+00  0.19855039224E-01 0.  0.
         14    1    1    2    0    0 -0.17978483236E-01 -0.11801422820E-01 -0.80455581702E-02  0.22961499218E-01  0.00000000000E+00 0. -1.
     999901    1    3    3    0    0  0.71234547800E-01  0.11699437332E+00 -0.41455669015E-01  0.89156077565E+00  0.88000000000E+00 0. -1.
        -11    1    4    4    0    0 -0.39453627992E-01 -0.64552967839E-01  0.23494223609E-01  0.79220667016E-01  0.51100000000E-03 0.  1.
         11    1    4    4    0    0 -0.13802436572E-01 -0.40639982662E-01  0.26007003576E-01  0.50187058113E-01  0.51100000000E-03 0. -1.
</event>
<event>
 8    1  0.1101883E+005  0.1043930E+01  0.7957747E-01            NaN
         13   -1    0    0    0    0  0.00000000000E+00  0.00000000000E+00  0.74505805969E-08  0.10566000000E+00  0.10566000000E+00 0.  1.
     999900   -1    0    0    0    0 -0.00000000000E+00 -0.00000000000E+00 -0.74505805969E-08  0.93827000000E+00  0.93827000000E+00 0. -1.
     999902    2    1    2    0    0 -0.18034632812E-01 -0.89319289417E-02 -0.59268541646E-02  0.10229501302E+01  0.10227349676E+01 0.  0.
     999903    2    3    3    0    0  0.85172135489E-01 -0.95534788895E-01 -0.27551994477E-01  0.13243379738E+00  0.19960203819E-01 0.  0.
         14    1    1    2    0    0  0.18034632812E-01  0.89319289417E-02  0.59268541646E-02  0.20979869770E-01  0.00000000000E+00 0. -1.
     999901    1    3    3    0    0 -0.10320676830E+00  0.86602859954E-01  0.21625140312E-01  0.89051633285E+00  0.88000000000E+00 0.  1.
        -11    1    4    4    0    0  0.54735697081E-01 -0.46515330890E-01 -0.14995490583E-01  0.73381185610E-01  0.51100000000E-03 0. -1.
         11    1    4    4    0    0  0.30436438408E-01 -0.49019458005E-01 -0.12556503894E-01  0.59052611772E-01  0.51100000000E-03 0.  1.
</event>
<event>
 8    1  0.1101883E+005  0.1043930E+01  0.7957747E-01            NaN
         13   -1    0    0    0    0  0.00000000000E+00  0.00000000000E+00  0.74505805969E-08  0.10566000000E+00  0.10566000000E+00 0.  1.
     999900   -1    0    0    0    0 -0.00000000000E+00 -0.00000000000E+00 -0.74505805969E-08  0.93827000000E+00  0.93827000000E+00 0.  1.
     999902    2    1    2    0    0  0.21621329161E-01  0.52271334650E-02  0.75854653681E-02  0.10204279983E+01  0.10201573191E+01 0.  0.
     999903    2    3    3    0    0  0.12610973530E+00 -0.21519804142E-01 -0.30509665504E-01  0.13302478404E+00  0.19949590788E-01 0.  0.
         14    1    1    2    0    0 -0.21621329161E-01 -0.52271334650E-02 -0.75854653681E-02  0.23502001698E-01  0.00000000000E+00 0.  1.
     999901    1    3    3    0    0 -0.10448840614E+00  0.26746937607E-01  0.38095130872E-01  0.88740321426E+00  0.88000000000E+00 0. -1.
        -11    1    4    4    0    0  0.66447111271E-01 -0.58874077910E-02 -0.24451018759E-01  0.71049233677E-01  0.51100000000E-03 0.  1.
         11    1    4    4    0    0  0.59662624026E-01 -0.15632396351E-01 -0.60586467451E-02  0.61975550362E-01  0.51100000000E-03 0. -1.
</event>
<event>
 8    1  0.1101883E+005  0.1043930E+01  0.7957747E-01            NaN
         13   -1    0    0    0    0  0.00000000000E+00  0.00000000000E+00  0.74505805969E-08  0.10566000000E+00  0.10566000000E+00 0.  1.
     999900   -1    0    0    0    0 -0.00000000000E+00 -0.00000000000E+00 -0.74505805969E-08  0.93827000000E+00  0.93827000000E+00 0. -1.
     999902    2    1    2    0    0  0.99465222763E-02 -0.21553403474E-01  0.26905724223E-02  0.10200402179E+01  0.10197604251E+01 0.  0.
     999903    2    3    3    0    0 -0.10319731615E+00 -0.35323599748E-01 -0.68298049742E-01  0.12985454576E+00  0.17324453720E-01 0.  0.
         14    1    1    2    0    0 -0.99465222763E-02  0.21553403474E-01 -0.26905724223E-02  0.23889782055E-01  0.00000000000E+00 0. -1.
     999901    1    3    3    0    0  0.11314383843E+00  0.13770196274E-01  0.70988622164E-01  0.89018567218E+00  0.88000000000E+00 0.  1.
        -11    1    4    4    0    0 -0.46448619022E-01 -0.11480333739E-01 -0.21141447297E-01  0.52311511033E-01  0.51100000000E-03 0. -1.
         11    1    4    4    0    0 -0.56748697130E-01 -0.23843266009E-01 -0.47156602445E-01  0.77543034730E-01  0.51100000000E-03 0.  1.
</event>
<event>
 8    1  0.1101883E+005  0.1043930E+01  0.7957747E-01            NaN
         13   -1    0    0    0    0  0.00000000000E+00  0.00000000000E+00  0.74505805969E-08  0.10566000000E+00  0.10566000000E+00 0. -1.
     999900   -1    0    0    0    0 -0.00000000000E+00 -0.00000000000E+00 -0.74505805969E-08  0.93827000000E+00  0.93827000000E+00 0.  1.
     999902    2    1    2    0    0  0.12335059048E-01  0.17175877573E-01  0.10386307677E-01  0.10203707165E+01  0.10200987007E+01 0.  0.
     999903    2    3    3    0    0  0.61633360896E-01 -0.10968511846E+00  0.24480890627E-01  0.12979635568E+00  0.20451981655E-01 0.  0.
         14    1    1    2    0    0 -0.12335059048E-01 -0.17175877573E-01 -0.10386307677E-01  0.23559283505E-01  0.00000000000E+00 0.  1.
     999901    1    3    3    0    0 -0.49298301848E-01  0.12686099603E+00 -0.14094582950E-01  0.89057436082E+00  0.88000000000E+00 0.  1.
        -11    1    4    4    0    0  0.42400792951E-01 -0.64352480172E-01  0.63871287074E-02  0.77331271044E-01  0.51100000000E-03 0. -1.
         11    1    4    4    0    0  0.19232567945E-01 -0.45332638288E-01  0.18093761919E-01  0.52465084631E-01  0.51100000000E-03 0.  1.
</event>
<event>
 7    1  0.1101883E+005  0.1043930E+01  0.7957747E-01            NaN
         13   -1    0    0    0    0  0.00000000000E+00  0.00000000000E+00  0.74505805969E-08  0.10566000000E+00  0.10566000000E+00 0.  1.
     999900   -1    0    0    0    0 -0.00000000000E+00 -0.00000000000E+00 -0.74505805969E-08  0.93827000000E+00  0.93827000000E+00 0.  1.
     999903    2    1    2    0    0 -0.96953520982E-01 -0.48646916886E-01  0.32208749418E-01  0.11490046356E+00  0.19955080394E-01 0.  0.
         14    1    1    2    0    0 -0.11162825071E-01  0.37147426646E-01 -0.16625729625E-01  0.42201360826E-01  0.00000000000E+00 0. -1.
     999901    1    1    2    0    0  0.10811634605E+00  0.11499490240E-01 -0.15583019792E-01  0.88682817562E+00  0.88000000000E+00 0. -1.
        -11    1    3    3    0    0 -0.73228412221E-01 -0.27347287841E-01  0.19436127493E-01  0.80549976298E-01  0.51100000000E-03 0. -1.
         11    1    3    3    0    0 -0.23725108761E-01 -0.21299629046E-01  0.12772621925E-01  0.34350487261E-01  0.51100000000E-03 0.  1.
</event>
<event>
 8    1  0.1101883E+005  0.1043930E+01  0.7957747E-01            NaN
         13   -1    0    0    0    0  0.00000000000E+00  0.00000000000E+00  0.74505805969E-08  0.10566000000E+00  0.10566000000E+00 0.  1.
     999900   -1    0    0    0    0 -0.00000000000E+00 -0.00000000000E+00 -0.74505805969E-08  0.93827000000E+00  0.93827000000E+00 0.  1.
     999902    2    1    2    0    0  0.97078442852E-03  0.20267499134E-01  0.11713052020E-01  0.10205011816E+01  0.10202322050E+01 0.  0.
     999903    2    3    3    0    0  0.28327891986E-01  0.11207713457E+00  0.62957401199E-01  0.13382006429E+00  0.24091942271E-01 0.  0.
         14    1    1    2    0    0 -0.97078442852E-03 -0.20267499134E-01 -0.11713052020E-01  0.23428818390E-01  0.00000000000E+00 0. -1.
     999901    1    3    3    0    0 -0.27357107558E-01 -0.91809635437E-01 -0.51244349179E-01  0.88668111732E+00  0.88000000000E+00 0. -1.
        -11    1    4    4    0    0  0.22053937014E-01  0.90205409078E-01  0.38838990384E-01  0.10065843363E+00  0.51100000000E-03 0.  1.
         11    1    4    4    0    0  0.62739549725E-02  0.21871725492E-01  0.24118410814E-01  0.33161630663E-01  0.51100000000E-03 0. -1.
</event>
<event>
 8    1  0.1101883E+005  0.1043930E+01  0.7957747E-01            NaN
         13   -1    0    0    0    0  0.00000000000E+00  0.00000000000E+00  0.74505805969E-08  0.10566000000E+00  0.10566000000E+00 0.  1.
     999900   -1    0    0    0    0 -0.00000000000E+00 -0.00000000000E+00 -0.74505805969E-08  0.93827000000E+00  0.93827000000E+00 0. -1.
     999902    2    1    2    0    0  0.48237430019E-02  0.86295238966E-02 -0.21466540307E-01  0.10202963475E+01  0.10200225915E+01 0.  0.
     999903    2    3    3    0    0  0.55587002751E-02 -0.12581886338E+00 -0.26065988752E-01  0.13007274414E+00  0.19447299717E-01 0.  0.
         14    1    1    2    0    0 -0.48237430019E-02 -0.86295238966E-02  0.21466540307E-01  0.23633652532E-01  0.00000000000E+00 0.  1.
     999901    1    3    3    0    0 -0.73495727318E-03  0.13444838728E+00  0.45994484450E-02  0.89022360333E+00  0.88000000000E+00 0. -1.
        -11    1    4    4    0    0 -0.59437874304E-02 -0.53261611834E-01 -0.15927803342E-01  0.55911393691E-01  0.51100000000E-03 0.  1.
         11    1    4    4    0    0  0.11502487706E-01 -0.72557251547E-01 -0.10138185411E-01  0.74161350445E-01  0.51100000000E-03 0. -1.
</event>
<event>
 8    1  0.1101883E+005  0.1043930E+01  0.7957747E-01            NaN
         13   -1    0    0    0    0  0.00000000000E+00  0.00000000000E+00  0.74505805969E-08  0.10566000000E+00  0.10566000000E+00 0. -1.
     999900   -1    0    0    0    0 -0.00000000000E+00 -0.00000000000E+00 -0.74505805969E-08  0.93827000000E+00  0.93827000000E+00 0. -1.
     999902    2    1    2    0    0  0.42889374383E-02  0.83549782580E-02  0.17141916627E-01  0.10243840042E+01  0.10241975113E+01 0.  0.
     999903    2    3    3    0    0 -0.40356945816E-01 -0.11107140035E+00  0.60403177908E-01  0.13414389529E+00  0.19506452521E-01 0.  0.
         14    1    1    2    0    0 -0.42889374383E-02 -0.83549782580E-02 -0.17141916627E-01  0.19545995797E-01  0.00000000000E+00 0.  1.
     999901    1    3    3    0    0  0.44645883255E-01  0.11942637861E+00 -0.43261261281E-01  0.89024010892E+00  0.88000000000E+00 0. -1.
        -11    1    4    4    0    0 -0.10267382872E-01 -0.15710150313E-01  0.16259374800E-01  0.24836593240E-01  0.51100000000E-03 0.  1.
         11    1    4    4    0    0 -0.30089562945E-01 -0.95361250036E-01  0.44143803108E-01  0.10930730205E+00  0.51100000000E-03 0. -1.
</event>
<event>
 8    1  0.1101883E+005  0.1043930E+01  0.7957747E-01            NaN
         13   -1    0    0    0    0  0.00000000000E+00  0.00000000000E+00  0.74505805969E-08  0.10566000000E+00  0.10566000000E+00 0.  1.
     999900   -1    0    0    0    0 -0.00000000000E+00 -0.00000000000E+00 -0.74505805969E-08  0.93827000000E+00  0.93827000000E+00 0. -1.
     999902    2    1    2    0    0  0.16427407204E-01  0.14333276753E-01 -0.90120017196E-02  0.10203393513E+01  0.10200666023E+01 0.  0.
     999903    2    3    3    0    0 -0.29517242485E-02 -0.82961576053E-01 -0.98217379866E-01  0.13028348869E+00  0.20875774009E-01 0.  0.
         14    1    1    2    0    0 -0.16427407204E-01 -0.14333276753E-01  0.90120017196E-02  0.23590648675E-01  0.00000000000E+00 0. -1.
     999901    1    3    3    0    0  0.19379131452E-01  0.97294852807E-01  0.89205378146E-01  0.89005586263E+00  0.88000000000E+00 0.  1.
        -11    1    4    4    0    0  0.21403277209E-02 -0.38955077223E-01 -0.61057994448E-01  0.72459774021E-01  0.51100000000E-03 0. -1.
         11    1    4    4    0    0 -0.50920519694E-02 -0.44006498831E-01 -0.37159385418E-01  0.57823714670E-01  0.51100000000E-03 0.  1.
</event>
<event>
 8    1  0.1101883E+005  0.1043930E+01  0.7957747E-01            NaN
         13   -1    0    0    0    0  0.00000000000E+00  0.00000000000E+00  0.74505805969E-08  0.10566000000E+00  0.10566000000E+00 0. -1.
     999900   -1    0    0    0    0 -0.00000000000E+00 -0.00000000000E+00 -0.74505805969E-08  0.93827000000E+00  0.93827000000E+00 0. -1.
     999902    2    1    2    0    0 -0.80734796212E-02  0.20933461412E-01 -0.73702262905E-02  0.10203140919E+01  0.10200407516E+01 0.  0.
     999903    2    3    3    0    0  0.86511299994E-01 -0.34048500471E-01 -0.87997343254E-01  0.12988159661E+00  0.21958854898E-01 0.  0.
         14    1    1    2    0    0  0.80734796212E-02 -0.20933461412E-01  0.73702262905E-02  0.23615908102E-01  0.00000000000E+00 0. -1.
     999901    1    3    3    0    0 -0.94584779615E-01  0.54981961883E-01  0.80627116964E-01  0.89043249528E+00  0.88000000000E+00 0.  1.
        -11    1    4    4    0    0  0.64696414940E-01 -0.21092963539E-01 -0.51100948838E-01  0.85100571738E-01  0.51100000000E-03 0. -1.
         11    1    4    4    0    0  0.21814885054E-01 -0.12955536932E-01 -0.36896394416E-01  0.44781024877E-01  0.51100000000E-03 0.  1.
</event>
<event>
 8    1  0.1101883E+005  0.1043930E+01  0.7957747E-01            NaN
         13   -1    0    0    0    0  0.00000000000E+00  0.00000000000E+00  0.74505805969E-08  0.10566000000E+00  0.10566000000E+00 0.  1.
     999900   -1    0    0    0    0 -0.00000000000E+00 -0.00000000000E+00 -0.74505805969E-08  0.93827000000E+00  0.93827000000E+00 0.  1.
     999902    2    1    2    0    0 -0.90623139981E-02 -0.85944883757E-02  0.19261734123E-01  0.10209734069E+01  0.10207152847E+01 0.  0.
     999903    2    3    3    0    0 -0.96915402281E-01 -0.57829598469E-01  0.69156641762E-01  0.13382530033E+00  0.19741130890E-01 0.  0.
         14    1    1    2    0    0  0.90623139981E-02  0.85944883757E-02 -0.19261734123E-01  0.22956593102E-01  0.00000000000E+00 0.  1.
     999901    1    3    3    0    0  0.87853088283E-01  0.49235110094E-01 -0.49894907639E-01  0.88714810657E+00  0.88000000000E+00 0. -1.
        -11    1    4    4    0    0 -0.50359909442E-01 -0.40640565045E-01  0.34956195322E-01  0.73552516738E-01  0.51100000000E-03 0. -1.
         11    1    4    4    0    0 -0.46555492840E-01 -0.17189033425E-01  0.34200446440E-01  0.60272783587E-01  0.51100000000E-03 0.  1.
</event>
<event>
 8    1  0.1101883E+005  0.1043930E+01  0.7957747E-01            NaN
         13   -1    0    0    0    0  0.00000000000E+00  0.00000000000E+00  0.74505805969E-08  0.10566000000E+00  0.10566000000E+00 0.  1.
     999900   -1    0    0    0    0 -0.00000000000E+00 -0.00000000000E+00 -0.74505805969E-08  0.93827000000E+00  0.93827000000E+00 0. -1.
     999902    2    1    2    0    0 -0.97321099259E-02  0.13790021495E-01 -0.15819771894E-01  0.10207968238E+01  0.10205346695E+01 0.  0.
     999903    2    3    3    0    0  0.26073204943E-01  0.12653809926E+00 -0.23977447895E-01  0.13284372976E+00  0.19515018534E-01 0.  0.
         14    1    1    2    0    0  0.97321099259E-02 -0.13790021495E-01  0.15819771894E-01  0.23133176160E-01  0.00000000000E+00 0. -1.
     999901    1    3    3    0    0 -0.35805314869E-01 -0.11274807776E+00  0.81576760007E-02  0.88795309408E+00  0.88000000000E+00 0. -1.
        -11    1    4    4    0    0  0.27193629215E-02  0.59160021437E-01 -0.79911872976E-02  0.59761386083E-01  0.51100000000E-03 0.  1.
         11    1    4    4    0    0  0.23353842021E-01  0.67378077822E-01 -0.15986260598E-01  0.73082343675E-01  0.51100000000E-03 0. -1.
</event>
<event>
 8    1  0.1101883E+005  0.1043930E+01  0.7957747E-01            NaN
         13   -1    0    0    0    0  0.00000000000E+00  0.00000000000E+00  0.74505805969E-08  0.10566000000E+00  0.10566000000E+00 0. -1.
     999900   -1    0    0    0    0 -0.00000000000E+00 -0.00000000000E+00 -0.74505805969E-08  0.93827000000E+00  0.93827000000E+00 0. -1.
     999902    2    1    2    0    0 -0.22885872864E-01 -0.52423463567E-02  0.17505279788E-02  0.10203862170E+01  0.10201145632E+01 0.  0.
     999903    2    3    3    0    0 -0.65522731055E-01  0.79223623126E-01 -0.79489672907E-01  0.13159356851E+00  0.20703826432E-01 0.  0.
         14    1    1    2    0    0  0.22885872864E-01  0.52423463567E-02 -0.17505279788E-02  0.23543783050E-01  0.00000000000E+00 0. -1.
     999901    1    3    3    0    0  0.42636858191E-01 -0.84465969483E-01  0.81240200885E-01  0.88879264844E+00  0.88000000000E+00 0.  1.
        -11    1    4    4    0    0 -0.20694192830E-01  0.13048514126E-01 -0.13531243305E-01  0.27961920609E-01  0.51100000000E-03 0.  1.
         11    1    4    4    0    0 -0.44828538225E-01  0.66175109000E-01 -0.65958429602E-01  0.10363164790E+00  0.51100000000E-03 0. -1.
</event>
<event>
 8    1  0.1101883E+005  0.1043930E+01  0.7957747E-01            NaN
         13   -1    0    0    0    0  0.00000000000E+00  0.00000000000E+00  0.74505805969E-08  0.10566000000E+00  0.10566000000E+00 0. -1.
     999900   -1    0    0    0    0 -0.00000000000E+00 -0.00000000000E+00 -0.74505805969E-08  0.93827000000E+00  0.93827000000E+00 0. -1.
     999902    2    1    2    0    0  0.22946859869E-02 -0.12653142154E-01 -0.20238509630E-01  0.10199515751E+01  0.10196696772E+01 0.  0.
     999903    2    3    3    0    0  0.31566215635E-01  0.10323989643E+00 -0.70599570770E-01  0.13044370252E+00  0.19399947162E-01 0.  0.
         14    1    1    2    0    0 -0.22946859869E-02  0.12653142154E-01  0.20238509630E-01  0.23978424931E-01  0.00000000000E+00 0. -1.
     999901    1    3    3    0    0 -0.29271529648E-01 -0.11589303859E+00  0.50361061139E-01  0.88950787255E+00  0.88000000000E+00 0. -1.
        -11    1    4    4    0    0  0.14136396223E-01  0.73133196808E-01 -0.42797672333E-01  0.85908114004E-01  0.51100000000E-03 0. -1.
         11    1    4    4    0    0  0.17429819412E-01  0.30106699626E-01 -0.27801898436E-01  0.44535588519E-01  0.51100000000E-03 0.  1.
</event>
<event>
 8    1  0.1101883E+005  0.1043930E+01  0.7957747E-01            NaN
         13   -1    0    0    0    0  0.00000000000E+00  0.00000000000E+00  0.74505805969E-08  0.10566000000E+00  0.10566000000E+00 0.  1.
     999900   -1    0    0    0    0 -0.00000000000E+00 -0.00000000000E+00 -0.74505805969E-08  0.93827000000E+00  0.93827000000E+00 0.  1.
     999902    2    1    2    0    0  0.17659406722E-01 -0.13247439330E-01 -0.93271565652E-02  0.10199645010E+01  0.10196829106E+01 0.  0.
     999903    2    3    3    0    0  0.11679141069E+00  0.58179098397E-01 -0.25267633923E-02  0.13149663443E+00  0.16122631064E-01 0.  0.
         14    1    1    2    0    0 -0.17659406722E-01  0.13247439330E-01  0.93271565652E-02  0.23965499039E-01  0.00000000000E+00 0.  1.
     999901    1    3    3    0    0 -0.99132003971E-01 -0.71426537727E-01 -0.68003931728E-02  0.88846786653E+00  0.88000000000E+00 0. -1.
        -11    1    4    4    0    0  0.25897055456E-01  0.20320483514E-01 -0.26928124792E-02  0.33031680120E-01  0.51100000000E-03 0.  1.
         11    1    4    4    0    0  0.90894355237E-01  0.37858614884E-01  0.16604908691E-03  0.98464954314E-01  0.51100000000E-03 0. -1.
</event>
<event>
 8    1  0.1101883E+005  0.1043930E+01  0.7957747E-01            NaN
         13   -1    0    0    0    0  0.00000000000E+00  0.00000000000E+00  0.74505805969E-08  0.10566000000E+00  0.10566000000E+00 0. -1.
     999900   -1    0    0    0    0 -0.00000000000E+00 -0.00000000000E+00 -0.74505805969E-08  0.93827000000E+00  0.93827000000E+00 0. -1.
     999902    2    1    2    0    0  0.17448510470E-01  0.32408517159E-02 -0.26788515449E-01  0.10117962452E+01  0.10112858466E+01 0.  0.
     999903    2    3    3    0    0  0.65145964871E-01  0.83379567943E-01  0.59686420950E-01  0.12265330078E+00  0.16888287550E-01 0.  0.
         14    1    1    2    0    0 -0.17448510470E-01 -0.32408517159E-02  0.26788515449E-01  0.32133754798E-01  0.00000000000E+00 0. -1.
     999901    1    3    3    0    0 -0.47697454400E-01 -0.80138716227E-01 -0.86474936399E-01  0.88914294442E+00  0.88000000000E+00 0. -1.
        -11    1    4    4    0    0  0.69346561774E-02  0.25196970212E-02  0.56598590639E-02  0.93130797807E-02  0.51100000000E-03 0.  1.
         11    1    4    4    0    0  0.58211308693E-01  0.80859870922E-01  0.54026561886E-01  0.11334022100E+00  0.51100000000E-03 0. -1.
</event>
<event>
 8    1  0.1101883E+005  0.1043930E+01  0.7957747E-01            NaN
         13   -1    0    0    0    0  0.00000000000E+00  0.00000000000E+00  0.74505805969E-08  0.10566000000E+00  0.10566000000E+00 0.  1.
     999900   -1    0    0    0    0 -0.00000000000E+00 -0.00000000000E+00 -0.74505805969E-08  0.93827000000E+00  0.93827000000E+00 0. -1.
     999902    2    1    2    0    0  0.54020087397E-02 -0.14842512474E-01 -0.17551408703E-01  0.10203178459E+01  0.10200445935E+01 0.  0.
     999903    2    3    3    0    0 -0.90160027030E-01  0.88023094688E-01 -0.20209414485E-01  0.12918345600E+00  0.20076085242E-01 0.  0.
         14    1    1    2    0    0 -0.54020087397E-02  0.14842512474E-01  0.17551408703E-01  0.23612154125E-01  0.00000000000E+00 0. -1.
     999901    1    3    3    0    0  0.95562035769E-01 -0.10286560716E+00  0.26580057815E-02  0.89113438987E+00  0.88000000000E+00 0.  1.
        -11    1    4    4    0    0 -0.41673192077E-01  0.44667915045E-01 -0.68915089454E-04  0.61091271411E-01  0.51100000000E-03 0. -1.
         11    1    4    4    0    0 -0.48486834953E-01  0.43355179644E-01 -0.20140499395E-01  0.68092184592E-01  0.51100000000E-03 0.  1.
</event>
<event>
 8    1  0.1101883E+005  0.1043930E+01  0.7957747E-01            NaN
         13   -1    0    0    0    0  0.00000000000E+00  0.00000000000E+00  0.74505805969E-08  0.10566000000E+00  0.10566000000E+00 0. -1.
     999900   -1    0    0    0    0 -0.00000000000E+00 -0.00000000000E+00 -0.74505805969E-08  0.93827000000E+00  0.93827000000E+00 0.  1.
     999902    2    1    2    0    0  0.79269450950E-02 -0.98142073089E-02 -0.16856022843E-01  0.10228757693E+01  0.10226590628E+01 0.  0.
     999903    2    3    3    0    0  0.67082404539E-01 -0.37115256921E-01 -0.11015465358E+00  0.13554868746E+00  0.19021242659E-01 0.  0.
         14    1    1    2    0    0 -0.79269450950E-02  0.98142073089E-02  0.16856022843E-01  0.21054230685E-01  0.00000000000E+00 0.  1.
     999901    1    3    3    0    0 -0.59155459444E-01  0.27301049612E-01  0.93298630737E-01  0.88732708185E+00  0.88000000000E+00 0. -1.
        -11    1    4    4    0    0  0.41053453495E-01 -0.19438837903E-01 -0.49286063811E-01  0.67027096535E-01  0.51100000000E-03 0. -1.
         11    1    4    4    0    0  0.26028951045E-01 -0.17676419018E-01 -0.60868589769E-01  0.68521590928E-01  0.51100000000E-03 0.  1.
</event>
<event>
 8    1  0.1101883E+005  0.1043930E+01  0.7957747E-01            NaN
         13   -1    0    0    0    0  0.00000000000E+00  0.00000000000E+00  0.74505805969E-08  0.10566000000E+00  0.10566000000E+00 0.  1.
     999900   -1    0    0    0    0 -0.00000000000E+00 -0.00000000000E+00 -0.74505805969E-08  0.93827000000E+00  0.93827000000E+00 0.  1.
     999902    2    1    2    0    0 -0.45483976003E-02 -0.23143109762E-01 -0.28645022680E-03  0.10203424290E+01  0.10200697520E+01 0.  0.
     999903    2    3    3    0    0 -0.11813735004E+00  0.17092307659E-01 -0.49301203417E-01  0.13077861179E+00  0.20587767874E-01 0.  0.
         14    1    1    2    0    0  0.45483976003E-02  0.23143109762E-01  0.28645022680E-03  0.23587570962E-01  0.00000000000E+00 0. -1.
     999901    1    3    3    0    0  0.11358895244E+00 -0.40235417421E-01  0.49014753190E-01  0.88956381725E+00  0.88000000000E+00 0.  1.
        -11    1    4    4    0    0 -0.45975467367E-01  0.16177021087E-01 -0.16033823744E-01  0.51310663957E-01  0.51100000000E-03 0.  1.
         11    1    4    4    0    0 -0.72161882676E-01  0.91528657190E-03 -0.33267379673E-01  0.79467947829E-01  0.51100000000E-03 0. -1.
</event>
<event>
 8    1  0.1101883E+005  0.1043930E+01  0.7957747E-01            NaN
         13   -1    0    0    0    0  0.00000000000E+00  0.00000000000E+00  0.74505805969E-08  0.10566000000E+00  0.10566000000E+00 0.  1.
     999900   -1    0    0    0    0 -0.00000000000E+00 -0.00000000000E+00 -0.74505805969E-08  0.93827000000E+00  0.93827000000E+00 0.  1.
     999902    2    1    2    0    0 -0.17697505093E-01  0.38004966042E-02 -0.15043744519E-01  0.10203936513E+01  0.10201221711E+01 0.  0.
     999903    2    3    3    0    0  0.82318477307E-01 -0.27439828822E-01  0.91435221366E-01  0.12780364192E+00  0.21073568045E-01 0.  0.
         14    1    1    2    0    0  0.17697505093E-01 -0.38004966042E-02  0.15043744519E-01  0.23536348699E-01  0.00000000000E+00 0.  1.
     999901    1    3    3    0    0 -0.10001598240E+00  0.31240325426E-01 -0.10647896588E+00  0.89259000938E+00  0.88000000000E+00 0.  1.
        -11    1    4    4    0    0  0.15564941695E-01 -0.78743653077E-02  0.80683022881E-02  0.19225807182E-01  0.51100000000E-03 0. -1.
         11    1    4    4    0    0  0.66753535612E-01 -0.19565463514E-01  0.83366919078E-01  0.10857783474E+00  0.51100000000E-03 0.  1.
</event>
<event>
 8    1  0.1101883E+005  0.1043930E+01  0.7957747E-01            NaN
         13   -1    0    0    0    0  0.00000000000E+00  0.00000000000E+00  0.74505805969E-08  0.10566000000E+00  0.10566000000E+00 0. -1.
     999900   -1    0    0    0    0 -0.00000000000E+00 -0.00000000000E+00 -0.74505805969E-08  0.93827000000E+00  0.93827000000E+00 0. -1.
     999902    2    1    2    0    0 -0.19285016034E-01  0.41535471154E-02  0.11417563900E-01  0.10211369185E+01  0.10208825015E+01 0.  0.
     999903    2    3    3    0    0  0.11661183471E+00 -0.27184074262E-01 -0.42278873916E-01  0.12853773190E+00  0.19928659137E-01 0.  0.
         14    1    1    2    0    0  0.19285016034E-01 -0.41535471154E-02 -0.11417563900E-01  0.22793081461E-01  0.00000000000E+00 0. -1.
     999901    1    3    3    0    0 -0.13589685074E+00  0.31337621377E-01  0.53696437817E-01  0.89259918664E+00  0.88000000000E+00 0.  1.
        -11    1    4    4    0    0  0.50703925334E-01 -0.21020252580E-01 -0.14699821098E-01  0.56825037827E-01  0.51100000000E-03 0. -1.
         11    1    4    4    0    0  0.65907909374E-01 -0.61638216814E-02 -0.27579052819E-01  0.71712694073E-01  0.51100000000E-03 0.  1.
</event>
<event>
 8    1  0.1101883E+005  0.1043930E+01  0.7957747E-01            NaN
         13   -1    0    0    0    0  0.00000000000E+00  0.00000000000E+00  0.74505805969E-08  0.10566000000E+00  0.10566000000E+00 0.  1.
     999900   -1    0    0    0    0 -0.00000000000E+00 -0.00000000000E+00 -0.74505805969E-08  0.93827000000E+00  0.93827000000E+00 0.  1.
     999902    2    1    2    0    0 -0.10278544308E-01 -0.16157973841E-01  0.15339631457E-01  0.10193936416E+01  0.10190983091E+01 0.  0.
     999903    2    3    3    0    0  0.67307901713E-01  0.28804497329E-01  0.10638119918E+00  0.13016372334E+00  0.16296706286E-01 0.  0.
         14    1    1    2    0    0  0.10278544308E-01  0.16157973841E-01 -0.15339631457E-01  0.24536358429E-01  0.00000000000E+00 0. -1.
     999901    1    3    3    0    0 -0.77586446021E-01 -0.44962471170E-01 -0.91041567723E-01  0.88922991823E+00  0.88000000000E+00 0.  1.
        -11    1    4    4    0    0  0.12968055880E-01 -0.30193984037E-03  0.23806984281E-01  0.27116328338E-01  0.51100000000E-03 0. -1.
         11    1    4    4    0    0  0.54339845833E-01  0.29106437170E-01  0.82574214899E-01  0.10304739500E+00  0.51100000000E-03 0.  1.
</event>
<event>
 8    1  0.1101883E+005  0.1043930E+01  0.7957747E-01            NaN
         13   -1    0    0    0    0  0.00000000000E+00  0.00000000000E+00  0.74505805969E-08  0.10566000000E+00  0.10566000000E+00 0.  1.
     999900   -1    0    0    0    0 -0.00000000000E+00 -0.00000000000E+00 -0.74505805969E-08  0.93827000000E+00  0.93827000000E+00 0. -1.
     999902    2    1    2    0    0 -0.16136664297E-01  0.12680438771E-01  0.11293657438E-01  0.10205049672E+01  0.10202360786E+01 0.  0.
     999903    2    3    3    0    0  0.36598833289E-01  0.12169924021E+00  0.29555050456E-01  0.13202333531E+00  0.20161358904E-01 0.  0.
         14    1    1    2    0    0  0.16136664297E-01 -0.12680438771E-01 -0.11293657438E-01  0.23425032772E-01  0.00000000000E+00 0.  1.
     999901    1    3    3    0    0 -0.52735497587E-01 -0.10901880144E+00 -0.18261393018E-01  0.88848163191E+00  0.88000000000E+00 0.  1.
        -11    1    4    4    0    0  0.23460097176E-02  0.40127353151E-01  0.93975066023E-02  0.41282956336E-01  0.51100000000E-03 0.  1.
         11    1    4    4    0    0  0.34252823572E-01  0.81571887064E-01  0.20157543853E-01  0.90740378978E-01  0.51100000000E-03 0. -1.
</event>
<event>
 8    1  0.1101883E+005  0.1043930E+01  0.7957747E-01            NaN
         13   -1    0    0    0    0  0.00000000000E+00  0.00000000000E+00  0.74505805969E-08  0.10566000000E+00  0.10566000000E+00 0. -1.
     999900   -1    0    0    0    0 -0.00000000000E+00 -0.00000000000E+00 -0.74505805969E-08  0.93827000000E+00  0.93827000000E+00 0. -1.
     999902    2    1    2    0    0 -0.71624300695E-02  0.21989664979E-01 -0.49819066101E-02  0.10202727566E+01  0.10199984474E+01 0.  0.
     999903    2    3    3    0    0 -0.11806391491E+00  0.53088087781E-01  0.21628312577E-01  0.13236828260E+00  0.17208871720E-01 0.  0.
         14    1    1    2    0    0  0.71624300695E-02 -0.21989664979E-01  0.49819066101E-02  0.23657243370E-01  0.00000000000E+00 0. -1.
     999901    1    3    3    0    0  0.11090148484E+00 -0.31098422802E-01 -0.26610219188E-01  0.88790447403E+00  0.88000000000E+00 0. -1.
        -11    1    4    4    0    0 -0.58841625190E-01  0.29531750892E-01  0.19215245445E-01  0.68585333303E-01  0.51100000000E-03 0.  1.
         11    1    4    4    0    0 -0.59222289716E-01  0.23556336889E-01  0.24130671326E-02  0.63782949295E-01  0.51100000000E-03 0. -1.
</event>
<event>
 8    1  0.1101883E+005  0.1043930E+01  0.7957747E-01            NaN
         13   -1    0    0    0    0  0.00000000000E+00  0.00000000000E+00  0.74505805969E-08  0.10566000000E+00  0.10566000000E+00 0. -1.
     999900   -1    0    0    0    0 -0.00000000000E+00 -0.00000000000E+00 -0.74505805969E-08  0.93827000000E+00  0.93827000000E+00 0.  1.
     999902    2    1    2    0    0  0.13333254056E-01  0.12314980180E-01  0.15466702938E-01  0.10200835474E+01  0.10198047805E+01 0.  0.
     999903    2    3    3    0    0 -0.11058334438E+00  0.13437972961E-01  0.64150943289E-01  0.13006852523E+00  0.19829840137E-01 0.  0.
         14    1    1    2    0    0 -0.13333254056E-01 -0.12314980180E-01 -0.15466702938E-01  0.23846452573E-01  0.00000000000E+00 0.  1.
     999901    1    3    3    0    0  0.12391659843E+00 -0.11229927808E-02 -0.48684240352E-01  0.89001502220E+00  0.88000000000E+00 0.  1.
        -11    1    4    4    0    0 -0.75717688780E-01  0.10346974842E-01  0.33129276504E-01  0.83294887990E-01  0.51100000000E-03 0.  1.
         11    1    4    4    0    0 -0.34865655595E-01  0.30909981191E-02  0.31021666785E-01  0.46773637239E-01  0.51100000000E-03 0. -1.
</event>
<event>
 8    1  0.1101883E+005  0.1043930E+01  0.7957747E-01            NaN
         13   -1    0    0    0    0  0.00000000000E+00  0.00000000000E+00  0.74505805969E-08  0.10566000000E+00  0.10566000000E+00 0.  1.
     999900   -1    0    0    0    0 -0.00000000000E+00 -0.00000000000E+00 -0.74505805969E-08  0.93827000000E+00  0.93827000000E+00 0.  1.
     999902    2    1    2    0    0 -0.18088210436E-01 -0.63612785284E-02  0.11661749177E-01  0.10214879498E+01  0.10212413946E+01 0.  0.
     999903    2    3    3    0    0 -0.82443145725E-01 -0.82184118032E-01 -0.60891196467E-01  0.13291910580E+00  0.20215077189E-01 0.  0.
         14    1    1    2    0    0  0.18088210436E-01  0.63612785284E-02 -0.11661749177E-01  0.22442050155E-01  0.00000000000E+00 0. -1.
     999901    1    3    3    0    0  0.64354935289E-01  0.75822839504E-01  0.72552945644E-01  0.88856884405E+00  0.88000000000E+00 0. -1.
        -11    1    4    4    0    0 -0.25519473504E-01 -0.26622197213E-01 -0.30157552463E-01  0.47641620501E-01  0.51100000000E-03 0.  1.
         11    1    4    4    0    0 -0.56923672220E-01 -0.55561920819E-01 -0.30733644004E-01  0.85277485299E-01  0.51100000000E-03 0. -1.
</event>
<event>
 8    1  0.1101883E+005  0.1043930E+01  0.7957747E-01            NaN
         13   -1    0    0    0    0  0.00000000000E+00  0.00000000000E+00  0.74505805969E-08  0.10566000000E+00  0.10566000000E+00 0. -1.
     999900   -1    0    0    0    0 -0.00000000000E+00 -0.00000000000E+00 -0.74505805969E-08  0.93827000000E+00  0.93827000000E+00 0.  1.
     999902    2    1    2    0    0 -0.66841134105E-02  0.94940956589E-02  0.19287910121E-01  0.10214169216E+01  0.10211687857E+01 0.  0.
     999903    2    3    3    0    0  0.70485853588E-01 -0.94353521779E-01 -0.49433005320E-01  0.12930588829E+00  0.20138224903E-01 0.  0.
         14    1    1    2    0    0  0.66841134105E-02 -0.94940956589E-02 -0.19287910121E-01  0.22513078450E-01  0.00000000000E+00 0.  1.
     999901    1    3    3    0    0 -0.77169966998E-01  0.10384761744E+00  0.68720915441E-01  0.89211103326E+00  0.88000000000E+00 0. -1.
        -11    1    4    4    0    0  0.29899279980E-01 -0.32805618058E-01 -0.28171260284E-01  0.52574295492E-01  0.51100000000E-03 0.  1.
         11    1    4    4    0    0  0.40586573608E-01 -0.61547903720E-01 -0.21261745036E-01  0.76731592793E-01  0.51100000000E-03 0. -1.
</event>
<event>
 8    1  0.1101883E+005  0.1043930E+01  0.7957747E-01            NaN
         13   -1    0    0    0    0  0.00000000000E+00  0.00000000000E+00  0.74505805969E-08  0.10566000000E+00  0.10566000000E+00 0. -1.
     999900   -1    0    0    0    0 -0.00000000000E+00 -0.00000000000E+00 -0.74505805969E-08  0.93827000000E+00  0.93827000000E+00 0. -1.
     999902    2    1    2    0    0 -0.14735425754E-01 -0.37285877814E-02  0.18182455333E-01  0.10202311219E+01  0.10199558350E+01 0.  0.
     999903    2    3    3    0    0 -0.13296930028E-01 -0.72480906877E-01 -0.10407886465E+00  0.12912126283E+00  0.20238582929E-01 0.  0.
         14    1    1    2    0    0  0.14735425754E-01  0.37285877814E-02 -0.18182455333E-01  0.23698878052E-01  0.00000000000E+00 0. -1.
     999901    1    3    3    0    0 -0.14384957258E-02  0.68752319096E-01  0.12226131998E+00  0.89110985912E+00  0.88000000000E+00 0.  1.
        -11    1    4    4    0    0  0.51131621382E-04 -0.19923236179E-01 -0.43302946797E-01  0.47669112396E-01  0.51100000000E-03 0.  1.
         11    1    4    4    0    0 -0.13348061649E-01 -0.52557670699E-01 -0.60775917850E-01  0.81452150436E-01  0.51100000000E-03 0. -1.
</event>
<event>
 8    1  0.1101883E+005  0.1043930E+01  0.7957747E-01            NaN
         13   -1    0    0    0    0  0.00000000000E+00  0.00000000000E+00  0.74505805969E-08  0.10566000000E+00  0.10566000000E+00 0.  1.
     999900   -1    0    0    0    0 -0.00000000000E+00 -0.00000000000E+00 -0.74505805969E-08  0.93827000000E+00  0.93827000000E+00 0. -1.
     999902    2    1    2    0    0  0.95672276914E-03  0.18229079590E-01 -0.17014084556E-01  0.10189761679E+01  0.10186705734E+01 0.  0.
     999903    2    3    3    0    0  0.79997661037E-01 -0.71435926338E-01  0.65434043267E-01  0.12707652281E+00  0.19081700321E-01 0.  0.
         14    1    1    2    0    0 -0.95672276914E-03 -0.18229079590E-01  0.17014084556E-01  0.24953832059E-01  0.00000000000E+00 0.  1.
     999901    1    3    3    0    0 -0.79040938268E-01  0.89665005928E-01 -0.82448127822E-01  0.89189964513E+00  0.88000000000E+00 0. -1.
        -11    1    4    4    0    0  0.32714149517E-01 -0.41108223905E-01  0.35657590103E-01  0.63496665300E-01  0.51100000000E-03 0. -1.
         11    1    4    4    0    0  0.47283511520E-01 -0.30327702433E-01  0.29776453163E-01  0.63579857506E-01  0.51100000000E-03 0.  1.
</event>
<event>
 8    1  0.1101883E+005  0.1043930E+01  0.7957747E-01            NaN
         13   -1    0    0    0    0  0.00000000000E+00  0.00000000000E+00  0.74505805969E-08  0.10566000000E+00  0.10566000000E+00 0. -1.
     999900   -1    0    0    0    0 -0.00000000000E+00 -0.00000000000E+00 -0.74505805969E-08  0.93827000000E+00  0.93827000000E+00 0.  1.
     999902    2    1    2    0    0 -0.12392880931E-01 -0.11899373827E-01  0.14183679918E-01  0.10216509657E+01  0.10214080185E+01 0.  0.
     999903    2    3    3    0    0  0.66585621297E-01 -0.91977088654E-01 -0.62278519238E-01  0.13120359937E+00  0.21031897881E-01 0.  0.
         14    1    1    2    0    0  0.12392880931E-01  0.11899373827E-01 -0.14183679918E-01  0.22279034343E-01  0.00000000000E+00 0.  1.
     999901    1    3    3    0    0 -0.78978502227E-01  0.80077714827E-01  0.76462199157E-01  0.89044736629E+00  0.88000000000E+00 0. -1.
        -11    1    4    4    0    0  0.60604245704E-01 -0.80223423876E-01 -0.46916827009E-01  0.11095098969E+00  0.51100000000E-03 0.  1.
         11    1    4    4    0    0  0.59813755931E-02 -0.11753664779E-01 -0.15361692229E-01  0.20252609680E-01  0.51100000000E-03 0. -1.
</event>
<event>
 8    1  0.1101883E+005  0.1043930E+01  0.7957747E-01            NaN
         13   -1    0    0    0    0  0.00000000000E+00  0.00000000000E+00  0.74505805969E-08  0.10566000000E+00  0.10566000000E+00 0.  1.
     999900   -1    0    0    0    0 -0.00000000000E+00 -0.00000000000E+00 -0.74505805969E-08  0.93827000000E+00  0.93827000000E+00 0. -1.
     999902    2    1    2    0    0  0.16804906296E-01  0.20548027303E-02 -0.15984271512E-01  0.10206464430E+01  0.10203808297E+01 0.  0.
     999903    2    3    3    0    0  0.12722303406E+00 -0.26256342188E-01  0.17580532372E-01  0.13265979902E+00  0.20358075964E-01 0.  0.
         14    1    1    2    0    0 -0.16804906296E-01 -0.20548027303E-02  0.15984271512E-01  0.23283556980E-01  0.00000000000E+00 0.  1.
     999901    1    3    3    0    0 -0.11041812776E+00  0.28311144918E-01 -0.33564803884E-01  0.88798664400E+00  0.88000000000E+00 0.  1.
        -11    1    4    4    0    0  0.11569725456E+00 -0.23269650165E-01  0.97871590460E-02  0.11842035692E+00  0.51100000000E-03 0. -1.
         11    1    4    4    0    0  0.11525779502E-01 -0.29866920227E-02  0.77933733262E-02  0.14239442095E-01  0.51100000000E-03 0.  1.
</event>
<event>
 8    1  0.1101883E+005  0.1043930E+01  0.7957747E-01            NaN
         13   -1    0    0    0    0  0.00000000000E+00  0.00000000000E+00  0.74505805969E-08  0.10566000000E+00  0.10566000000E+00 0.  1.
     999900   -1    0    0    0    0 -0.00000000000E+00 -0.00000000000E+00 -0.74505805969E-08  0.93827000000E+00  0.93827000000E+00 0. -1.
     999902    2    1    2    0    0 -0.11242443554E-01  0.12122003429E-01  0.17141356444E-01  0.10201148451E+01  0.10198368181E+01 0.  0.
     999903    2    3    3    0    0 -0.11530721795E+00  0.13779454422E-01 -0.50849689409E-01  0.13137697216E+00  0.34475934001E-01 0.  0.
         14    1    1    2    0    0  0.11242443554E-01 -0.12122003429E-01 -0.17141356444E-01  0.23815154942E-01  0.00000000000E+00 0. -1.
     999901    1    3    3    0    0  0.10406477439E+00 -0.16574509938E-02  0.67991045853E-01  0.88873787290E+00  0.88000000000E+00 0.  1.
        -11    1    4    4    0    0 -0.82077215251E-01  0.24704920607E-01 -0.30970491311E-01  0.91139644605E-01  0.51100000000E-03 0.  1.
         11    1    4    4    0    0 -0.33230002695E-01 -0.10925466185E-01 -0.19879198098E-01  0.40237327552E-01  0.51100000000E-03 0. -1.
</event>
<event>
 8    1  0.1101883E+005  0.1043930E+01  0.7957747E-01            NaN
         13   -1    0    0    0    0  0.00000000000E+00  0.00000000000E+00  0.74505805969E-08  0.10566000000E+00  0.10566000000E+00 0.  1.
     999900   -1    0    0    0    0 -0.00000000000E+00 -0.00000000000E+00 -0.74505805969E-08  0.93827000000E+00  0.93827000000E+00 0. -1.
     999902    2    1    2    0    0 -0.31396082518E-02 -0.13654711023E-03 -0.23126458038E-01  0.10205910016E+01  0.10203241072E+01 0.  0.
     999903    2    3    3    0    0  0.86748220792E-01 -0.92506345770E-01  0.22257761168E-01  0.13004525383E+00  0.18266972732E-01 0.  0.
         14    1    1    2    0    0  0.31396082518E-02  0.13654711023E-03  0.23126458038E-01  0.23338998404E-01  0.00000000000E+00 0.  1.
     999901    1    3    3    0    0 -0.89887829044E-01  0.92369798660E-01 -0.45384219207E-01  0.89054574777E+00  0.88000000000E+00 0.  1.
        -11    1    4    4    0    0  0.25851535702E-01 -0.38589996275E-01  0.12649481940E-01  0.48143122302E-01  0.51100000000E-03 0.  1.
         11    1    4    4    0    0  0.60896685090E-01 -0.53916349495E-01  0.96082792279E-02  0.81902131526E-01  0.51100000000E-03 0. -1.
</event>
<event>
 8    1  0.1101883E+005  0.1043930E+01  0.7957747E-01            NaN
         13   -1    0    0    0    0  0.00000000000E+00  0.00000000000E+00  0.74505805969E-08  0.10566000000E+00  0.10566000000E+00 0. -1.
     999900   -1    0    0    0    0 -0.00000000000E+00 -0.00000000000E+00 -0.74505805969E-08  0.93827000000E+00  0.93827000000E+00 0. -1.
     999902    2    1    2    0    0 -0.76862000298E-02 -0.21959310015E-01  0.42673278756E-02  0.10202762676E+01  0.10200020408E+01 0.  0.
     999903    2    3    3    0    0  0.10748561608E+00  0.65503004046E-01 -0.16932991401E-01  0.12822040776E+00  0.17605270965E-01 0.  0.
         14    1    1    2    0    0  0.76862000298E-02  0.21959310015E-01 -0.42673278756E-02  0.23653732357E-01  0.00000000000E+00 0. -1.
     999901    1    3    3    0    0 -0.11517181611E+00 -0.87462314061E-01  0.21200319277E-01  0.89205585988E+00  0.88000000000E+00 0.  1.
        -11    1    4    4    0    0  0.85246550384E-01  0.54507683868E-01 -0.67859652538E-02  0.10141189476E+00  0.51100000000E-03 0. -1.
         11    1    4    4    0    0  0.22239065697E-01  0.10995320178E-01 -0.10147026147E-01  0.26808513005E-01  0.51100000000E-03 0.  1.
</event>
<event>
 7    1  0.1101883E+005  0.1043930E+01  0.7957747E-01            NaN
         13   -1    0    0    0    0  0.00000000000E+00  0.00000000000E+00  0.74505805969E-08  0.10566000000E+00  0.10566000000E+00 0.  1.
     999900   -1    0    0    0    0 -0.00000000000E+00 -0.00000000000E+00 -0.74505805969E-08  0.93827000000E+00  0.93827000000E+00 0. -1.
     999902    2    1    2    0    0  0.28318017417E-02 -0.23622361179E-01  0.22977445833E-02  0.10200278102E+01  0.10197477231E+01 0.  0.
         14    1    1    2    0    0 -0.28318017417E-02  0.23622361179E-01 -0.22977445833E-02  0.23902189835E-01  0.00000000000E+00 0. -1.
     999901    1    3    3    0    0 -0.21752679366E-01  0.71996404172E-01 -0.86238241107E-01  0.88740841528E+00  0.88000000000E+00 0. -1.
        -11    1    3    3    0    0  0.19210752918E-01 -0.74166411072E-01  0.68379056510E-01  0.10269209341E+00  0.51100000000E-03 0.  1.
         11    1    3    3    0    0  0.53737281894E-02 -0.21452354278E-01  0.20156929180E-01  0.29927301477E-01  0.51100000000E-03 0. -1.
</event>
<event>
 8    1  0.1101883E+005  0.1043930E+01  0.7957747E-01            NaN
         13   -1    0    0    0    0  0.00000000000E+00  0.00000000000E+00  0.74505805969E-08  0.10566000000E+00  0.10566000000E+00 0. -1.
     999900   -1    0    0    0    0 -0.00000000000E+00 -0.00000000000E+00 -0.74505805969E-08  0.93827000000E+00  0.93827000000E+00 0. -1.
     999902    2    1    2    0    0  0.20864450992E-01  0.40884007094E-02 -0.99747005931E-02  0.10204452180E+01  0.10201749398E+01 0.  0.
     999903    2    3    3    0    0  0.31974486095E-01  0.47104256154E-01  0.11557256321E+00  0.13042504282E+00  0.20309990650E-01 0.  0.
         14    1    1    2    0    0 -0.20864450992E-01 -0.40884007094E-02  0.99747005931E-02  0.23484782040E-01  0.00000000000E+00 0. -1.
     999901    1    3    3    0    0 -0.11110035103E-01 -0.43015855444E-01 -0.12554726380E+00  0.89002017514E+00  0.88000000000E+00 0. -1.
        -11    1    4    4    0    0 -0.23363911281E-02  0.13113069011E-02  0.25116727069E-02  0.37078120340E-02  0.51100000000E-03 0.  1.
         11    1    4    4    0    0  0.34310877223E-01  0.45792949253E-01  0.11306089050E+00  0.12671723079E+00  0.51100000000E-03 0. -1.
</event>
<event>
 8    1  0.1101883E+005  0.1043930E+01  0.7957747E-01            NaN
         13   -1    0    0    0    0  0.00000000000E+00  0.00000000000E+00  0.74505805969E-08  0.10566000000E+00  0.10566000000E+00 0. -1.
     999900   -1    0    0    0    0 -0.00000000000E+00 -0.00000000000E+00 -0.74505805969E-08  0.93827000000E+00  0.93827000000E+00 0. -1.
     999902    2    1    2    0    0  0.57776720727E-02  0.15406318825E-01 -0.17248057520E-01  0.10200923902E+01  0.10198138324E+01 0.  0.
     999903    2    3    3    0    0  0.40452181284E-01  0.16292775762E-01  0.11977974140E+00  0.12881256594E+00  0.18537992947E-01 0.  0.
         14    1    1    2    0    0 -0.57776720727E-02 -0.15406318825E-01  0.17248057520E-01  0.23837609833E-01  0.00000000000E+00 0.  1.
     999901    1    3    3    0    0 -0.34674509211E-01 -0.88645693752E-03 -0.13702779892E+00  0.89127982423E+00  0.88000000000E+00 0. -1.
        -11    1    4    4    0    0  0.10545080002E-01  0.29822448660E-02  0.56606156245E-01  0.57659435850E-01  0.51100000000E-03 0.  1.
         11    1    4    4    0    0  0.29907101281E-01  0.13310530896E-01  0.63173585152E-01  0.71153130091E-01  0.51100000000E-03 0. -1.
</event>
<event>
 8    1  0.1101883E+005  0.1043930E+01  0.7957747E-01            NaN
         13   -1    0    0    0    0  0.00000000000E+00  0.00000000000E+00  0.74505805969E-08  0.10566000000E+00  0.10566000000E+00 0. -1.
     999900   -1    0    0    0    0 -0.00000000000E+00 -0.00000000000E+00 -0.74505805969E-08  0.93827000000E+00  0.93827000000E+00 0.  1.
     999902    2    1    2    0    0  0.19001064382E-02 -0.89780583976E-02 -0.21845237175E-01  0.10202354790E+01  0.10199602945E+01 0.  0.
     999903    2    3    3    0    0 -0.10556081765E+00 -0.56380180852E-01  0.45936599096E-01  0.12984837852E+00  0.20703121779E-01 0.  0.
         14    1    1    2    0    0 -0.19001064382E-02  0.89780583976E-02  0.21845237175E-01  0.23694520977E-01  0.00000000000E+00 0. -1.
     999901    1    3    3    0    0  0.10746092409E+00  0.47402122454E-01 -0.67781836272E-01  0.89038710051E+00  0.88000000000E+00 0.  1.
        -11    1    4    4    0    0 -0.40517096387E-01 -0.11512433653E-01  0.11606327261E-01  0.43693697277E-01  0.51100000000E-03 0. -1.
         11    1    4    4    0    0 -0.65043721262E-01 -0.44867747199E-01  0.34330271836E-01  0.86154681241E-01  0.51100000000E-03 0.  1.
</event>
<event>
 8    1  0.1101883E+005  0.1043930E+01  0.7957747E-01            NaN
         13   -1    0    0    0    0  0.00000000000E+00  0.00000000000E+00  0.74505805969E-08  0.10566000000E+00  0.10566000000E+00 0.  1.
     999900   -1    0    0    0    0 -0.00000000000E+00 -0.00000000000E+00 -0.74505805969E-08  0.93827000000E+00  0.93827000000E+00 0.  1.
     999902    2    1    2    0    0 -0.22832764342E-01  0.66412409452E-02 -0.11263434418E-02  0.10201243314E+01  0.10198465285E+01 0.  0.
     999903    2    3    3    0    0  0.37060655501E-01 -0.59766408192E-01  0.10743181552E+00  0.12895539595E+00  0.11932452507E-01 0.  0.
         14    1    1    2    0    0  0.22832764342E-01 -0.66412409452E-02  0.11263434418E-02  0.23805668618E-01  0.00000000000E+00 0. -1.
     999901    1    3    3    0    0 -0.59893419843E-01  0.66407649137E-01 -0.10855815897E+00  0.89116893543E+00  0.88000000000E+00 0.  1.
        -11    1    4    4    0    0  0.77523320733E-02 -0.22915840969E-01  0.38665279306E-01  0.45612491323E-01  0.51100000000E-03 0.  1.
         11    1    4    4    0    0  0.29308323428E-01 -0.36850567223E-01  0.68766536219E-01  0.83342904625E-01  0.51100000000E-03 0. -1.
</event>
<event>
 8    1  0.1111118E+005  0.1043930E+01  0.7957747E-01            NaN
         13   -1    0    0    0    0  0.00000000000E+00  0.00000000000E+00  0.74505805969E-08  0.10566000000E+00  0.10566000000E+00 0.  1.
     999900   -1    0    0    0    0 -0.00000000000E+00 -0.00000000000E+00 -0.74505805969E-08  0.93827000000E+00  0.93827000000E+00 0. -1.
     999902    2    1    2    0    0  0.77512548627E-02 -0.20627488519E-01  0.68745532578E-02  0.10208467871E+01  0.10205857769E+01 0.  0.
     999903    2    3    3    0    0 -0.58538520163E-01 -0.11732947035E+00  0.11109984326E-01  0.13306103231E+00  0.19719117954E-01 0.  0.
         14    1    1    2    0    0 -0.77512548627E-02  0.20627488519E-01 -0.68745532578E-02  0.23083212884E-01  0.00000000000E+00 0. -1.
     999901    1    3    3    0    0  0.66289775025E-01  0.96701981828E-01 -0.42354310679E-02  0.88778575481E+00  0.88000000000E+00 0. -1.
        -11    1    4    4    0    0 -0.14977205980E-01 -0.30172294909E-01  0.11573898519E-01  0.35621627237E-01  0.51100000000E-03 0.  1.
         11    1    4    4    0    0 -0.43561314183E-01 -0.87157175437E-01 -0.46391419359E-03  0.97439405072E-01  0.51100000000E-03 0. -1.
</event>
<event>
 8    1  0.1101883E+005  0.1043930E+01  0.7957747E-01            NaN
         13   -1    0    0    0    0  0.00000000000E+00  0.00000000000E+00  0.74505805969E-08  0.10566000000E+00  0.10566000000E+00 0.  1.
     999900   -1    0    0    0    0 -0.00000000000E+00 -0.00000000000E+00 -0.74505805969E-08  0.93827000000E+00  0.93827000000E+00 0.  1.
     999902    2    1    2    0    0 -0.15213511436E-01  0.96375611147E-02 -0.14876638128E-01  0.10205708931E+01  0.10203035332E+01 0.  0.
     999903    2    3    3    0    0 -0.10348713067E+00  0.75760136603E-01 -0.30912931713E-01  0.13354124895E+00  0.20699548571E-01 0.  0.
         14    1    1    2    0    0  0.15213511436E-01 -0.96375611147E-02  0.14876638128E-01  0.23359106928E-01  0.00000000000E+00 0.  1.
     999901    1    3    3    0    0  0.88273619235E-01 -0.66122575488E-01  0.16036293584E-01  0.88702964412E+00  0.88000000000E+00 0.  1.
        -11    1    4    4    0    0 -0.82884286755E-01  0.54003736135E-01 -0.30671701145E-01  0.10357230749E+00  0.51100000000E-03 0.  1.
         11    1    4    4    0    0 -0.20602843917E-01  0.21756400468E-01 -0.24123056805E-03  0.29968941455E-01  0.51100000000E-03 0. -1.
</event>
<event>
 8    1  0.1101883E+005  0.1043930E+01  0.7957747E-01            NaN
         13   -1    0    0    0    0  0.00000000000E+00  0.00000000000E+00  0.74505805969E-08  0.10566000000E+00  0.10566000000E+00 0.  1.
     999900   -1    0    0    0    0 -0.00000000000E+00 -0.00000000000E+00 -0.74505805969E-08  0.93827000000E+00  0.93827000000E+00 0.  1.
     999902    2    1    2    0    0  0.41920397774E-03 -0.20220884389E-01  0.11759795807E-01  0.10205344300E+01  0.10202662251E+01 0.  0.
     999903    2    3    3    0    0  0.32198699011E-01 -0.94647643028E-01  0.86557498343E-01  0.13366128519E+00  0.19447521463E-01 0.  0.
         14    1    1    2    0    0 -0.41920397774E-03  0.20220884389E-01 -0.11759795807E-01  0.23395569984E-01  0.00000000000E+00 0. -1.
     999901    1    3    3    0    0 -0.31779495033E-01  0.74426758640E-01 -0.74797702536E-01  0.88687314482E+00  0.88000000000E+00 0.  1.
        -11    1    4    4    0    0  0.74916358198E-02 -0.34988285848E-01  0.20303841917E-01  0.41143795054E-01  0.51100000000E-03 0.  1.
         11    1    4    4    0    0  0.24707063191E-01 -0.59659357180E-01  0.66253656426E-01  0.92517490138E-01  0.51100000000E-03 0. -1.
</event>
<event>
 8    1  0.1101883E+005  0.1043930E+01  0.7957747E-01            NaN
         13   -1    0    0    0    0  0.00000000000E+00  0.00000000000E+00  0.74505805969E-08  0.10566000000E+00  0.10566000000E+00 0.  1.
     999900   -1    0    0    0    0 -0.00000000000E+00 -0.00000000000E+00 -0.74505805969E-08  0.93827000000E+00  0.93827000000E+00 0.  1.
     999902    2    1    2    0    0  0.82803484539E-02  0.20761395890E-01  0.12665032877E-02  0.10215424195E+01  0.10212970729E+01 0.  0.
     999903    2    3    3    0    0  0.57145398240E-01  0.11773354721E+00 -0.22942674682E-01  0.13453764189E+00  0.21147720542E-01 0.  0.
         14    1    1    2    0    0 -0.82803484539E-02 -0.20761395890E-01 -0.12665032877E-02  0.22387580494E-01  0.00000000000E+00 0.  1.
     999901    1    3    3    0    0 -0.48865049786E-01 -0.96972151320E-01  0.24209177970E-01  0.88700477762E+00  0.88000000000E+00 0. -1.
        -11    1    4    4    0    0  0.14524984902E-01  0.45617189848E-01 -0.77206985783E-03  0.47882777790E-01  0.51100000000E-03 0. -1.
         11    1    4    4    0    0  0.42620413338E-01  0.72116357362E-01 -0.22170604825E-01  0.86654864096E-01  0.51100000000E-03 0.  1.
</event>
<event>
 8    1  0.1101883E+005  0.1043930E+01  0.7957747E-01            NaN
         13   -1    0    0    0    0  0.00000000000E+00  0.00000000000E+00  0.74505805969E-08  0.10566000000E+00  0.10566000000E+00 0.  1.
     999900   -1    0    0    0    0 -0.00000000000E+00 -0.00000000000E+00 -0.74505805969E-08  0.93827000000E+00  0.93827000000E+00 0.  1.
     999902    2    1    2    0    0  0.17502386190E-02 -0.93958071317E-03  0.23847060080E-01  0.10200003443E+01  0.10197196056E+01 0.  0.
     999903    2    3    3    0    0  0.26125501045E-01  0.12573769990E+00  0.10794686788E-01  0.13049955662E+00  0.20520673372E-01 0.  0.
         14    1    1    2    0    0 -0.17502386190E-02  0.93958071317E-03 -0.23847060080E-01  0.23929655693E-01  0.00000000000E+00 0. -1.
     999901    1    3    3    0    0 -0.24375262426E-01 -0.12667728061E+00  0.13052373292E-01  0.88950078768E+00  0.88000000000E+00 0.  1.
        -11    1    4    4    0    0 -0.31939689659E-02  0.21136259337E-01  0.63941403514E-03  0.21391887897E-01  0.51100000000E-03 0.  1.
         11    1    4    4    0    0  0.29319470010E-01  0.10460144056E+00  0.10155272753E-01  0.10910766873E+00  0.51100000000E-03 0. -1.
</event>
<event>
 8    1  0.1101883E+005  0.1043930E+01  0.7957747E-01            NaN
         13   -1    0    0    0    0  0.00000000000E+00  0.00000000000E+00  0.74505805969E-08  0.10566000000E+00  0.10566000000E+00 0. -1.
     999900   -1    0    0    0    0 -0.00000000000E+00 -0.00000000000E+00 -0.74505805969E-08  0.93827000000E+00  0.93827000000E+00 0. -1.
     999902    2    1    2    0    0  0.15060279659E-01  0.19838514133E-01  0.24472351878E-02  0.10189026624E+01  0.10185952424E+01 0.  0.
     999903    2    3    3    0    0  0.12803851372E+00 -0.18225415818E-01  0.50914901498E-02  0.13085990657E+00  0.19296763872E-01 0.  0.
         14    1    1    2    0    0 -0.15060279659E-01 -0.19838514133E-01 -0.24472351878E-02  0.25027337583E-01  0.00000000000E+00 0.  1.
     999901    1    3    3    0    0 -0.11297823407E+00  0.38063929951E-01 -0.26442549620E-02  0.88804275585E+00  0.88000000000E+00 0. -1.
        -11    1    4    4    0    0  0.51594288041E-01 -0.19196584533E-02 -0.57271946912E-02  0.51949182159E-01  0.51100000000E-03 0.  1.
         11    1    4    4    0    0  0.76444225684E-01 -0.16305757365E-01  0.10818684841E-01  0.78910724406E-01  0.51100000000E-03 0. -1.
</event>
<event>
 8    1  0.1101883E+005  0.1043930E+01  0.7957747E-01            NaN
         13   -1    0    0    0    0  0.00000000000E+00  0.00000000000E+00  0.74505805969E-08  0.10566000000E+00  0.10566000000E+00 0.  1.
     999900   -1    0    0    0    0 -0.00000000000E+00 -0.00000000000E+00 -0.74505805969E-08  0.93827000000E+00  0.93827000000E+00 0. -1.
     999902    2    1    2    0    0 -0.88569343831E-02  0.18471654159E-01 -0.10883741048E-01  0.10207329503E+01  0.10204693297E+01 0.  0.
     999903    2    3    3    0    0  0.19830002167E-01 -0.18522706709E-01 -0.12735673599E+00  0.13182492269E+00  0.20536610951E-01 0.  0.
         14    1    1    2    0    0  0.88569343831E-02 -0.18471654159E-01  0.10883741048E-01  0.23197049666E-01  0.00000000000E+00 0.  1.
     999901    1    3    3    0    0 -0.28686936550E-01  0.36994360868E-01  0.11647299494E+00  0.88890802765E+00  0.88000000000E+00 0.  1.
        -11    1    4    4    0    0  0.21053851656E-01 -0.70985522136E-02 -0.75202559824E-01  0.78417729107E-01  0.51100000000E-03 0.  1.
         11    1    4    4    0    0 -0.12238494894E-02 -0.11424154495E-01 -0.52154176166E-01  0.53407193580E-01  0.51100000000E-03 0. -1.
</event>
<event>
 8    1  0.1101883E+005  0.1043930E+01  0.7957747E-01            NaN
         13   -1    0    0    0    0  0.00000000000E+00  0.00000000000E+00  0.74505805969E-08  0.10566000000E+00  0.10566000000E+00 0.  1.
     999900   -1    0    0    0    0 -0.00000000000E+00 -0.00000000000E+00 -0.74505805969E-08  0.93827000000E+00  0.93827000000E+00 0. -1.
     999902    2    1    2    0    0  0.97573697997E-03  0.88428196831E-02 -0.22068849861E-01  0.10201354280E+01  0.10198578871E+01 0.  0.
     999903    2    3    3    0    0  0.10573224696E+00 -0.32494526035E-01 -0.68632391700E-01  0.13173750704E+00  0.20227785379E-01 0.  0.
         14    1    1    2    0    0 -0.97573697997E-03 -0.88428196831E-02  0.22068849861E-01  0.23794572003E-01  0.00000000000E+00 0.  1.
     999901    1    3    3    0    0 -0.10475650998E+00  0.41337345718E-01  0.46563541838E-01  0.88839792096E+00  0.88000000000E+00 0.  1.
        -11    1    4    4    0    0  0.42531531517E-01 -0.17729857888E-01 -0.39080239048E-01  0.60421893706E-01  0.51100000000E-03 0. -1.
         11    1    4    4    0    0  0.63200715441E-01 -0.14764668147E-01 -0.29552152651E-01  0.71315613333E-01  0.51100000000E-03 0.  1.
</event>
<event>
 8    1  0.1101883E+005  0.1043930E+01  0.7957747E-01            NaN
         13   -1    0    0    0    0  0.00000000000E+00  0.00000000000E+00  0.74505805969E-08  0.10566000000E+00  0.10566000000E+00 0.  1.
     999900   -1    0    0    0    0 -0.00000000000E+00 -0.00000000000E+00 -0.74505805969E-08  0.93827000000E+00  0.93827000000E+00 0.  1.
     999902    2    1    2    0    0 -0.13496217547E-01  0.16987429461E-01  0.93589385707E-02  0.10203014076E+01  0.10200277702E+01 0.  0.
     999903    2    3    3    0    0  0.11508511204E+00 -0.42678316722E-01 -0.30739648654E-01  0.12805645453E+00  0.19685218195E-01 0.  0.
         14    1    1    2    0    0  0.13496217547E-01 -0.16987429461E-01 -0.93589385707E-02  0.23628592403E-01  0.00000000000E+00 0. -1.
     999901    1    3    3    0    0 -0.12858132958E+00  0.59665746183E-01  0.40098587225E-01  0.89224495307E+00  0.88000000000E+00 0. -1.
        -11    1    4    4    0    0  0.53552717118E-01 -0.16211269673E-01 -0.23470744733E-01  0.60678132424E-01  0.51100000000E-03 0.  1.
         11    1    4    4    0    0  0.61532394919E-01 -0.26467047049E-01 -0.72689039211E-02  0.67378322101E-01  0.51100000000E-03 0. -1.
</event>
<event>
 8    1  0.1101883E+005  0.1043930E+01  0.7957747E-01            NaN
         13   -1    0    0    0    0  0.00000000000E+00  0.00000000000E+00  0.74505805969E-08  0.10566000000E+00  0.10566000000E+00 0.  1.
     999900   -1    0    0    0    0 -0.00000000000E+00 -0.00000000000E+00 -0.74505805969E-08  0.93827000000E+00  0.93827000000E+00 0.  1.
     999902    2    1    2    0    0 -0.17825962212E-01  0.85937945829E-02  0.12258228620E-01  0.10206516323E+01  0.10203861387E+01 0.  0.
     999903    2    3    3    0    0 -0.64782482215E-01  0.58180896136E-01 -0.96301623196E-01  0.13135469829E+00  0.19956639362E-01 0.  0.
         14    1    1    2    0    0  0.17825962212E-01 -0.85937945829E-02 -0.12258228620E-01  0.23278367705E-01  0.00000000000E+00 0.  1.
     999901    1    3    3    0    0  0.46956520003E-01 -0.49587101553E-01  0.10855985182E+00  0.88929693401E+00  0.88000000000E+00 0. -1.
        -11    1    4    4    0    0 -0.21022564516E-01  0.10809940822E-01 -0.35948864739E-01  0.43027724045E-01  0.51100000000E-03 0. -1.
         11    1    4    4    0    0 -0.43759917698E-01  0.47370955314E-01 -0.60352758457E-01  0.88326974242E-01  0.51100000000E-03 0.  1.
</event>
<event>
 8    1  0.1101883E+005  0.1043930E+01  0.7957747E-01            NaN
         13   -1    0    0    0    0  0.00000000000E+00  0.00000000000E+00  0.74505805969E-08  0.10566000000E+00  0.10566000000E+00 0. -1.
     999900   -1    0    0    0    0 -0.00000000000E+00 -0.00000000000E+00 -0.74505805969E-08  0.93827000000E+00  0.93827000000E+00 0. -1.
     999902    2    1    2    0    0  0.26690429996E-02  0.16997263087E-01  0.17002692927E-01  0.10197406984E+01  0.10194537605E+01 0.  0.
     999903    2    3    3    0    0 -0.86090717482E-01 -0.90850631494E-01  0.21884391068E-01  0.12871135301E+00  0.20548404860E-01 0.  0.
         14    1    1    2    0    0 -0.26690429996E-02 -0.16997263087E-01 -0.17002692927E-01  0.24189301555E-01  0.00000000000E+00 0.  1.
     999901    1    3    3    0    0  0.88759760482E-01  0.10784789458E+00 -0.48816981413E-02  0.89102934543E+00  0.88000000000E+00 0. -1.
        -11    1    4    4    0    0 -0.58784221969E-01 -0.56098547970E-01  0.50521911925E-02  0.81415094385E-01  0.51100000000E-03 0. -1.
         11    1    4    4    0    0 -0.27306495513E-01 -0.34752083523E-01  0.16832199876E-01  0.47296258627E-01  0.51100000000E-03 0.  1.
</event>
<event>
 8    1  0.1101883E+005  0.1043930E+01  0.7957747E-01            NaN
         13   -1    0    0    0    0  0.00000000000E+00  0.00000000000E+00  0.74505805969E-08  0.10566000000E+00  0.10566000000E+00 0.  1.
     999900   -1    0    0    0    0 -0.00000000000E+00 -0.00000000000E+00 -0.74505805969E-08  0.93827000000E+00  0.93827000000E+00 0.  1.
     999902    2    1    2    0    0 -0.16317806077E-01 -0.75205523232E-02 -0.15087438534E-01  0.10204681095E+01  0.10201983642E+01 0.  0.
     999903    2    3    3    0    0 -0.12465653696E+00  0.28386984065E-02  0.38766889070E-01  0.13212983879E+00  0.20201786903E-01 0.  0.
         14    1    1    2    0    0  0.16317806077E-01  0.75205523232E-02  0.15087438534E-01  0.23461890460E-01  0.00000000000E+00 0.  1.
     999901    1    3    3    0    0  0.10833873088E+00 -0.10359250730E-01 -0.53854327604E-01  0.88833827075E+00  0.88000000000E+00 0.  1.
        -11    1    4    4    0    0 -0.52237801116E-01 -0.87647586786E-02  0.16178162765E-01  0.55385945253E-01  0.51100000000E-03 0.  1.
         11    1    4    4    0    0 -0.72418735844E-01  0.11603457085E-01  0.22588726305E-01  0.76743893533E-01  0.51100000000E-03 0. -1.
</event>
<event>
 8    1  0.1101883E+005  0.1043930E+01  0.7957747E-01            NaN
         13   -1    0    0    0    0  0.00000000000E+00  0.00000000000E+00  0.74505805969E-08  0.10566000000E+00  0.10566000000E+00 0. -1.
     999900   -1    0    0    0    0 -0.00000000000E+00 -0.00000000000E+00 -0.74505805969E-08  0.93827000000E+00  0.93827000000E+00 0. -1.
     999902    2    1    2    0    0  0.11693006192E-01 -0.20479903442E-01 -0.35509470978E-02  0.10200812670E+01  0.10198024462E+01 0.  0.
     999903    2    3    3    0    0 -0.11701762778E+00 -0.21866667703E-01  0.46595066046E-01  0.12930465472E+00  0.19424654023E-01 0.  0.
         14    1    1    2    0    0 -0.11693006192E-01  0.20479903442E-01  0.35509470978E-02  0.23848732966E-01  0.00000000000E+00 0.  1.
     999901    1    3    3    0    0  0.12871063397E+00  0.13867642610E-02 -0.50146013144E-01  0.89077661231E+00  0.88000000000E+00 0.  1.
        -11    1    4    4    0    0 -0.73030787693E-01 -0.14247609109E-01  0.39027103363E-01  0.84023010148E-01  0.51100000000E-03 0. -1.
         11    1    4    4    0    0 -0.43986840089E-01 -0.76190585944E-02  0.75679626831E-02  0.45281644571E-01  0.51100000000E-03 0.  1.
</event>
<event>
 8    1  0.1101883E+005  0.1043930E+01  0.7957747E-01            NaN
         13   -1    0    0    0    0  0.00000000000E+00  0.00000000000E+00  0.74505805969E-08  0.10566000000E+00  0.10566000000E+00 0.  1.
     999900   -1    0    0    0    0 -0.00000000000E+00 -0.00000000000E+00 -0.74505805969E-08  0.93827000000E+00  0.93827000000E+00 0. -1.
     999902    2    1    2    0    0 -0.17170413166E-01  0.15023003041E-01 -0.46219472917E-02  0.10206517676E+01  0.10203862771E+01 0.  0.
     999903    2    3    3    0    0 -0.75019988930E-01  0.66365029242E-01  0.84668590609E-01  0.13275798043E+00  0.20581430622E-01 0.  0.
         14    1    1    2    0    0  0.17170413166E-01 -0.15023003041E-01  0.46219472917E-02  0.23278232438E-01  0.00000000000E+00 0.  1.
     999901    1    3    3    0    0  0.57849575764E-01 -0.51342026201E-01 -0.89290537901E-01  0.88789378713E+00  0.88000000000E+00 0. -1.
        -11    1    4    4    0    0 -0.48844750819E-01  0.30886641024E-01  0.53567703152E-01  0.78800724732E-01  0.51100000000E-03 0. -1.
         11    1    4    4    0    0 -0.26175238111E-01  0.35478388218E-01  0.31100887457E-01  0.53957255697E-01  0.51100000000E-03 0.  1.
</event>
<event>
 8    1  0.1101883E+005  0.1043930E+01  0.7957747E-01            NaN
         13   -1    0    0    0    0  0.00000000000E+00  0.00000000000E+00  0.74505805969E-08  0.10566000000E+00  0.10566000000E+00 0.  1.
     999900   -1    0    0    0    0 -0.00000000000E+00 -0.00000000000E+00 -0.74505805969E-08  0.93827000000E+00  0.93827000000E+00 0.  1.
     999902    2    1    2    0    0 -0.66346661053E-02 -0.68848957235E-02  0.22750531120E-01  0.10192519278E+01  0.10189531319E+01 0.  0.
     999903    2    3    3    0    0  0.33327461681E-01  0.11801414505E+00  0.36173143978E-01  0.12943345830E+00  0.20160993244E-01 0.  0.
         14    1    1    2    0    0  0.66346661053E-02  0.68848957235E-02 -0.22750531120E-01  0.24678072244E-01  0.00000000000E+00 0. -1.
     999901    1    3    3    0    0 -0.39962127787E-01 -0.12489904077E+00 -0.13422612858E-01  0.88981846945E+00  0.88000000000E+00 0.  1.
        -11    1    4    4    0    0  0.31537559931E-01  0.94303531442E-01  0.22331549798E-01  0.10191532253E+00  0.51100000000E-03 0. -1.
         11    1    4    4    0    0  0.17899017509E-02  0.23710613609E-01  0.13841594180E-01  0.27518135773E-01  0.51100000000E-03 0.  1.
</event>
<event>
 8    1  0.1101883E+005  0.1043930E+01  0.7957747E-01            NaN
         13   -1    0    0    0    0  0.00000000000E+00  0.00000000000E+00  0.74505805969E-08  0.10566000000E+00  0.10566000000E+00 0.  1.
     999900   -1    0    0    0    0 -0.00000000000E+00 -0.00000000000E+00 -0.74505805969E-08  0.93827000000E+00  0.93827000000E+00 0. -1.
     999902    2    1    2    0    0 -0.33875892181E-02 -0.95405786308E-02  0.21535279003E-01  0.10201336422E+01  0.10198560591E+01 0.  0.
     999903    2    3    3    0    0  0.10328947100E+00 -0.12220777285E-01  0.78193946446E-01  0.13187839556E+00  0.21437251189E-01 0.  0.
         14    1    1    2    0    0  0.33875892181E-02  0.95405786308E-02 -0.21535279003E-01  0.23796357769E-01  0.00000000000E+00 0. -1.
     999901    1    3    3    0    0 -0.10667706022E+00  0.26801986542E-02 -0.56658667443E-01  0.88825524667E+00  0.88000000000E+00 0. -1.
        -11    1    4    4    0    0  0.65639780127E-01 -0.17931936894E-01  0.47903450635E-01  0.83217406831E-01  0.51100000000E-03 0.  1.
         11    1    4    4    0    0  0.37649690871E-01  0.57111596089E-02  0.30290495811E-01  0.48660988730E-01  0.51100000000E-03 0. -1.
</event>
<event>
 8    1  0.1101883E+005  0.1043930E+01  0.7957747E-01            NaN
         13   -1    0    0    0    0  0.00000000000E+00  0.00000000000E+00  0.74505805969E-08  0.10566000000E+00  0.10566000000E+00 0. -1.
     999900   -1    0    0    0    0 -0.00000000000E+00 -0.00000000000E+00 -0.74505805969E-08  0.93827000000E+00  0.93827000000E+00 0. -1.
     999902    2    1    2    0    0  0.13480841796E-01  0.85883455931E-02 -0.17491070588E-01  0.10202354790E+01  0.10199602945E+01 0.  0.
     999903    2    3    3    0    0 -0.30978128205E-02  0.37477770434E-01 -0.12588544581E+00  0.13295942768E+00  0.20417742766E-01 0.  0.
         14    1    1    2    0    0 -0.13480841796E-01 -0.85883455931E-02  0.17491070588E-01  0.23694521010E-01  0.00000000000E+00 0. -1.
     999901    1    3    3    0    0  0.16578654617E-01 -0.28889424841E-01  0.10839437522E+00  0.88727605131E+00  0.88000000000E+00 0.  1.
        -11    1    4    4    0    0 -0.81663481138E-02  0.11782423337E-01 -0.66871888312E-01  0.68393167120E-01  0.51100000000E-03 0.  1.
         11    1    4    4    0    0  0.50685352934E-02  0.25695347097E-01 -0.59013557499E-01  0.64566260556E-01  0.51100000000E-03 0. -1.
</event>
<event>
 8    1  0.1101883E+005  0.1043930E+01  0.7957747E-01            NaN
         13   -1    0    0    0    0  0.00000000000E+00  0.00000000000E+00  0.74505805969E-08  0.10566000000E+00  0.10566000000E+00 0. -1.
     999900   -1    0    0    0    0 -0.00000000000E+00 -0.00000000000E+00 -0.74505805969E-08  0.93827000000E+00  0.93827000000E+00 0. -1.
     999902    2    1    2    0    0  0.19992049846E-01 -0.86087109059E-02 -0.88807977273E-02  0.10204212670E+01  0.10201504308E+01 0.  0.
     999903    2    3    3    0    0  0.77281739829E-01 -0.70607230855E-01  0.78166016329E-01  0.13210652945E+00  0.19605118066E-01 0.  0.
         14    1    1    2    0    0 -0.19992049846E-01  0.86087109059E-02  0.88807977273E-02  0.23508733032E-01  0.00000000000E+00 0. -1.
     999901    1    3    3    0    0 -0.57289689983E-01  0.61998519950E-01 -0.87046814057E-01  0.88831473752E+00  0.88000000000E+00 0. -1.
        -11    1    4    4    0    0  0.45797287656E-01 -0.36881283490E-01  0.32494693753E-01  0.67184722011E-01  0.51100000000E-03 0.  1.
         11    1    4    4    0    0  0.31484452173E-01 -0.33725947365E-01  0.45671322576E-01  0.64921807439E-01  0.51100000000E-03 0. -1.
</event>
<event>
 8    1  0.1101883E+005  0.1043930E+01  0.7957747E-01            NaN
         13   -1    0    0    0    0  0.00000000000E+00  0.00000000000E+00  0.74505805969E-08  0.10566000000E+00  0.10566000000E+00 0.  1.
     999900   -1    0    0    0    0 -0.00000000000E+00 -0.00000000000E+00 -0.74505805969E-08  0.93827000000E+00  0.93827000000E+00 0. -1.
     999902    2    1    2    0    0  0.13080239157E-01 -0.16085419252E-01  0.94274300540E-02  0.10211547984E+01  0.10209007849E+01 0.  0.
     999903    2    3    3    0    0 -0.37453963086E-01 -0.26646897323E-01  0.12269792084E+00  0.13239417009E+00  0.18988944365E-01 0.  0.
         14    1    1    2    0    0 -0.13080239157E-01  0.16085419252E-01 -0.94274300540E-02  0.22775201565E-01  0.00000000000E+00 0. -1.
     999901    1    3    3    0    0  0.50534202243E-01  0.10561478071E-01 -0.11327049078E+00  0.88876062835E+00  0.88000000000E+00 0. -1.
        -11    1    4    4    0    0 -0.27062698527E-01 -0.99345943977E-02  0.86648660531E-01  0.91319972132E-01  0.51100000000E-03 0. -1.
         11    1    4    4    0    0 -0.10391264559E-01 -0.16712302925E-01  0.36049260306E-01  0.41074197957E-01  0.51100000000E-03 0.  1.
</event>
<event>
 8    1  0.1101883E+005  0.1043930E+01  0.7957747E-01            NaN
         13   -1    0    0    0    0  0.00000000000E+00  0.00000000000E+00  0.74505805969E-08  0.10566000000E+00  0.10566000000E+00 0. -1.
     999900   -1    0    0    0    0 -0.00000000000E+00 -0.00000000000E+00 -0.74505805969E-08  0.93827000000E+00  0.93827000000E+00 0. -1.
     999902    2    1    2    0    0 -0.11199683998E-01 -0.18534553211E-01  0.11347866046E-01  0.10194813467E+01  0.10191881473E+01 0.  0.
     999903    2    3    3    0    0  0.41336146710E-02 -0.39041895773E-01  0.12432399200E+00  0.13188951135E+00  0.19925657359E-01 0.  0.
         14    1    1    2    0    0  0.11199683998E-01  0.18534553211E-01 -0.11347866046E-01  0.24448653300E-01  0.00000000000E+00 0.  1.
     999901    1    3    3    0    0 -0.15333298669E-01  0.20507342562E-01 -0.11297612595E+00  0.88759183535E+00  0.88000000000E+00 0. -1.
        -11    1    4    4    0    0  0.10323992229E-01 -0.11120686469E-01  0.36759060670E-01  0.39771147148E-01  0.51100000000E-03 0.  1.
         11    1    4    4    0    0 -0.61903775576E-02 -0.27921209304E-01  0.87564931330E-01  0.92118364201E-01  0.51100000000E-03 0. -1.
</event>
<event>
 8    1  0.1101883E+005  0.1043930E+01  0.7957747E-01            NaN
         13   -1    0    0    0    0  0.00000000000E+00  0.00000000000E+00  0.74505805969E-08  0.10566000000E+00  0.10566000000E+00 0.  1.
     999900   -1    0    0    0    0 -0.00000000000E+00 -0.00000000000E+00 -0.74505805969E-08  0.93827000000E+00  0.93827000000E+00 0. -1.
     999902    2    1    2    0    0 -0.19939712691E-01  0.21989197162E-02  0.12651604821E-01  0.10202131179E+01  0.10199374076E+01 0.  0.
     999903    2    3    3    0    0  0.31319251141E-01 -0.10441192074E+00 -0.65711026841E-01  0.12884672037E+00  0.20019830582E-01 0.  0.
         14    1    1    2    0    0  0.19939712691E-01 -0.21989197162E-02 -0.12651604821E-01  0.23716882061E-01  0.00000000000E+00 0. -1.
     999901    1    3    3    0    0 -0.51258963832E-01  0.10661084046E+00  0.78362631662E-01  0.89136639757E+00  0.88000000000E+00 0. -1.
        -11    1    4    4    0    0  0.19668326456E-01 -0.84276617748E-01 -0.58598270545E-01  0.10451511755E+00  0.51100000000E-03 0. -1.
         11    1    4    4    0    0  0.11650924684E-01 -0.20135302993E-01 -0.71127562965E-02  0.24331602819E-01  0.51100000000E-03 0.  1.
</event>
<event>
 8    1  0.1101883E+005  0.1043930E+01  0.7957747E-01            NaN
         13   -1    0    0    0    0  0.00000000000E+00  0.00000000000E+00  0.74505805969E-08  0.10566000000E+00  0.10566000000E+00 0.  1.
     999900   -1    0    0    0    0 -0.00000000000E+00 -0.00000000000E+00 -0.74505805969E-08  0.93827000000E+00  0.93827000000E+00 0. -1.
     999902    2    1    2    0    0  0.12351746824E-02 -0.21811471377E-01 -0.10431202008E-01  0.10197209952E+01  0.10194335839E+01 0.  0.
     999903    2    3    3    0    0 -0.88420443076E-02  0.11611905650E+00 -0.49118378447E-01  0.12808032847E+00  0.20739778435E-01 0.  0.
         14    1    1    2    0    0 -0.12351746824E-02  0.21811471377E-01  0.10431202008E-01  0.24209004842E-01  0.00000000000E+00 0.  1.
     999901    1    3    3    0    0  0.10077218990E-01 -0.13793052788E+00  0.38687176439E-01  0.89164066668E+00  0.88000000000E+00 0.  1.
        -11    1    4    4    0    0 -0.28345317186E-02  0.21902266900E-01 -0.99486972305E-03  0.22113225730E-01  0.51100000000E-03 0.  1.
         11    1    4    4    0    0 -0.60075125890E-02  0.94216789604E-01 -0.48123508724E-01  0.10596710274E+00  0.51100000000E-03 0. -1.
</event>
<event>
 8    1  0.1101883E+005  0.1043930E+01  0.7957747E-01            NaN
         13   -1    0    0    0    0  0.00000000000E+00  0.00000000000E+00  0.74505805969E-08  0.10566000000E+00  0.10566000000E+00 0. -1.
     999900   -1    0    0    0    0 -0.00000000000E+00 -0.00000000000E+00 -0.74505805969E-08  0.93827000000E+00  0.93827000000E+00 0.  1.
     999902    2    1    2    0    0 -0.37031457918E-02 -0.14975155818E-01  0.16797735331E-01  0.10211235866E+01  0.10208688685E+01 0.  0.
     999903    2    3    3    0    0 -0.90847104586E-01  0.23155801327E-01 -0.87598837450E-01  0.12986229838E+00  0.20031791518E-01 0.  0.
         14    1    1    2    0    0  0.37031457918E-02  0.14975155818E-01 -0.16797735331E-01  0.22806413413E-01  0.00000000000E+00 0.  1.
     999901    1    3    3    0    0  0.87143958794E-01 -0.38130957145E-01  0.10439657278E+00  0.89126128821E+00  0.88000000000E+00 0. -1.
        -11    1    4    4    0    0 -0.53219245161E-01  0.23190115955E-01 -0.49204812314E-01  0.76101538811E-01  0.51100000000E-03 0. -1.
         11    1    4    4    0    0 -0.37627859425E-01 -0.34314628792E-04 -0.38394025135E-01  0.53760759569E-01  0.51100000000E-03 0.  1.
</event>
<event>
 8    1  0.1101883E+005  0.1043930E+01  0.7957747E-01            NaN
         13   -1    0    0    0    0  0.00000000000E+00  0.00000000000E+00  0.74505805969E-08  0.10566000000E+00  0.10566000000E+00 0. -1.
     999900   -1    0    0    0    0 -0.00000000000E+00 -0.00000000000E+00 -0.74505805969E-08  0.93827000000E+00  0.93827000000E+00 0. -1.
     999902    2    1    2    0    0  0.12408471343E-01 -0.10662808586E-01  0.17585357711E-01  0.10199110397E+01  0.10196281766E+01 0.  0.
     999903    2    3    3    0    0 -0.79881347040E-01 -0.37381927592E-01 -0.90726022694E-01  0.12807995871E+00  0.19870241914E-01 0.  0.
         14    1    1    2    0    0 -0.12408471343E-01  0.10662808586E-01 -0.17585357711E-01  0.24018960299E-01  0.00000000000E+00 0.  1.
     999901    1    3    3    0    0  0.92289818383E-01  0.26719119006E-01  0.10831138040E+00  0.89183108099E+00  0.88000000000E+00 0.  1.
        -11    1    4    4    0    0 -0.21759014610E-01 -0.13794836797E-01 -0.39157979660E-01  0.46876014454E-01  0.51100000000E-03 0.  1.
         11    1    4    4    0    0 -0.58122332430E-01 -0.23587090795E-01 -0.51568043034E-01  0.81203944255E-01  0.51100000000E-03 0. -1.
</event>
<event>
 8    1  0.1101883E+005  0.1043930E+01  0.7957747E-01            NaN
         13   -1    0    0    0    0  0.00000000000E+00  0.00000000000E+00  0.74505805969E-08  0.10566000000E+00  0.10566000000E+00 0.  1.
     999900   -1    0    0    0    0 -0.00000000000E+00 -0.00000000000E+00 -0.74505805969E-08  0.93827000000E+00  0.93827000000E+00 0.  1.
     999902    2    1    2    0    0  0.20175072744E-01  0.12697900478E-01 -0.64273408130E-02  0.10192403069E+01  0.10189412261E+01 0.  0.
     999903    2    3    3    0    0  0.27983178070E-01  0.40749552920E-01  0.11852478879E+00  0.12993670494E+00  0.19794883606E-01 0.  0.
         14    1    1    2    0    0 -0.20175072744E-01 -0.12697900478E-01  0.64273408130E-02  0.24689693127E-01  0.00000000000E+00 0. -1.
     999901    1    3    3    0    0 -0.78081053260E-02 -0.28051652442E-01 -0.12495212960E+00  0.88930360193E+00  0.88000000000E+00 0.  1.
        -11    1    4    4    0    0  0.88802658794E-02  0.29939868370E-01  0.72617969512E-01  0.79049892202E-01  0.51100000000E-03 0.  1.
         11    1    4    4    0    0  0.19102912190E-01  0.10809684550E-01  0.45906819273E-01  0.50886812742E-01  0.51100000000E-03 0. -1.
</event>
<event>
 8    1  0.1101883E+005  0.1043930E+01  0.7957747E-01            NaN
         13   -1    0    0    0    0  0.00000000000E+00  0.00000000000E+00  0.74505805969E-08  0.10566000000E+00  0.10566000000E+00 0. -1.
     999900   -1    0    0    0    0 -0.00000000000E+00 -0.00000000000E+00 -0.74505805969E-08  0.93827000000E+00  0.93827000000E+00 0.  1.
     999902    2    1    2    0    0 -0.83977262568E-03 -0.21653232724E-01  0.98328405866E-02  0.10201339403E+01  0.10198563642E+01 0.  0.
     999903    2    3    3    0    0  0.11219818393E+00 -0.61408381143E-01 -0.23039441348E-01  0.13140527617E+00  0.19419294377E-01 0.  0.
         14    1    1    2    0    0  0.83977262568E-03  0.21653232724E-01 -0.98328405866E-02  0.23796059747E-01  0.00000000000E+00 0.  1.
     999901    1    3    3    0    0 -0.11303795656E+00  0.39755148419E-01  0.32872281935E-01  0.88872866409E+00  0.88000000000E+00 0. -1.
        -11    1    4    4    0    0  0.45275214181E-01 -0.30587631235E-01 -0.18090435402E-01  0.57558432725E-01  0.51100000000E-03 0.  1.
         11    1    4    4    0    0  0.66922969754E-01 -0.30820749908E-01 -0.49490059463E-02  0.73846843442E-01  0.51100000000E-03 0. -1.
</event>
<event>
 8    1  0.1101883E+005  0.1043930E+01  0.7957747E-01            NaN
         13   -1    0    0    0    0  0.00000000000E+00  0.00000000000E+00  0.74505805969E-08  0.10566000000E+00  0.10566000000E+00 0.  1.
     999900   -1    0    0    0    0 -0.00000000000E+00 -0.00000000000E+00 -0.74505805969E-08  0.93827000000E+00  0.93827000000E+00 0. -1.
     999902    2    1    2    0    0  0.10932991411E-01 -0.19420604860E-02  0.18381783838E-01  0.10224546216E+01  0.10222290650E+01 0.  0.
     999903    2    3    3    0    0  0.33767824320E-01  0.11897781739E+00 -0.41302644579E-01  0.13189003807E+00  0.19826414219E-01 0.  0.
         14    1    1    2    0    0 -0.10932991411E-01  0.19420604860E-02 -0.18381783838E-01  0.21475378395E-01  0.00000000000E+00 0. -1.
     999901    1    3    3    0    0 -0.22834832909E-01 -0.12091987788E+00  0.59684428417E-01  0.89056458354E+00  0.88000000000E+00 0.  1.
        -11    1    4    4    0    0  0.54149062246E-02  0.51665505836E-01 -0.21393806176E-01  0.56183643228E-01  0.51100000000E-03 0. -1.
         11    1    4    4    0    0  0.28352918095E-01  0.67312311557E-01 -0.19908838402E-01  0.75706394837E-01  0.51100000000E-03 0.  1.
</event>
<event>
 8    1  0.1101883E+005  0.1043930E+01  0.7957747E-01            NaN
         13   -1    0    0    0    0  0.00000000000E+00  0.00000000000E+00  0.74505805969E-08  0.10566000000E+00  0.10566000000E+00 0. -1.
     999900   -1    0    0    0    0 -0.00000000000E+00 -0.00000000000E+00 -0.74505805969E-08  0.93827000000E+00  0.93827000000E+00 0.  1.
     999902    2    1    2    0    0 -0.18815753249E-01 -0.55548588362E-02  0.12881228707E-01  0.10204605501E+01  0.10201906288E+01 0.  0.
     999903    2    3    3    0    0  0.34173537678E-01  0.11633850498E+00 -0.39073200929E-01  0.12896454904E+00  0.20066426155E-01 0.  0.
         14    1    1    2    0    0  0.18815753249E-01  0.55548588362E-02 -0.12881228707E-01  0.23469449930E-01  0.00000000000E+00 0.  1.
     999901    1    3    3    0    0 -0.52989290926E-01 -0.12189336382E+00  0.51954429635E-01  0.89149600103E+00  0.88000000000E+00 0. -1.
        -11    1    4    4    0    0  0.34430389775E-02  0.98397698438E-02 -0.98054168140E-02  0.14320716039E-01  0.51100000000E-03 0.  1.
         11    1    4    4    0    0  0.30730498700E-01  0.10649873514E+00 -0.29267784115E-01  0.11464383300E+00  0.51100000000E-03 0. -1.
</event>
<event>
 8    1  0.1101883E+005  0.1043930E+01  0.7957747E-01            NaN
         13   -1    0    0    0    0  0.00000000000E+00  0.00000000000E+00  0.74505805969E-08  0.10566000000E+00  0.10566000000E+00 0.  1.
     999900   -1    0    0    0    0 -0.00000000000E+00 -0.00000000000E+00 -0.74505805969E-08  0.93827000000E+00  0.93827000000E+00 0.  1.
     999902    2    1    2    0    0  0.11620608610E-01 -0.19691985082E-01  0.86962872190E-02  0.10194670028E+01  0.10191734551E+01 0.  0.
     999903    2    3    3    0    0 -0.95398465293E-01  0.53968286489E-01  0.63729330547E-01  0.12822766701E+00  0.19169347622E-01 0.  0.
         14    1    1    2    0    0 -0.11620608610E-01  0.19691985082E-01 -0.86962872190E-02  0.24462997207E-01  0.00000000000E+00 0. -1.
     999901    1    3    3    0    0  0.10701907390E+00 -0.73660271572E-01 -0.55033043328E-01  0.89123933578E+00  0.88000000000E+00 0. -1.
        -11    1    4    4    0    0 -0.62684481984E-01  0.30206908158E-01  0.30875088249E-01  0.76127089642E-01  0.51100000000E-03 0. -1.
         11    1    4    4    0    0 -0.32713983309E-01  0.23761378331E-01  0.32854242298E-01  0.52100577369E-01  0.51100000000E-03 0.  1.
</event>
<event>
 8    1  0.1101883E+005  0.1043930E+01  0.7957747E-01            NaN
         13   -1    0    0    0    0  0.00000000000E+00  0.00000000000E+00  0.74505805969E-08  0.10566000000E+00  0.10566000000E+00 0.  1.
     999900   -1    0    0    0    0 -0.00000000000E+00 -0.00000000000E+00 -0.74505805969E-08  0.93827000000E+00  0.93827000000E+00 0. -1.
     999902    2    1    2    0    0  0.19086170061E-01 -0.11396993358E-01  0.70113458640E-02  0.10206205102E+01  0.10203542980E+01 0.  0.
     999903    2    3    3    0    0 -0.11879600129E+00  0.41097737481E-01  0.15774324219E-01  0.12829546865E+00  0.20233240539E-01 0.  0.
         14    1    1    2    0    0 -0.19086170061E-01  0.11396993358E-01 -0.70113458640E-02  0.23309489827E-01  0.00000000000E+00 0.  1.
     999901    1    3    3    0    0  0.13788217135E+00 -0.52494730838E-01 -0.87629783548E-02  0.89232504152E+00  0.88000000000E+00 0. -1.
        -11    1    4    4    0    0 -0.18892165693E-01  0.12672324804E-01 -0.22778629683E-02  0.22868133313E-01  0.51100000000E-03 0. -1.
         11    1    4    4    0    0 -0.99903835596E-01  0.28425412677E-01  0.18052187187E-01  0.10542733534E+00  0.51100000000E-03 0.  1.
</event>
<event>
 8    1  0.1101883E+005  0.1043930E+01  0.7957747E-01            NaN
         13   -1    0    0    0    0  0.00000000000E+00  0.00000000000E+00  0.74505805969E-08  0.10566000000E+00  0.10566000000E+00 0. -1.
     999900   -1    0    0    0    0 -0.00000000000E+00 -0.00000000000E+00 -0.74505805969E-08  0.93827000000E+00  0.93827000000E+00 0.  1.
     999902    2    1    2    0    0  0.16495559163E-02  0.14095752869E-01 -0.18877793582E-01  0.10203125832E+01  0.10200392077E+01 0.  0.
     999903    2    3    3    0    0 -0.70051057930E-01 -0.10422105289E+00  0.19654778412E-01  0.12867106130E+00  0.20018819144E-01 0.  0.
         14    1    1    2    0    0 -0.16495559163E-02 -0.14095752869E-01  0.18877793582E-01  0.23617416755E-01  0.00000000000E+00 0. -1.
     999901    1    3    3    0    0  0.71700613847E-01  0.11831680576E+00 -0.38532571994E-01  0.89164152194E+00  0.88000000000E+00 0.  1.
        -11    1    4    4    0    0 -0.55657815852E-01 -0.66217396510E-01  0.14344225881E-01  0.87684399999E-01  0.51100000000E-03 0.  1.
         11    1    4    4    0    0 -0.14393242078E-01 -0.38003656377E-01  0.53105525312E-02  0.40986661302E-01  0.51100000000E-03 0. -1.
</event>
<event>
 8    1  0.1101883E+005  0.1043930E+01  0.7957747E-01            NaN
         13   -1    0    0    0    0  0.00000000000E+00  0.00000000000E+00  0.74505805969E-08  0.10566000000E+00  0.10566000000E+00 0. -1.
     999900   -1    0    0    0    0 -0.00000000000E+00 -0.00000000000E+00 -0.74505805969E-08  0.93827000000E+00  0.93827000000E+00 0.  1.
     999902    2    1    2    0    0  0.91573669336E-02 -0.22483142839E-01  0.13085691839E-02  0.10196182449E+01  0.10193283592E+01 0.  0.
     999903    2    3    3    0    0 -0.51708693273E-01 -0.11476942299E+00 -0.33908128353E-01  0.13200253384E+00  0.20714689479E-01 0.  0.
         14    1    1    2    0    0 -0.91573669336E-02  0.22483142839E-01 -0.13085691839E-02  0.24311755066E-01  0.00000000000E+00 0. -1.
     999901    1    3    3    0    0  0.60866060206E-01  0.92286280147E-01  0.35216697537E-01  0.88761571109E+00  0.88000000000E+00 0. -1.
        -11    1    4    4    0    0 -0.19309845691E-01 -0.22278364994E-01 -0.58365042237E-02  0.30058635864E-01  0.51100000000E-03 0. -1.
         11    1    4    4    0    0 -0.32398847581E-01 -0.92491057992E-01 -0.28071624130E-01  0.10194389798E+00  0.51100000000E-03 0.  1.
</event>
<event>
 8    1  0.1101883E+005  0.1043930E+01  0.7957747E-01            NaN
         13   -1    0    0    0    0  0.00000000000E+00  0.00000000000E+00  0.74505805969E-08  0.10566000000E+00  0.10566000000E+00 0. -1.
     999900   -1    0    0    0    0 -0.00000000000E+00 -0.00000000000E+00 -0.74505805969E-08  0.93827000000E+00  0.93827000000E+00 0.  1.
     999902    2    1    2    0    0 -0.40721211115E-02 -0.10092723286E-01 -0.21074692066E-01  0.10202110650E+01  0.10199353064E+01 0.  0.
     999903    2    3    3    0    0 -0.45397332453E-01  0.62829993821E-01 -0.10512006719E+00  0.13224196593E+00  0.20716735014E-01 0.  0.
         14    1    1    2    0    0  0.40721211115E-02  0.10092723286E-01  0.21074692066E-01  0.23718935038E-01  0.00000000000E+00 0. -1.
     999901    1    3    3    0    0  0.41325211342E-01 -0.72922717107E-01  0.84045375120E-01  0.88796909904E+00  0.88000000000E+00 0. -1.
        -11    1    4    4    0    0 -0.47880595497E-02 -0.63598301142E-03 -0.72698563265E-02  0.87431070364E-02  0.51100000000E-03 0. -1.
         11    1    4    4    0    0 -0.40609272904E-01  0.63465976833E-01 -0.97850210859E-01  0.12349885889E+00  0.51100000000E-03 0.  1.
</event>
<event>
 8    1  0.1101883E+005  0.1043930E+01  0.7957747E-01            NaN
         13   -1    0    0    0    0  0.00000000000E+00  0.00000000000E+00  0.74505805969E-08  0.10566000000E+00  0.10566000000E+00 0. -1.
     999900   -1    0    0    0    0 -0.00000000000E+00 -0.00000000000E+00 -0.74505805969E-08  0.93827000000E+00  0.93827000000E+00 0. -1.
     999902    2    1    2    0    0 -0.10099846296E-01  0.13116860462E-01 -0.18240250455E-01  0.10192973862E+01  0.10189997036E+01 0.  0.
     999903    2    3    3    0    0 -0.11940995573E+00 -0.18657735342E-01  0.43874672712E-01  0.12979382322E+00  0.17736995945E-01 0.  0.
         14    1    1    2    0    0  0.10099846296E-01 -0.13116860462E-01  0.18240250455E-01  0.24632613752E-01  0.00000000000E+00 0. -1.
     999901    1    3    3    0    0  0.10931010943E+00  0.31774595804E-01 -0.62114923168E-01  0.88950356303E+00  0.88000000000E+00 0. -1.
        -11    1    4    4    0    0 -0.74148870232E-01 -0.16830949566E-01  0.34666953755E-01  0.83566707628E-01  0.51100000000E-03 0. -1.
         11    1    4    4    0    0 -0.45261085495E-01 -0.18267857751E-02  0.92077189568E-02  0.46227115591E-01  0.51100000000E-03 0.  1.
</event>
<event>
 8    1  0.1101883E+005  0.1043930E+01  0.7957747E-01            NaN
         13   -1    0    0    0    0  0.00000000000E+00  0.00000000000E+00  0.74505805969E-08  0.10566000000E+00  0.10566000000E+00 0. -1.
     999900   -1    0    0    0    0 -0.00000000000E+00 -0.00000000000E+00 -0.74505805969E-08  0.93827000000E+00  0.93827000000E+00 0.  1.
     999902    2    1    2    0    0 -0.22948845477E-01  0.18930190914E-02  0.49171684391E-02  0.10203840539E+01  0.10201123497E+01 0.  0.
     999903    2    3    3    0    0 -0.55371277288E-01  0.11443546143E+00 -0.29179044110E-01  0.13196997981E+00  0.20079984470E-01 0.  0.
         14    1    1    2    0    0  0.22948845477E-01 -0.18930190914E-02 -0.49171684391E-02  0.23545946052E-01  0.00000000000E+00 0.  1.
     999901    1    3    3    0    0  0.32422431811E-01 -0.11254244233E+00  0.34096212549E-01  0.88841407414E+00  0.88000000000E+00 0.  1.
        -11    1    4    4    0    0 -0.25277810558E-01  0.32456506782E-01 -0.13063436633E-01  0.43166040319E-01  0.51100000000E-03 0.  1.
         11    1    4    4    0    0 -0.30093466730E-01  0.81978954644E-01 -0.16115607477E-01  0.88803939494E-01  0.51100000000E-03 0. -1.
</event>
<event>
 8    1  0.1101883E+005  0.1043930E+01  0.7957747E-01            NaN
         13   -1    0    0    0    0  0.00000000000E+00  0.00000000000E+00  0.74505805969E-08  0.10566000000E+00  0.10566000000E+00 0.  1.
     999900   -1    0    0    0    0 -0.00000000000E+00 -0.00000000000E+00 -0.74505805969E-08  0.93827000000E+00  0.93827000000E+00 0. -1.
     999902    2    1    2    0    0  0.22006186898E-01 -0.40893963684E-02 -0.68113449348E-02  0.10205336361E+01  0.10202654128E+01 0.  0.
     999903    2    3    3    0    0  0.57237810066E-01  0.11471711206E+00 -0.22839637538E-01  0.13170679138E+00  0.19719207665E-01 0.  0.
         14    1    1    2    0    0 -0.22006186898E-01  0.40893963684E-02  0.68113449348E-02  0.23396363911E-01  0.00000000000E+00 0. -1.
     999901    1    3    3    0    0 -0.35231623168E-01 -0.11880650843E+00  0.16028292604E-01  0.88882684471E+00  0.88000000000E+00 0. -1.
        -11    1    4    4    0    0  0.51885815456E-01  0.10402381262E+00 -0.26424961244E-01  0.11921254605E+00  0.51100000000E-03 0.  1.
         11    1    4    4    0    0  0.53519946094E-02  0.10693299446E-01  0.35853237059E-02  0.12494245332E-01  0.51100000000E-03 0. -1.
</event>
<event>
 8    1  0.1101883E+005  0.1043930E+01  0.7957747E-01            NaN
         13   -1    0    0    0    0  0.00000000000E+00  0.00000000000E+00  0.74505805969E-08  0.10566000000E+00  0.10566000000E+00 0.  1.
     999900   -1    0    0    0    0 -0.00000000000E+00 -0.00000000000E+00 -0.74505805969E-08  0.93827000000E+00  0.93827000000E+00 0.  1.
     999902    2    1    2    0    0 -0.22048361474E-01  0.55857844467E-02  0.46140734534E-02  0.10207217923E+01  0.10204579150E+01 0.  0.
     999903    2    3    3    0    0  0.11842882063E+00 -0.34823190674E-01 -0.29913996775E-01  0.12799624006E+00  0.15816134242E-01 0.  0.
         14    1    1    2    0    0  0.22048361474E-01 -0.55857844467E-02 -0.46140734534E-02  0.23208207716E-01  0.00000000000E+00 0. -1.
     999901    1    3    3    0    0 -0.14047718210E+00  0.40408975121E-01  0.34528070229E-01  0.89272555222E+00  0.88000000000E+00 0.  1.
        -11    1    4    4    0    0  0.70822449818E-01 -0.15881677671E-01 -0.23843826847E-01  0.76399190333E-01  0.51100000000E-03 0. -1.
         11    1    4    4    0    0  0.47606370809E-01 -0.18941513003E-01 -0.60701699284E-02  0.51597049726E-01  0.51100000000E-03 0.  1.
</event>
<event>
 8    1  0.1101883E+005  0.1043930E+01  0.7957747E-01            NaN
         13   -1    0    0    0    0  0.00000000000E+00  0.00000000000E+00  0.74505805969E-08  0.10566000000E+00  0.10566000000E+00 0. -1.
     999900   -1    0    0    0    0 -0.00000000000E+00 -0.00000000000E+00 -0.74505805969E-08  0.93827000000E+00  0.93827000000E+00 0. -1.
     999902    2    1    2    0    0 -0.70687663864E-02  0.18473761052E-01 -0.58941105484E-02  0.10232905270E+01  0.10230823598E+01 0.  0.
     999903    2    3    3    0    0  0.95641826330E-01 -0.83578952330E-01  0.24666284110E-01  0.13093512703E+00  0.20069422103E-01 0.  0.
         14    1    1    2    0    0  0.70687663864E-02 -0.18473761052E-01  0.58941105484E-02  0.20639472978E-01  0.00000000000E+00 0. -1.
     999901    1    3    3    0    0 -0.10271059272E+00  0.10205271338E+00 -0.30560394658E-01  0.89235539999E+00  0.88000000000E+00 0. -1.
        -11    1    4    4    0    0  0.63837740696E-01 -0.44137355966E-01  0.10474284499E-01  0.78315612017E-01  0.51100000000E-03 0.  1.
         11    1    4    4    0    0  0.31804085634E-01 -0.39441596364E-01  0.14191999612E-01  0.52619515018E-01  0.51100000000E-03 0. -1.
</event>
<event>
 8    1  0.1915185E+005  0.1043930E+01  0.7957747E-01            NaN
         13   -1    0    0    0    0  0.00000000000E+00  0.00000000000E+00  0.74505805969E-08  0.10566000000E+00  0.10566000000E+00 0.  1.
     999900   -1    0    0    0    0 -0.00000000000E+00 -0.00000000000E+00 -0.74505805969E-08  0.93827000000E+00  0.93827000000E+00 0. -1.
     999902    2    1    2    0    0 -0.10955056730E-01  0.13870622265E-01  0.16098349478E-01  0.10200225893E+01  0.10197423785E+01 0.  0.
     999903    2    3    3    0    0  0.99251598686E-01  0.44614920150E-01  0.70130713342E-01  0.13097241351E+00  0.19851579391E-01 0.  0.
         14    1    1    2    0    0  0.10955056730E-01 -0.13870622265E-01 -0.16098349478E-01  0.23907410690E-01  0.00000000000E+00 0. -1.
     999901    1    3    3    0    0 -0.11020665542E+00 -0.30744297885E-01 -0.54032363865E-01  0.88905017580E+00  0.88000000000E+00 0.  1.
        -11    1    4    4    0    0  0.43532979224E-01  0.21956109895E-01  0.42895450302E-01  0.64942065100E-01  0.51100000000E-03 0. -1.
         11    1    4    4    0    0  0.55718619462E-01  0.22658810254E-01  0.27235263041E-01  0.66030348408E-01  0.51100000000E-03 0.  1.
</event>
<event>
 8    1  0.1175362E+005  0.1043930E+01  0.7957747E-01            NaN
         13   -1    0    0    0    0  0.00000000000E+00  0.00000000000E+00  0.74505805969E-08  0.10566000000E+00  0.10566000000E+00 0. -1.
     999900   -1    0    0    0    0 -0.00000000000E+00 -0.00000000000E+00 -0.74505805969E-08  0.93827000000E+00  0.93827000000E+00 0.  1.
     999902    2    1    2    0    0 -0.98145464406E-03 -0.22580528149E-01 -0.13716026595E-01  0.10174919046E+01  0.10171483682E+01 0.  0.
     999903    2    3    3    0    0  0.41955196941E-01  0.46327206079E-01  0.10700145182E+00  0.12554765660E+00  0.20160724507E-01 0.  0.
         14    1    1    2    0    0  0.98145464406E-03  0.22580528149E-01  0.13716026595E-01  0.26438095435E-01  0.00000000000E+00 0. -1.
     999901    1    3    3    0    0 -0.42936651585E-01 -0.68907734228E-01 -0.12071747841E+00  0.89194424797E+00  0.88000000000E+00 0.  1.
        -11    1    4    4    0    0  0.98327765288E-02  0.21463880164E-01  0.52549576296E-01  0.57611637157E-01  0.51100000000E-03 0.  1.
         11    1    4    4    0    0  0.32122420412E-01  0.24863325915E-01  0.54451875522E-01  0.67936019442E-01  0.51100000000E-03 0. -1.
</event>
<event>
 8    1  0.1101883E+005  0.1043930E+01  0.7957747E-01            NaN
         13   -1    0    0    0    0  0.00000000000E+00  0.00000000000E+00  0.74505805969E-08  0.10566000000E+00  0.10566000000E+00 0. -1.
     999900   -1    0    0    0    0 -0.00000000000E+00 -0.00000000000E+00 -0.74505805969E-08  0.93827000000E+00  0.93827000000E+00 0. -1.
     999902    2    1    2    0    0  0.22520928672E-01  0.70344123103E-02  0.40709010409E-02  0.10199874141E+01  0.10197063683E+01 0.  0.
     999903    2    3    3    0    0  0.28065919280E-02 -0.18555163608E-02  0.12877964097E+00  0.13093176020E+00  0.23401068346E-01 0.  0.
         14    1    1    2    0    0 -0.22520928672E-01 -0.70344123103E-02 -0.40709010409E-02  0.23942585911E-01  0.00000000000E+00 0. -1.
     999901    1    3    3    0    0  0.19714336744E-01  0.88899286711E-02 -0.12470873993E+00  0.88905565389E+00  0.88000000000E+00 0. -1.
        -11    1    4    4    0    0  0.92459108235E-02  0.48564087207E-02  0.31137247447E-01  0.32846017600E-01  0.51100000000E-03 0.  1.
         11    1    4    4    0    0 -0.64393188955E-02 -0.67119250815E-02  0.97642393525E-01  0.98085742595E-01  0.51100000000E-03 0. -1.
</event>
<event>
 8    1  0.1101883E+005  0.1043930E+01  0.7957747E-01            NaN
         13   -1    0    0    0    0  0.00000000000E+00  0.00000000000E+00  0.74505805969E-08  0.10566000000E+00  0.10566000000E+00 0. -1.
     999900   -1    0    0    0    0 -0.00000000000E+00 -0.00000000000E+00 -0.74505805969E-08  0.93827000000E+00  0.93827000000E+00 0.  1.
     999902    2    1    2    0    0  0.16909765465E-01 -0.14156631688E-01 -0.70950992969E-02  0.10207634115E+01  0.10205004907E+01 0.  0.
     999903    2    3    3    0    0  0.11722591294E-01  0.12134395229E+00  0.36829941046E-01  0.12929455382E+00  0.22335245362E-01 0.  0.
         14    1    1    2    0    0 -0.16909765465E-01  0.14156631688E-01  0.70950992969E-02  0.23166588503E-01  0.00000000000E+00 0. -1.
     999901    1    3    3    0    0  0.51871741714E-02 -0.13550058398E+00 -0.43925040343E-01  0.89146885768E+00  0.88000000000E+00 0.  1.
        -11    1    4    4    0    0  0.14439039556E-01  0.39729782131E-01  0.12889246343E-01  0.44196552397E-01  0.51100000000E-03 0. -1.
         11    1    4    4    0    0 -0.27164482618E-02  0.81614170163E-01  0.23940694703E-01  0.85098001425E-01  0.51100000000E-03 0.  1.
</event>
<event>
 8    1  0.1101883E+005  0.1043930E+01  0.7957747E-01            NaN
         13   -1    0    0    0    0  0.00000000000E+00  0.00000000000E+00  0.74505805969E-08  0.10566000000E+00  0.10566000000E+00 0.  1.
     999900   -1    0    0    0    0 -0.00000000000E+00 -0.00000000000E+00 -0.74505805969E-08  0.93827000000E+00  0.93827000000E+00 0.  1.
     999902    2    1    2    0    0  0.79315098652E-02 -0.24801793487E-01  0.53407221900E-02  0.10173487825E+01  0.10170014671E+01 0.  0.
     999903    2    3    3    0    0 -0.39795994662E-01  0.74778714781E-01  0.91285346885E-01  0.12629285228E+00  0.21006965634E-01 0.  0.
         14    1    1    2    0    0 -0.79315098652E-02  0.24801793487E-01 -0.53407221900E-02  0.26581217475E-01  0.00000000000E+00 0. -1.
     999901    1    3    3    0    0  0.47727504527E-01 -0.99580508268E-01 -0.85944624695E-01  0.89105593025E+00  0.88000000000E+00 0.  1.
        -11    1    4    4    0    0 -0.30297050220E-02  0.13209800145E-01  0.59068634309E-02  0.14792906712E-01  0.51100000000E-03 0. -1.
         11    1    4    4    0    0 -0.36766289640E-01  0.61568914636E-01  0.85378483454E-01  0.11149994557E+00  0.51100000000E-03 0.  1.
</event>
<event>
 8    1  0.1101883E+005  0.1043930E+01  0.7957747E-01            NaN
         13   -1    0    0    0    0  0.00000000000E+00  0.00000000000E+00  0.74505805969E-08  0.10566000000E+00  0.10566000000E+00 0.  1.
     999900   -1    0    0    0    0 -0.00000000000E+00 -0.00000000000E+00 -0.74505805969E-08  0.93827000000E+00  0.93827000000E+00 0. -1.
     999902    2    1    2    0    0  0.74275186755E-02 -0.14170914847E-01 -0.23260210089E-01  0.10156984532E+01  0.10153060266E+01 0.  0.
     999903    2    3    3    0    0 -0.26719474952E-01  0.64425772934E-01 -0.10503911729E+00  0.12776194299E+00  0.20622496347E-01 0.  0.
         14    1    1    2    0    0 -0.74275186755E-02  0.14170914847E-01  0.23260210089E-01  0.28231546799E-01  0.00000000000E+00 0.  1.
     999901    1    3    3    0    0  0.34146993628E-01 -0.78596687781E-01  0.81778907200E-01  0.88793651021E+00  0.88000000000E+00 0.  1.
        -11    1    4    4    0    0 -0.15513086591E-01  0.13941579673E-01 -0.26541910413E-01  0.33760296633E-01  0.51100000000E-03 0.  1.
         11    1    4    4    0    0 -0.11206388361E-01  0.50484193261E-01 -0.78497206877E-01  0.94001646357E-01  0.51100000000E-03 0. -1.
</event>
<event>
 8    1  0.1101883E+005  0.1043930E+01  0.7957747E-01            NaN
         13   -1    0    0    0    0  0.00000000000E+00  0.00000000000E+00  0.74505805969E-08  0.10566000000E+00  0.10566000000E+00 0. -1.
     999900   -1    0    0    0    0 -0.00000000000E+00 -0.00000000000E+00 -0.74505805969E-08  0.93827000000E+00  0.93827000000E+00 0. -1.
     999902    2    1    2    0    0 -0.39329748198E-02  0.14426661435E-01 -0.20591091999E-01  0.10184822119E+01  0.10181642431E+01 0.  0.
     999903    2    3    3    0    0 -0.96384775248E-01 -0.73681374157E-01  0.33494756584E-01  0.12761991030E+00  0.21118072575E-01 0.  0.
         14    1    1    2    0    0  0.39329748198E-02 -0.14426661435E-01  0.20591091999E-01  0.25447788131E-01  0.00000000000E+00 0. -1.
     999901    1    3    3    0    0  0.92451800428E-01  0.88108035592E-01 -0.54085848582E-01  0.89086230157E+00  0.88000000000E+00 0. -1.
        -11    1    4    4    0    0 -0.53433726249E-01 -0.47244183304E-01  0.28950601273E-01  0.76977752578E-01  0.51100000000E-03 0. -1.
         11    1    4    4    0    0 -0.42951048998E-01 -0.26437190853E-01  0.45441553106E-02  0.50642157722E-01  0.51100000000E-03 0.  1.
</event>
<event>
 8    1  0.1101883E+005  0.1043930E+01  0.7957747E-01            NaN
         13   -1    0    0    0    0  0.00000000000E+00  0.00000000000E+00  0.74505805969E-08  0.10566000000E+00  0.10566000000E+00 0. -1.
     999900   -1    0    0    0    0 -0.00000000000E+00 -0.00000000000E+00 -0.74505805969E-08  0.93827000000E+00  0.93827000000E+00 0. -1.
     999902    2    1    2    0    0  0.14840095619E-01 -0.45693222900E-02 -0.18180862800E-01  0.10200207776E+01  0.10197405238E+01 0.  0.
     999903    2    3    3    0    0  0.12726008799E+00  0.18890140343E-01 -0.26499141978E-01  0.13251990726E+00  0.17531511561E-01 0.  0.
         14    1    1    2    0    0 -0.14840095619E-01  0.45693222900E-02  0.18180862800E-01  0.23909222412E-01  0.00000000000E+00 0. -1.
     999901    1    3    3    0    0 -0.11241999237E+00 -0.23459462633E-01  0.83182791772E-02  0.88750087033E+00  0.88000000000E+00 0. -1.
        -11    1    4    4    0    0  0.98414434587E-01  0.21930095041E-01 -0.21013260694E-01  0.10299586521E+00  0.51100000000E-03 0.  1.
         11    1    4    4    0    0  0.28845653398E-01 -0.30399546986E-02 -0.54858812836E-02  0.29524042050E-01  0.51100000000E-03 0. -1.
</event>
<event>
 8    1  0.1101883E+005  0.1043930E+01  0.7957747E-01            NaN
         13   -1    0    0    0    0  0.00000000000E+00  0.00000000000E+00  0.74505805969E-08  0.10566000000E+00  0.10566000000E+00 0.  1.
     999900   -1    0    0    0    0 -0.00000000000E+00 -0.00000000000E+00 -0.74505805969E-08  0.93827000000E+00  0.93827000000E+00 0.  1.
     999902    2    1    2    0    0 -0.42321863165E-02 -0.14818734618E-01  0.18947387032E-01  0.10195064505E+01  0.10192138602E+01 0.  0.
     999903    2    3    3    0    0  0.86782551286E-01 -0.88802694353E-01  0.38324833258E-01  0.13151276007E+00  0.20240639422E-01 0.  0.
         14    1    1    2    0    0  0.42321863165E-02  0.14818734618E-01 -0.18947387032E-01  0.24423549538E-01  0.00000000000E+00 0. -1.
     999901    1    3    3    0    0 -0.91014737602E-01  0.73983959735E-01 -0.19377446225E-01  0.88799369039E+00  0.88000000000E+00 0.  1.
        -11    1    4    4    0    0  0.58288710236E-01 -0.72256777814E-01  0.27440748265E-01  0.96808426634E-01  0.51100000000E-03 0.  1.
         11    1    4    4    0    0  0.28493841050E-01 -0.16545916539E-01  0.10884084992E-01  0.34704333433E-01  0.51100000000E-03 0. -1.
</event>
<event>
 8    1  0.1101883E+005  0.1043930E+01  0.7957747E-01            NaN
         13   -1    0    0    0    0  0.00000000000E+00  0.00000000000E+00  0.74505805969E-08  0.10566000000E+00  0.10566000000E+00 0. -1.
     999900   -1    0    0    0    0 -0.00000000000E+00 -0.00000000000E+00 -0.74505805969E-08  0.93827000000E+00  0.93827000000E+00 0.  1.
     999902    2    1    2    0    0 -0.19716250988E-01  0.11605392627E-01  0.19268890779E-02  0.10209707188E+01  0.10207125355E+01 0.  0.
     999903    2    3    3    0    0 -0.49477965357E-01 -0.11825811611E+00 -0.16335918636E-01  0.13075511533E+00  0.19924529215E-01 0.  0.
         14    1    1    2    0    0  0.19716250988E-01 -0.11605392627E-01 -0.19268890779E-02  0.22959281186E-01  0.00000000000E+00 0.  1.
     999901    1    3    3    0    0  0.29761714368E-01  0.12986350874E+00  0.18262807714E-01  0.89021560349E+00  0.88000000000E+00 0. -1.
        -11    1    4    4    0    0 -0.36636836086E-01 -0.61966073854E-01 -0.94245796023E-02  0.72602588721E-01  0.51100000000E-03 0.  1.
         11    1    4    4    0    0 -0.12841129271E-01 -0.56292042258E-01 -0.69113390338E-02  0.58152526607E-01  0.51100000000E-03 0. -1.
</event>
<event>
 8    1  0.1101883E+005  0.1043930E+01  0.7957747E-01            NaN
         13   -1    0    0    0    0  0.00000000000E+00  0.00000000000E+00  0.74505805969E-08  0.10566000000E+00  0.10566000000E+00 0. -1.
     999900   -1    0    0    0    0 -0.00000000000E+00 -0.00000000000E+00 -0.74505805969E-08  0.93827000000E+00  0.93827000000E+00 0.  1.
     999902    2    1    2    0    0  0.28323391815E-03 -0.10121734730E-01 -0.18211699297E-01  0.10230926363E+01  0.10228804166E+01 0.  0.
     999903    2    3    3    0    0 -0.15802891345E-01  0.52192465004E-01  0.11711540479E+00  0.13042514611E+00  0.17914126241E-01 0.  0.
         14    1    1    2    0    0 -0.28323391815E-03  0.10121734730E-01  0.18211699297E-01  0.20837363717E-01  0.00000000000E+00 0. -1.
     999901    1    3    3    0    0  0.16086125263E-01 -0.62314199734E-01 -0.13532710409E+00  0.89266749018E+00  0.88000000000E+00 0.  1.
        -11    1    4    4    0    0 -0.14489429887E-01  0.28063340136E-01  0.81264328670E-01  0.87187423825E-01  0.51100000000E-03 0. -1.
         11    1    4    4    0    0 -0.13134614578E-02  0.24129124869E-01  0.35851076123E-01  0.43237722282E-01  0.51100000000E-03 0.  1.
</event>
<event>
 8    1  0.1101883E+005  0.1043930E+01  0.7957747E-01            NaN
         13   -1    0    0    0    0  0.00000000000E+00  0.00000000000E+00  0.74505805969E-08  0.10566000000E+00  0.10566000000E+00 0.  1.
     999900   -1    0    0    0    0 -0.00000000000E+00 -0.00000000000E+00 -0.74505805969E-08  0.93827000000E+00  0.93827000000E+00 0. -1.
     999902    2    1    2    0    0 -0.15230844679E-01 -0.18895878256E-02  0.16765330046E-01  0.10212006035E+01  0.10209476222E+01 0.  0.
     999903    2    3    3    0    0  0.81266642078E-01  0.12723572742E-01  0.10126265695E+00  0.13178219376E+00  0.18608183143E-01 0.  0.
         14    1    1    2    0    0  0.15230844679E-01  0.18895878256E-02 -0.16765330046E-01  0.22729396458E-01  0.00000000000E+00 0.  1.
     999901    1    3    3    0    0 -0.96497486757E-01 -0.14613160568E-01 -0.84497326907E-01  0.88941840979E+00  0.88000000000E+00 0. -1.
        -11    1    4    4    0    0  0.69690259385E-01  0.16243941827E-01  0.91896016144E-01  0.11647204301E+00  0.51100000000E-03 0.  1.
         11    1    4    4    0    0  0.11576382693E-01 -0.35203690851E-02  0.93666408095E-02  0.15310150744E-01  0.51100000000E-03 0. -1.
</event>
<event>
 8    1  0.1101883E+005  0.1043930E+01  0.7957747E-01            NaN
         13   -1    0    0    0    0  0.00000000000E+00  0.00000000000E+00  0.74505805969E-08  0.10566000000E+00  0.10566000000E+00 0.  1.
     999900   -1    0    0    0    0 -0.00000000000E+00 -0.00000000000E+00 -0.74505805969E-08  0.93827000000E+00  0.93827000000E+00 0.  1.
     999902    2    1    2    0    0  0.23954867017E-02  0.11491362120E-01 -0.22780334288E-01  0.10183031900E+01  0.10179806744E+01 0.  0.
     999903    2    3    3    0    0  0.28354671843E-02  0.45176973440E-01  0.11743294117E+00  0.12656630247E+00  0.13399046453E-01 0.  0.
         14    1    1    2    0    0 -0.23954867017E-02 -0.11491362120E-01  0.22780334288E-01  0.25626809988E-01  0.00000000000E+00 0.  1.
     999901    1    3    3    0    0 -0.43998048254E-03 -0.33685611320E-01 -0.14021327545E+00  0.89173688754E+00  0.88000000000E+00 0.  1.
        -11    1    4    4    0    0  0.52313802077E-02  0.20983687044E-01  0.69956262784E-01  0.73224465068E-01  0.51100000000E-03 0. -1.
         11    1    4    4    0    0 -0.23959130235E-02  0.24193286396E-01  0.47476678383E-01  0.53341837400E-01  0.51100000000E-03 0.  1.
</event>
<event>
 8    1  0.1101883E+005  0.1043930E+01  0.7957747E-01            NaN
         13   -1    0    0    0    0  0.00000000000E+00  0.00000000000E+00  0.74505805969E-08  0.10566000000E+00  0.10566000000E+00 0.  1.
     999900   -1    0    0    0    0 -0.00000000000E+00 -0.00000000000E+00 -0.74505805969E-08  0.93827000000E+00  0.93827000000E+00 0.  1.
     999902    2    1    2    0    0  0.16485542371E-01  0.11042248659E-01  0.13088674706E-01  0.10201598976E+01  0.10198829339E+01 0.  0.
     999903    2    3    3    0    0  0.12675146847E+00 -0.28401341813E-01  0.15914179562E-01  0.13239734220E+00  0.20080441582E-01 0.  0.
         14    1    1    2    0    0 -0.16485542371E-01 -0.11042248659E-01 -0.13088674706E-01  0.23770102404E-01  0.00000000000E+00 0. -1.
     999901    1    3    3    0    0 -0.11026592610E+00  0.39443590473E-01 -0.28255048557E-02  0.88776255540E+00  0.88000000000E+00 0. -1.
        -11    1    4    4    0    0  0.85462030339E-01 -0.27079625076E-01  0.56575817461E-02  0.89829472202E-01  0.51100000000E-03 0. -1.
         11    1    4    4    0    0  0.41289438131E-01 -0.13217167374E-02  0.10256597816E-01  0.42567869997E-01  0.51100000000E-03 0.  1.
</event>
<event>
 8    1  0.1101883E+005  0.1043930E+01  0.7957747E-01            NaN
         13   -1    0    0    0    0  0.00000000000E+00  0.00000000000E+00  0.74505805969E-08  0.10566000000E+00  0.10566000000E+00 0.  1.
     999900   -1    0    0    0    0 -0.00000000000E+00 -0.00000000000E+00 -0.74505805969E-08  0.93827000000E+00  0.93827000000E+00 0.  1.
     999902    2    1    2    0    0  0.11612747291E-01  0.23380471293E-01 -0.14699116434E-01  0.10139705881E+01  0.10135278917E+01 0.  0.
     999903    2    3    3    0    0  0.43474186005E-01 -0.11258082510E+00  0.81085133157E-02  0.12266771400E+00  0.20424814347E-01 0.  0.
         14    1    1    2    0    0 -0.11612747291E-01 -0.23380471293E-01  0.14699116434E-01  0.29959411901E-01  0.00000000000E+00 0. -1.
     999901    1    3    3    0    0 -0.31861438714E-01  0.13596129640E+00 -0.22807629750E-01  0.89130287409E+00  0.88000000000E+00 0.  1.
        -11    1    4    4    0    0  0.11128252411E-01 -0.33522173323E-01 -0.67499282554E-02  0.35963825693E-01  0.51100000000E-03 0. -1.
         11    1    4    4    0    0  0.32345933595E-01 -0.79058651780E-01  0.14858441571E-01  0.86703888311E-01  0.51100000000E-03 0.  1.
</event>
<event>
 8    1  0.1101883E+005  0.1043930E+01  0.7957747E-01            NaN
         13   -1    0    0    0    0  0.00000000000E+00  0.00000000000E+00  0.74505805969E-08  0.10566000000E+00  0.10566000000E+00 0. -1.
     999900   -1    0    0    0    0 -0.00000000000E+00 -0.00000000000E+00 -0.74505805969E-08  0.93827000000E+00  0.93827000000E+00 0. -1.
     999902    2    1    2    0    0 -0.14413094441E-02  0.90116411357E-02 -0.21261743391E-01  0.10207923947E+01  0.10205301388E+01 0.  0.
     999903    2    3    3    0    0 -0.11651277352E+00 -0.35616227062E-01  0.40105357560E-01  0.13006291297E+00  0.21544827732E-01 0.  0.
         14    1    1    2    0    0  0.14413094441E-02 -0.90116411357E-02  0.21261743391E-01  0.23137605340E-01  0.00000000000E+00 0. -1.
     999901    1    3    3    0    0  0.11507146408E+00  0.44627868197E-01 -0.61367100950E-01  0.89072948169E+00  0.88000000000E+00 0.  1.
        -11    1    4    4    0    0 -0.87114147500E-01 -0.22120666794E-01  0.20347825195E-01  0.92154726982E-01  0.51100000000E-03 0. -1.
         11    1    4    4    0    0 -0.29398626024E-01 -0.13495560268E-01  0.19757532365E-01  0.37908185992E-01  0.51100000000E-03 0.  1.
</event>
<event>
 8    1  0.1101883E+005  0.1043930E+01  0.7957747E-01            NaN
         13   -1    0    0    0    0  0.00000000000E+00  0.00000000000E+00  0.74505805969E-08  0.10566000000E+00  0.10566000000E+00 0.  1.
     999900   -1    0    0    0    0 -0.00000000000E+00 -0.00000000000E+00 -0.74505805969E-08  0.93827000000E+00  0.93827000000E+00 0. -1.
     999902    2    1    2    0    0  0.88693037330E-02 -0.20759893503E-01  0.73542671040E-02  0.10201871490E+01  0.10199108275E+01 0.  0.
     999903    2    3    3    0    0  0.23823881362E-01 -0.12929525338E+00 -0.68301254840E-02  0.13327973520E+00  0.20784545512E-01 0.  0.
         14    1    1    2    0    0 -0.88693037330E-02  0.20759893503E-01 -0.73542671040E-02  0.23742850958E-01  0.00000000000E+00 0. -1.
     999901    1    3    3    0    0 -0.14954577629E-01  0.10853535987E+00  0.14184392588E-01  0.88690741384E+00  0.88000000000E+00 0. -1.
        -11    1    4    4    0    0  0.59832736066E-02 -0.45251589292E-01  0.72352830779E-02  0.46218138633E-01  0.51100000000E-03 0.  1.
         11    1    4    4    0    0  0.17840607755E-01 -0.84043664085E-01 -0.14065408562E-01  0.87061596567E-01  0.51100000000E-03 0. -1.
</event>
<event>
 8    1  0.1101883E+005  0.1043930E+01  0.7957747E-01            NaN
         13   -1    0    0    0    0  0.00000000000E+00  0.00000000000E+00  0.74505805969E-08  0.10566000000E+00  0.10566000000E+00 0.  1.
     999900   -1    0    0    0    0 -0.00000000000E+00 -0.00000000000E+00 -0.74505805969E-08  0.93827000000E+00  0.93827000000E+00 0.  1.
     999902    2    1    2    0    0 -0.38558731987E-02  0.14350824157E-01 -0.19167923455E-01  0.10196766868E+01  0.10193882098E+01 0.  0.
     999903    2    3    3    0    0  0.68073045025E-01 -0.10553893467E+00 -0.19181396906E-01  0.12863946886E+00  0.20193582440E-01 0.  0.
         14    1    1    2    0    0  0.38558731987E-02 -0.14350824157E-01  0.19167923455E-01  0.24253313210E-01  0.00000000000E+00 0.  1.
     999901    1    3    3    0    0 -0.71928918224E-01  0.11988975883E+00  0.13473451491E-04  0.89103721793E+00  0.88000000000E+00 0.  1.
        -11    1    4    4    0    0  0.29128413455E-01 -0.60145335924E-01 -0.16133916262E-01  0.68749474753E-01  0.51100000000E-03 0. -1.
         11    1    4    4    0    0  0.38944631570E-01 -0.45393598746E-01 -0.30474806450E-02  0.59889994110E-01  0.51100000000E-03 0.  1.
</event>
<event>
 8    1  0.1101883E+005  0.1043930E+01  0.7957747E-01            NaN
         13   -1    0    0    0    0  0.00000000000E+00  0.00000000000E+00  0.74505805969E-08  0.10566000000E+00  0.10566000000E+00 0.  1.
     999900   -1    0    0    0    0 -0.00000000000E+00 -0.00000000000E+00 -0.74505805969E-08  0.93827000000E+00  0.93827000000E+00 0. -1.
     999902    2    1    2    0    0  0.23241516426E-01  0.27943607118E-02 -0.43428891443E-02  0.10201216564E+01  0.10198437903E+01 0.  0.
     999903    2    3    3    0    0  0.61506859423E-01 -0.18842059055E-01  0.11266850549E+00  0.13128869259E+00  0.20109990697E-01 0.  0.
         14    1    1    2    0    0 -0.23241516426E-01 -0.27943607118E-02  0.43428891443E-02  0.23808343573E-01  0.00000000000E+00 0.  1.
     999901    1    3    3    0    0 -0.38265342997E-01  0.21636419767E-01 -0.11701139464E+00  0.88883296384E+00  0.88000000000E+00 0. -1.
        -11    1    4    4    0    0  0.54634952230E-02  0.38824996687E-02  0.84962606665E-02  0.10833796659E-01  0.51100000000E-03 0. -1.
         11    1    4    4    0    0  0.56043364200E-01 -0.22724558724E-01  0.10417224483E+00  0.12045489593E+00  0.51100000000E-03 0.  1.
</event>
<event>
 8    1  0.1101883E+005  0.1043930E+01  0.7957747E-01            NaN
         13   -1    0    0    0    0  0.00000000000E+00  0.00000000000E+00  0.74505805969E-08  0.10566000000E+00  0.10566000000E+00 0. -1.
     999900   -1    0    0    0    0 -0.00000000000E+00 -0.00000000000E+00 -0.74505805969E-08  0.93827000000E+00  0.93827000000E+00 0.  1.
     999902    2    1    2    0    0 -0.13799339287E-01  0.55327317083E-02  0.17633193177E-01  0.10208656902E+01  0.10206051122E+01 0.  0.
     999903    2    3    3    0    0  0.73538333731E-01  0.73730516485E-01 -0.73717442924E-01  0.12922464937E+00  0.20510315079E-01 0.  0.
         14    1    1    2    0    0  0.13799339287E-01 -0.55327317083E-02 -0.17633193177E-01  0.23064309799E-01  0.00000000000E+00 0.  1.
     999901    1    3    3    0    0 -0.87337673018E-01 -0.68197784777E-01  0.91350636101E-01  0.89164104083E+00  0.88000000000E+00 0.  1.
        -11    1    4    4    0    0  0.69960524171E-01  0.61722447573E-01 -0.67964920569E-01  0.11542801664E+00  0.51100000000E-03 0. -1.
         11    1    4    4    0    0  0.35778095602E-02  0.12008068912E-01 -0.57525223555E-02  0.13796632730E-01  0.51100000000E-03 0.  1.
</event>
<event>
 8    1  0.1101883E+005  0.1043930E+01  0.7957747E-01            NaN
         13   -1    0    0    0    0  0.00000000000E+00  0.00000000000E+00  0.74505805969E-08  0.10566000000E+00  0.10566000000E+00 0.  1.
     999900   -1    0    0    0    0 -0.00000000000E+00 -0.00000000000E+00 -0.74505805969E-08  0.93827000000E+00  0.93827000000E+00 0. -1.
     999902    2    1    2    0    0 -0.15158314795E-01  0.16610479803E-01 -0.74122011262E-02  0.10202525155E+01  0.10199777312E+01 0.  0.
     999903    2    3    3    0    0 -0.12972304259E+00  0.18968631918E-02 -0.18644604520E-01  0.13263337744E+00  0.20305803717E-01 0.  0.
         14    1    1    2    0    0  0.15158314795E-01 -0.16610479803E-01  0.74122011262E-02  0.23677484500E-01  0.00000000000E+00 0. -1.
     999901    1    3    3    0    0  0.11456472779E+00  0.14713616611E-01  0.11232403394E-01  0.88761913806E+00  0.88000000000E+00 0. -1.
        -11    1    4    4    0    0 -0.10316907983E+00  0.63252281472E-02 -0.79762113182E-02  0.10367134904E+00  0.51100000000E-03 0. -1.
         11    1    4    4    0    0 -0.26553962760E-01 -0.44283649554E-02 -0.10668393202E-01  0.28962028398E-01  0.51100000000E-03 0.  1.
</event>
<event>
 8    1  0.1101883E+005  0.1043930E+01  0.7957747E-01            NaN
         13   -1    0    0    0    0  0.00000000000E+00  0.00000000000E+00  0.74505805969E-08  0.10566000000E+00  0.10566000000E+00 0.  1.
     999900   -1    0    0    0    0 -0.00000000000E+00 -0.00000000000E+00 -0.74505805969E-08  0.93827000000E+00  0.93827000000E+00 0.  1.
     999902    2    1    2    0    0 -0.16518681636E-01  0.29797227929E-02  0.16144795973E-01  0.10206405168E+01  0.10203747667E+01 0.  0.
     999903    2    3    3    0    0 -0.11477833915E+00  0.48860249963E-01  0.44198998071E-01  0.13354017223E+00  0.17833535971E-01 0.  0.
         14    1    1    2    0    0  0.16518681636E-01 -0.29797227929E-02 -0.16144795973E-01  0.23289483204E-01  0.00000000000E+00 0.  1.
     999901    1    3    3    0    0  0.98259657513E-01 -0.45880527170E-01 -0.28054202098E-01  0.88710034456E+00  0.88000000000E+00 0.  1.
        -11    1    4    4    0    0 -0.64321683570E-01  0.17997749347E-01  0.21214694095E-01  0.70082253998E-01  0.51100000000E-03 0. -1.
         11    1    4    4    0    0 -0.50456655579E-01  0.30862500615E-01  0.22984303976E-01  0.63457918235E-01  0.51100000000E-03 0.  1.
</event>
<event>
 8    1  0.1101883E+005  0.1043930E+01  0.7957747E-01            NaN
         13   -1    0    0    0    0  0.00000000000E+00  0.00000000000E+00  0.74505805969E-08  0.10566000000E+00  0.10566000000E+00 0.  1.
     999900   -1    0    0    0    0 -0.00000000000E+00 -0.00000000000E+00 -0.74505805969E-08  0.93827000000E+00  0.93827000000E+00 0.  1.
     999902    2    1    2    0    0 -0.12827132451E-01  0.19304064137E-01  0.33488948641E-02  0.10205121155E+01  0.10202433928E+01 0.  0.
     999903    2    3    3    0    0  0.10308338645E+00  0.27901589605E-01 -0.71031315574E-01  0.12975873684E+00  0.19677365896E-01 0.  0.
         14    1    1    2    0    0  0.12827132451E-01 -0.19304064137E-01 -0.33488948641E-02  0.23417884531E-01  0.00000000000E+00 0. -1.
     999901    1    3    3    0    0 -0.11591051890E+00 -0.85975254681E-02  0.74380210438E-01  0.89075337863E+00  0.88000000000E+00 0. -1.
        -11    1    4    4    0    0  0.68809946365E-01  0.19708858191E-01 -0.36215335648E-01  0.80218822399E-01  0.51100000000E-03 0. -1.
         11    1    4    4    0    0  0.34273440088E-01  0.81927314141E-02 -0.34815979925E-01  0.49539914439E-01  0.51100000000E-03 0.  1.
</event>
<event>
 8    1  0.1101883E+005  0.1043930E+01  0.7957747E-01            NaN
         13   -1    0    0    0    0  0.00000000000E+00  0.00000000000E+00  0.74505805969E-08  0.10566000000E+00  0.10566000000E+00 0.  1.
     999900   -1    0    0    0    0 -0.00000000000E+00 -0.00000000000E+00 -0.74505805969E-08  0.93827000000E+00  0.93827000000E+00 0.  1.
     999902    2    1    2    0    0  0.18639607717E-01  0.10705048171E-01  0.11400209071E-01  0.10195989951E+01  0.10193086446E+01 0.  0.
     999903    2    3    3    0    0  0.11034694967E+00  0.64486146238E-02  0.71204860958E-01  0.13280423295E+00  0.18676138100E-01 0.  0.
         14    1    1    2    0    0 -0.18639607717E-01 -0.10705048171E-01 -0.11400209071E-01  0.24331004892E-01  0.00000000000E+00 0. -1.
     999901    1    3    3    0    0 -0.91707341955E-01  0.42564335473E-02 -0.59804651886E-01  0.88679476215E+00  0.88000000000E+00 0.  1.
        -11    1    4    4    0    0  0.66740457336E-01  0.30011985081E-02  0.32069932275E-01  0.74108282365E-01  0.51100000000E-03 0.  1.
         11    1    4    4    0    0  0.43606492336E-01  0.34474161157E-02  0.39134928683E-01  0.58695950590E-01  0.51100000000E-03 0. -1.
</event>
<event>
 7    1  0.1101883E+005  0.1043930E+01  0.7957747E-01            NaN
         13   -1    0    0    0    0  0.00000000000E+00  0.00000000000E+00  0.74505805969E-08  0.10566000000E+00  0.10566000000E+00 0.  1.
     999900   -1    0    0    0    0 -0.00000000000E+00 -0.00000000000E+00 -0.74505805969E-08  0.93827000000E+00  0.93827000000E+00 0. -1.
     999902    2    1    2    0    0  0.55602160518E-02  0.73244419947E-02 -0.20850054702E-01  0.10211421033E+01  0.10208878033E+01 0.  0.
         14    1    1    2    0    0 -0.55602160518E-02 -0.73244419947E-02  0.20850054702E-01  0.22787896659E-01  0.00000000000E+00 0.  1.
     999901    1    3    3    0    0  0.75832864057E-01  0.46934979751E-01 -0.90657606910E-01  0.88914133707E+00  0.88000000000E+00 0. -1.
        -11    1    3    3    0    0 -0.50450821988E-01  0.33597443992E-02  0.37004998000E-02  0.50700376147E-01  0.51100000000E-03 0.  1.
         11    1    3    3    0    0 -0.19821826017E-01 -0.42970282155E-01  0.66107052408E-01  0.81300390124E-01  0.51100000000E-03 0. -1.
</event>
<event>
 8    1  0.1101883E+005  0.1043930E+01  0.7957747E-01            NaN
         13   -1    0    0    0    0  0.00000000000E+00  0.00000000000E+00  0.74505805969E-08  0.10566000000E+00  0.10566000000E+00 0.  1.
     999900   -1    0    0    0    0 -0.00000000000E+00 -0.00000000000E+00 -0.74505805969E-08  0.93827000000E+00  0.93827000000E+00 0.  1.
     999902    2    1    2    0    0  0.12067603343E-02  0.10841651382E-01 -0.20701710937E-01  0.10205300318E+01  0.10202617249E+01 0.  0.
     999903    2    3    3    0    0  0.12416221971E+00 -0.19311545565E-01 -0.32642096812E-01  0.13139009171E+00  0.20215269474E-01 0.  0.
         14    1    1    2    0    0 -0.12067603343E-02 -0.10841651382E-01  0.20701710937E-01  0.23399968182E-01  0.00000000000E+00 0.  1.
     999901    1    3    3    0    0 -0.12295545938E+00  0.30153196947E-01  0.11940385876E-01  0.88913994011E+00  0.88000000000E+00 0.  1.
        -11    1    4    4    0    0  0.30690310578E-01  0.37295378969E-02 -0.59569455815E-02  0.31488901822E-01  0.51100000000E-03 0.  1.
         11    1    4    4    0    0  0.93471909134E-01 -0.23041083462E-01 -0.26685151231E-01  0.99901189890E-01  0.51100000000E-03 0. -1.
</event>
<event>
 8    1  0.1101883E+005  0.1043930E+01  0.7957747E-01            NaN
         13   -1    0    0    0    0  0.00000000000E+00  0.00000000000E+00  0.74505805969E-08  0.10566000000E+00  0.10566000000E+00 0. -1.
     999900   -1    0    0    0    0 -0.00000000000E+00 -0.00000000000E+00 -0.74505805969E-08  0.93827000000E+00  0.93827000000E+00 0. -1.
     999902    2    1    2    0    0  0.22205101502E-02 -0.11007574320E-01  0.20798279717E-01  0.10202938879E+01  0.10200200742E+01 0.  0.
     999903    2    3    3    0    0  0.10634975414E+00  0.57875415098E-01 -0.40360086786E-01  0.12937968802E+00  0.21221055325E-01 0.  0.
         14    1    1    2    0    0 -0.22205101502E-02  0.11007574320E-01 -0.20798279717E-01  0.23636112136E-01  0.00000000000E+00 0.  1.
     999901    1    3    3    0    0 -0.10412924399E+00 -0.68882989419E-01  0.61158366503E-01  0.89091419984E+00  0.88000000000E+00 0. -1.
        -11    1    4    4    0    0  0.15144297936E-01  0.93825884747E-02 -0.14289440664E-01  0.22843641609E-01  0.51100000000E-03 0. -1.
         11    1    4    4    0    0  0.91205456204E-01  0.48492826624E-01 -0.26070646122E-01  0.10653604641E+00  0.51100000000E-03 0.  1.
</event>
<event>
 8    1  0.1101883E+005  0.1043930E+01  0.7957747E-01            NaN
         13   -1    0    0    0    0  0.00000000000E+00  0.00000000000E+00  0.74505805969E-08  0.10566000000E+00  0.10566000000E+00 0. -1.
     999900   -1    0    0    0    0 -0.00000000000E+00 -0.00000000000E+00 -0.74505805969E-08  0.93827000000E+00  0.93827000000E+00 0.  1.
     999902    2    1    2    0    0  0.62562032170E-03  0.21356900641E-01 -0.16337241365E-01  0.10170336422E+01  0.10166779310E+01 0.  0.
     999903    2    3    3    0    0  0.35021588078E-01  0.11972327648E+00 -0.36641139200E-01  0.13065264359E+00  0.12936986904E-01 0.  0.
         14    1    1    2    0    0 -0.62562032170E-03 -0.21356900641E-01  0.16337241365E-01  0.26896357768E-01  0.00000000000E+00 0. -1.
     999901    1    3    3    0    0 -0.34395967757E-01 -0.98366375844E-01  0.20303897835E-01  0.88638099865E+00  0.88000000000E+00 0. -1.
        -11    1    4    4    0    0  0.14339972400E-01  0.59292846659E-01 -0.11896462486E-01  0.62153547075E-01  0.51100000000E-03 0. -1.
         11    1    4    4    0    0  0.20681615679E-01  0.60430429826E-01 -0.24744676714E-01  0.68499096510E-01  0.51100000000E-03 0.  1.
</event>
<event>
 8    1  0.1101883E+005  0.1043930E+01  0.7957747E-01            NaN
         13   -1    0    0    0    0  0.00000000000E+00  0.00000000000E+00  0.74505805969E-08  0.10566000000E+00  0.10566000000E+00 0.  1.
     999900   -1    0    0    0    0 -0.00000000000E+00 -0.00000000000E+00 -0.74505805969E-08  0.93827000000E+00  0.93827000000E+00 0. -1.
     999902    2    1    2    0    0 -0.12469619325E-01  0.21866733044E-02 -0.19299261420E-01  0.10208489593E+01  0.10205879988E+01 0.  0.
     999903    2    3    3    0    0  0.37616855662E-01  0.43617020964E-01  0.11340724335E+00  0.12852830785E+00  0.18462143043E-01 0.  0.
         14    1    1    2    0    0  0.12469619325E-01 -0.21866733044E-02  0.19299261420E-01  0.23081040653E-01  0.00000000000E+00 0.  1.
     999901    1    3    3    0    0 -0.50086474987E-01 -0.41430347659E-01 -0.13270650477E+00  0.89232065150E+00  0.88000000000E+00 0. -1.
        -11    1    4    4    0    0  0.13745499594E-01  0.28714399786E-01  0.51912511226E-01  0.60898484849E-01  0.51100000000E-03 0. -1.
         11    1    4    4    0    0  0.23871356068E-01  0.14902621178E-01  0.61494732127E-01  0.67629822999E-01  0.51100000000E-03 0.  1.
</event>
<event>
 8    1  0.1101883E+005  0.1043930E+01  0.7957747E-01            NaN
         13   -1    0    0    0    0  0.00000000000E+00  0.00000000000E+00  0.74505805969E-08  0.10566000000E+00  0.10566000000E+00 0. -1.
     999900   -1    0    0    0    0 -0.00000000000E+00 -0.00000000000E+00 -0.74505805969E-08  0.93827000000E+00  0.93827000000E+00 0. -1.
     999902    2    1    2    0    0 -0.11166777799E-01 -0.20742953437E-01 -0.65020298240E-03  0.10203632903E+01  0.10200911010E+01 0.  0.
     999903    2    3    3    0    0  0.90744820681E-01  0.81133568893E-01 -0.34176764899E-01  0.12801311794E+00  0.20050651429E-01 0.  0.
         14    1    1    2    0    0  0.11166777799E-01  0.20742953437E-01  0.65020298240E-03  0.23566709733E-01  0.00000000000E+00 0.  1.
     999901    1    3    3    0    0 -0.10191159848E+00 -0.10187652233E+00  0.33526561916E-01  0.89235017233E+00  0.88000000000E+00 0.  1.
        -11    1    4    4    0    0  0.77202629227E-01  0.60698838624E-01 -0.22027337088E-01  0.10064819755E+00  0.51100000000E-03 0. -1.
         11    1    4    4    0    0  0.13542191454E-01  0.20434730270E-01 -0.12149427811E-01  0.27364920386E-01  0.51100000000E-03 0.  1.
</event>
<event>
 8    1  0.1101883E+005  0.1043930E+01  0.7957747E-01            NaN
         13   -1    0    0    0    0  0.00000000000E+00  0.00000000000E+00  0.74505805969E-08  0.10566000000E+00  0.10566000000E+00 0.  1.
     999900   -1    0    0    0    0 -0.00000000000E+00 -0.00000000000E+00 -0.74505805969E-08  0.93827000000E+00  0.93827000000E+00 0.  1.
     999902    2    1    2    0    0 -0.56623799106E-02  0.16532587730E-01 -0.15433196134E-01  0.10206153577E+01  0.10203490265E+01 0.  0.
     999903    2    3    3    0    0  0.66013794858E-01 -0.88016588050E-01  0.63585754039E-01  0.12802810779E+00  0.15598313528E-01 0.  0.
         14    1    1    2    0    0  0.56623799106E-02 -0.16532587730E-01  0.15433196134E-01  0.23314642313E-01  0.00000000000E+00 0.  1.
     999901    1    3    3    0    0 -0.71676174768E-01  0.10454917578E+00 -0.79018950173E-01  0.89258724989E+00  0.88000000000E+00 0.  1.
        -11    1    4    4    0    0  0.38772216002E-01 -0.44273105201E-01  0.26543441357E-01  0.64561660278E-01  0.51100000000E-03 0. -1.
         11    1    4    4    0    0  0.27241578856E-01 -0.43743482849E-01  0.37042312682E-01  0.63466447515E-01  0.51100000000E-03 0.  1.
</event>
<event>
 8    1  0.1101883E+005  0.1043930E+01  0.7957747E-01            NaN
         13   -1    0    0    0    0  0.00000000000E+00  0.00000000000E+00  0.74505805969E-08  0.10566000000E+00  0.10566000000E+00 0.  1.
     999900   -1    0    0    0    0 -0.00000000000E+00 -0.00000000000E+00 -0.74505805969E-08  0.93827000000E+00  0.93827000000E+00 0.  1.
     999902    2    1    2    0    0  0.27494631636E-02  0.78859335996E-02  0.21442409256E-01  0.10209186026E+01  0.10206592324E+01 0.  0.
     999903    2    3    3    0    0 -0.12688442904E+00 -0.26299211826E-02 -0.21772002860E-01  0.13031037523E+00  0.20004973539E-01 0.  0.
         14    1    1    2    0    0 -0.27494631636E-02 -0.78859335996E-02 -0.21442409256E-01  0.23011397418E-01  0.00000000000E+00 0. -1.
     999901    1    3    3    0    0  0.12963389220E+00  0.10515854782E-01  0.43214412116E-01  0.89060822735E+00  0.88000000000E+00 0.  1.
        -11    1    4    4    0    0 -0.78914228003E-02  0.46174043914E-02 -0.19822051690E-03  0.91594426414E-02  0.51100000000E-03 0. -1.
         11    1    4    4    0    0 -0.11899300624E+00 -0.72473255740E-02 -0.21573782343E-01  0.12115093259E+00  0.51100000000E-03 0.  1.
</event>
<event>
 8    1  0.1101883E+005  0.1043930E+01  0.7957747E-01            NaN
         13   -1    0    0    0    0  0.00000000000E+00  0.00000000000E+00  0.74505805969E-08  0.10566000000E+00  0.10566000000E+00 0. -1.
     999900   -1    0    0    0    0 -0.00000000000E+00 -0.00000000000E+00 -0.74505805969E-08  0.93827000000E+00  0.93827000000E+00 0. -1.
     999902    2    1    2    0    0  0.14138965994E-01  0.15834614407E-01 -0.13408253731E-01  0.10188217018E+01  0.10185122647E+01 0.  0.
     999903    2    3    3    0    0 -0.67717279640E-01 -0.17966973307E-02 -0.10882996820E+00  0.12971169073E+00  0.19806631523E-01 0.  0.
         14    1    1    2    0    0 -0.14138965994E-01 -0.15834614407E-01  0.13408253731E-01  0.25108298248E-01  0.00000000000E+00 0. -1.
     999901    1    3    3    0    0  0.81856245634E-01  0.17631311738E-01  0.95421714465E-01  0.88911001102E+00  0.88000000000E+00 0.  1.
        -11    1    4    4    0    0 -0.24194485513E-01 -0.10099622329E-01 -0.42687919542E-01  0.50098853243E-01  0.51100000000E-03 0.  1.
         11    1    4    4    0    0 -0.43522794127E-01  0.83029249987E-02 -0.66142048653E-01  0.79612837490E-01  0.51100000000E-03 0. -1.
</event>
<event>
 8    1  0.1101883E+005  0.1043930E+01  0.7957747E-01            NaN
         13   -1    0    0    0    0  0.00000000000E+00  0.00000000000E+00  0.74505805969E-08  0.10566000000E+00  0.10566000000E+00 0.  1.
     999900   -1    0    0    0    0 -0.00000000000E+00 -0.00000000000E+00 -0.74505805969E-08  0.93827000000E+00  0.93827000000E+00 0.  1.
     999902    2    1    2    0    0  0.26651395880E-02 -0.21870847866E-01 -0.22060784911E-02  0.10217871967E+01  0.10215472439E+01 0.  0.
     999903    2    3    3    0    0 -0.42731188916E-01  0.72337727791E-01 -0.97717598103E-01  0.13046316318E+00  0.20327483833E-01 0.  0.
         14    1    1    2    0    0 -0.26651395880E-02  0.21870847866E-01  0.22060784911E-02  0.22142803293E-01  0.00000000000E+00 0.  1.
     999901    1    3    3    0    0  0.45396328504E-01 -0.94208575656E-01  0.95511519612E-01  0.89132403353E+00  0.88000000000E+00 0. -1.
        -11    1    4    4    0    0 -0.17008890561E-01  0.12193516332E-01 -0.26295896702E-01  0.33611300228E-01  0.51100000000E-03 0. -1.
         11    1    4    4    0    0 -0.25722298355E-01  0.60144211458E-01 -0.71421701402E-01  0.96851862949E-01  0.51100000000E-03 0.  1.
</event>
<event>
 8    1  0.1101883E+005  0.1043930E+01  0.7957747E-01            NaN
         13   -1    0    0    0    0  0.00000000000E+00  0.00000000000E+00  0.74505805969E-08  0.10566000000E+00  0.10566000000E+00 0.  1.
     999900   -1    0    0    0    0 -0.00000000000E+00 -0.00000000000E+00 -0.74505805969E-08  0.93827000000E+00  0.93827000000E+00 0.  1.
     999902    2    1    2    0    0 -0.22939844927E-01 -0.63251602355E-02  0.50697866832E-02  0.10196000416E+01  0.10193097164E+01 0.  0.
     999903    2    3    3    0    0 -0.29628255619E-01 -0.98364577404E-01 -0.78789192694E-01  0.13080967401E+00  0.18708562494E-01 0.  0.
         14    1    1    2    0    0  0.22939844927E-01  0.63251602355E-02 -0.50697866832E-02  0.24329958370E-01  0.00000000000E+00 0.  1.
     999901    1    3    3    0    0  0.66884106922E-02  0.92039417168E-01  0.83858979378E-01  0.88879036762E+00  0.88000000000E+00 0.  1.
        -11    1    4    4    0    0 -0.15235612709E-01 -0.32012861156E-01 -0.18421640273E-01  0.39957040998E-01  0.51100000000E-03 0.  1.
         11    1    4    4    0    0 -0.14392642910E-01 -0.66351716247E-01 -0.60367552422E-01  0.90852633012E-01  0.51100000000E-03 0. -1.
</event>
<event>
 8    1  0.1101883E+005  0.1043930E+01  0.7957747E-01            NaN
         13   -1    0    0    0    0  0.00000000000E+00  0.00000000000E+00  0.74505805969E-08  0.10566000000E+00  0.10566000000E+00 0.  1.
     999900   -1    0    0    0    0 -0.00000000000E+00 -0.00000000000E+00 -0.74505805969E-08  0.93827000000E+00  0.93827000000E+00 0. -1.
     999902    2    1    2    0    0  0.27928857299E-02  0.20026152442E-01  0.21184011042E-01  0.10146450326E+01  0.10142223291E+01 0.  0.
     999903    2    3    3    0    0  0.29924236858E-01 -0.11261767300E+00 -0.32249734204E-01  0.12268894636E+00  0.20840632847E-01 0.  0.
         14    1    1    2    0    0 -0.27928857299E-02 -0.20026152442E-01 -0.21184011042E-01  0.29284967409E-01  0.00000000000E+00 0. -1.
     999901    1    3    3    0    0 -0.27131351128E-01  0.13264382544E+00  0.53433745246E-01  0.89195608624E+00  0.88000000000E+00 0.  1.
        -11    1    4    4    0    0  0.21288165247E-01 -0.83656944194E-01 -0.33096916081E-01  0.92451810510E-01  0.51100000000E-03 0.  1.
         11    1    4    4    0    0  0.86360716107E-02 -0.28960728809E-01  0.84718187708E-03  0.30237135845E-01  0.51100000000E-03 0. -1.
</event>
<event>
 8    1  0.1101883E+005  0.1043930E+01  0.7957747E-01            NaN
         13   -1    0    0    0    0  0.00000000000E+00  0.00000000000E+00  0.74505805969E-08  0.10566000000E+00  0.10566000000E+00 0.  1.
     999900   -1    0    0    0    0 -0.00000000000E+00 -0.00000000000E+00 -0.74505805969E-08  0.93827000000E+00  0.93827000000E+00 0. -1.
     999902    2    1    2    0    0 -0.19135528420E-01 -0.66839247787E-02  0.12318218763E-01  0.10202111929E+01  0.10199354373E+01 0.  0.
     999903    2    3    3    0    0 -0.19144400327E-01  0.32600220622E-01  0.12499634376E+00  0.13215736341E+00  0.20302716589E-01 0.  0.
         14    1    1    2    0    0  0.19135528420E-01  0.66839247787E-02 -0.12318218763E-01  0.23718807134E-01  0.00000000000E+00 0. -1.
     999901    1    3    3    0    0  0.88719075986E-05 -0.39284145401E-01 -0.11267812500E+00  0.88805382946E+00  0.88000000000E+00 0. -1.
        -11    1    4    4    0    0  0.32491046848E-02  0.47907577065E-03  0.15953771721E-01  0.16296323142E-01  0.51100000000E-03 0.  1.
         11    1    4    4    0    0 -0.22393505012E-01  0.32121144851E-01  0.10904257204E+00  0.11586104027E+00  0.51100000000E-03 0. -1.
</event>
<event>
 8    1  0.1101883E+005  0.1043930E+01  0.7957747E-01            NaN
         13   -1    0    0    0    0  0.00000000000E+00  0.00000000000E+00  0.74505805969E-08  0.10566000000E+00  0.10566000000E+00 0. -1.
     999900   -1    0    0    0    0 -0.00000000000E+00 -0.00000000000E+00 -0.74505805969E-08  0.93827000000E+00  0.93827000000E+00 0.  1.
     999902    2    1    2    0    0  0.19872213390E-02 -0.12828644117E-01 -0.19780553145E-01  0.10202700456E+01  0.10199956728E+01 0.  0.
     999903    2    3    3    0    0 -0.81648147665E-01  0.64933158881E-01  0.69704656950E-01  0.12839035879E+00  0.27250869534E-01 0.  0.
         14    1    1    2    0    0 -0.19872213390E-02  0.12828644117E-01  0.19780553145E-01  0.23659954380E-01  0.00000000000E+00 0. -1.
     999901    1    3    3    0    0  0.83635369004E-01 -0.77761802998E-01 -0.89485210095E-01  0.89187968683E+00  0.88000000000E+00 0.  1.
        -11    1    4    4    0    0 -0.46034369509E-01  0.36163623326E-01  0.54936400805E-01  0.80282252600E-01  0.51100000000E-03 0.  1.
         11    1    4    4    0    0 -0.35613778156E-01  0.28769535555E-01  0.14768256145E-01  0.48108106190E-01  0.51100000000E-03 0. -1.
</event>
<event>
 8    1  0.1101883E+005  0.1043930E+01  0.7957747E-01            NaN
         13   -1    0    0    0    0  0.00000000000E+00  0.00000000000E+00  0.74505805969E-08  0.10566000000E+00  0.10566000000E+00 0. -1.
     999900   -1    0    0    0    0 -0.00000000000E+00 -0.00000000000E+00 -0.74505805969E-08  0.93827000000E+00  0.93827000000E+00 0.  1.
     999902    2    1    2    0    0  0.36157819821E-02 -0.17660436580E-01  0.15923518446E-01  0.10198774879E+01  0.10195938245E+01 0.  0.
     999903    2    3    3    0    0 -0.92422811737E-01  0.70116107685E-01 -0.49683233401E-01  0.12789521278E+00  0.20748905624E-01 0.  0.
         14    1    1    2    0    0 -0.36157819821E-02  0.17660436580E-01 -0.15923518446E-01  0.24052512119E-01  0.00000000000E+00 0.  1.
     999901    1    3    3    0    0  0.96038593719E-01 -0.87776544265E-01  0.65606751847E-01  0.89198227510E+00  0.88000000000E+00 0. -1.
        -11    1    4    4    0    0 -0.42978934642E-01  0.30960467487E-01 -0.33857989832E-01  0.62867829344E-01  0.51100000000E-03 0. -1.
         11    1    4    4    0    0 -0.49443877095E-01  0.39155640199E-01 -0.15825243569E-01  0.65027383436E-01  0.51100000000E-03 0.  1.
</event>
<event>
 8    1  0.1101883E+005  0.1043930E+01  0.7957747E-01            NaN
         13   -1    0    0    0    0  0.00000000000E+00  0.00000000000E+00  0.74505805969E-08  0.10566000000E+00  0.10566000000E+00 0.  1.
     999900   -1    0    0    0    0 -0.00000000000E+00 -0.00000000000E+00 -0.74505805969E-08  0.93827000000E+00  0.93827000000E+00 0. -1.
     999902    2    1    2    0    0  0.41660209243E-02 -0.22072866276E-01 -0.84920277503E-03  0.10214513812E+01  0.10212040129E+01 0.  0.
     999903    2    3    3    0    0 -0.42478691198E-01 -0.76616411974E-01 -0.98134238059E-01  0.13318615867E+00  0.20825714652E-01 0.  0.
         14    1    1    2    0    0 -0.41660209243E-02  0.22072866276E-01  0.84920277503E-03  0.22478618760E-01  0.00000000000E+00 0.  1.
     999901    1    3    3    0    0  0.46644712122E-01  0.54543545698E-01  0.97285035284E-01  0.88826522258E+00  0.88000000000E+00 0.  1.
        -11    1    4    4    0    0 -0.23414624767E-01 -0.43247429245E-01 -0.39510175031E-01  0.63086447366E-01  0.51100000000E-03 0.  1.
         11    1    4    4    0    0 -0.19064066430E-01 -0.33368982729E-01 -0.58624063028E-01  0.70099711299E-01  0.51100000000E-03 0. -1.
</event>
<event>
 8    1  0.1101883E+005  0.1043930E+01  0.7957747E-01            NaN
         13   -1    0    0    0    0  0.00000000000E+00  0.00000000000E+00  0.74505805969E-08  0.10566000000E+00  0.10566000000E+00 0.  1.
     999900   -1    0    0    0    0 -0.00000000000E+00 -0.00000000000E+00 -0.74505805969E-08  0.93827000000E+00  0.93827000000E+00 0.  1.
     999902    2    1    2    0    0  0.28474614483E-02 -0.13256500837E-01  0.18595432948E-01  0.10209162437E+01  0.10206568198E+01 0.  0.
     999903    2    3    3    0    0  0.81489410767E-01  0.71046286995E-01 -0.68075581785E-01  0.12917447560E+00  0.19069906885E-01 0.  0.
         14    1    1    2    0    0 -0.28474614483E-02  0.13256500837E-01 -0.18595432948E-01  0.23013756270E-01  0.00000000000E+00 0. -1.
     999901    1    3    3    0    0 -0.78641949319E-01 -0.84302787832E-01  0.86671014733E-01  0.89174176813E+00  0.88000000000E+00 0. -1.
        -11    1    4    4    0    0  0.18059388153E-01  0.62895923249E-02 -0.12187635165E-01  0.22682593414E-01  0.51100000000E-03 0.  1.
         11    1    4    4    0    0  0.63430022614E-01  0.64756694670E-01 -0.55887946620E-01  0.10649188219E+00  0.51100000000E-03 0. -1.
</event>
<event>
 8    1  0.1101883E+005  0.1043930E+01  0.7957747E-01            NaN
         13   -1    0    0    0    0  0.00000000000E+00  0.00000000000E+00  0.74505805969E-08  0.10566000000E+00  0.10566000000E+00 0. -1.
     999900   -1    0    0    0    0 -0.00000000000E+00 -0.00000000000E+00 -0.74505805969E-08  0.93827000000E+00  0.93827000000E+00 0. -1.
     999902    2    1    2    0    0  0.14100867586E-01  0.10342441586E-01  0.14816865826E-01  0.10210097016E+01  0.10207524042E+01 0.  0.
     999903    2    3    3    0    0  0.67279220759E-01 -0.65599984742E-01 -0.87966114141E-01  0.13019011813E+00  0.19534023608E-01 0.  0.
         14    1    1    2    0    0 -0.14100867586E-01 -0.10342441586E-01 -0.14816865826E-01  0.22920298374E-01  0.00000000000E+00 0.  1.
     999901    1    3    3    0    0 -0.53178353173E-01  0.75942426328E-01  0.10278297997E+00  0.89081958349E+00  0.88000000000E+00 0.  1.
        -11    1    4    4    0    0  0.24292049328E-01 -0.19271607997E-01 -0.41199420920E-01  0.51566965593E-01  0.51100000000E-03 0. -1.
         11    1    4    4    0    0  0.42987171432E-01 -0.46328376745E-01 -0.46766693222E-01  0.78623152540E-01  0.51100000000E-03 0.  1.
</event>
<event>
 8    1  0.1101883E+005  0.1043930E+01  0.7957747E-01            NaN
         13   -1    0    0    0    0  0.00000000000E+00  0.00000000000E+00  0.74505805969E-08  0.10566000000E+00  0.10566000000E+00 0. -1.
     999900   -1    0    0    0    0 -0.00000000000E+00 -0.00000000000E+00 -0.74505805969E-08  0.93827000000E+00  0.93827000000E+00 0.  1.
     999902    2    1    2    0    0 -0.26159712833E-02 -0.21290317385E-01  0.87569863659E-02  0.10207609316E+01  0.10204979538E+01 0.  0.
     999903    2    3    3    0    0 -0.84666441031E-02 -0.12196526673E+00 -0.49344123944E-01  0.13309803680E+00  0.18249232343E-01 0.  0.
         14    1    1    2    0    0  0.26159712833E-02  0.21290317385E-01 -0.87569863659E-02  0.23169068396E-01  0.00000000000E+00 0.  1.
     999901    1    3    3    0    0  0.58506728198E-02  0.10067494934E+00  0.58101110310E-01  0.88766289481E+00  0.88000000000E+00 0. -1.
        -11    1    4    4    0    0 -0.42783542595E-02 -0.61696349534E-01 -0.34763059334E-01  0.70946989198E-01  0.51100000000E-03 0. -1.
         11    1    4    4    0    0 -0.41882898436E-02 -0.60268917194E-01 -0.14581064610E-01  0.62151047600E-01  0.51100000000E-03 0.  1.
</event>
<event>
 8    1  0.1101883E+005  0.1043930E+01  0.7957747E-01            NaN
         13   -1    0    0    0    0  0.00000000000E+00  0.00000000000E+00  0.74505805969E-08  0.10566000000E+00  0.10566000000E+00 0. -1.
     999900   -1    0    0    0    0 -0.00000000000E+00 -0.00000000000E+00 -0.74505805969E-08  0.93827000000E+00  0.93827000000E+00 0. -1.
     999902    2    1    2    0    0  0.21887818673E-02  0.22167105229E-02  0.23553687363E-01  0.10201711962E+01  0.10198944988E+01 0.  0.
     999903    2    3    3    0    0  0.51824328756E-01 -0.51526443200E-01  0.10916095855E+00  0.13299555460E+00  0.20759751275E-01 0.  0.
         14    1    1    2    0    0 -0.21887818673E-02 -0.22167105229E-02 -0.23553687363E-01  0.23758803841E-01  0.00000000000E+00 0.  1.
     999901    1    3    3    0    0 -0.49635546889E-01  0.53743153723E-01 -0.85607271188E-01  0.88717564155E+00  0.88000000000E+00 0. -1.
        -11    1    4    4    0    0  0.23841562593E-01 -0.13252979638E-01  0.52056179206E-01  0.58772174459E-01  0.51100000000E-03 0.  1.
         11    1    4    4    0    0  0.27982766163E-01 -0.38273463562E-01  0.57104779344E-01  0.74223380145E-01  0.51100000000E-03 0. -1.
</event>
<event>
 8    1  0.1101883E+005  0.1043930E+01  0.7957747E-01            NaN
         13   -1    0    0    0    0  0.00000000000E+00  0.00000000000E+00  0.74505805969E-08  0.10566000000E+00  0.10566000000E+00 0.  1.
     999900   -1    0    0    0    0 -0.00000000000E+00 -0.00000000000E+00 -0.74505805969E-08  0.93827000000E+00  0.93827000000E+00 0.  1.
     999902    2    1    2    0    0  0.14893718888E-01  0.12108378704E-01  0.60137446187E-02  0.10238153083E+01  0.10236176946E+01 0.  0.
     999903    2    3    3    0    0  0.99263625602E-01 -0.29536733906E-01  0.84754071103E-01  0.13530383648E+00  0.19954688205E-01 0.  0.
         14    1    1    2    0    0 -0.14893718888E-01 -0.12108378704E-01 -0.60137446187E-02  0.20114691683E-01  0.00000000000E+00 0. -1.
     999901    1    3    3    0    0 -0.84369906714E-01  0.41645112610E-01 -0.78740326484E-01  0.88851147183E+00  0.88000000000E+00 0. -1.
        -11    1    4    4    0    0  0.47823308077E-01 -0.22474711340E-01  0.34957473690E-01  0.63359825860E-01  0.51100000000E-03 0. -1.
         11    1    4    4    0    0  0.51440317525E-01 -0.70620225664E-02  0.49796597413E-01  0.71944010625E-01  0.51100000000E-03 0.  1.
</event>
<event>
 8    1  0.1101883E+005  0.1043930E+01  0.7957747E-01            NaN
         13   -1    0    0    0    0  0.00000000000E+00  0.00000000000E+00  0.74505805969E-08  0.10566000000E+00  0.10566000000E+00 0. -1.
     999900   -1    0    0    0    0 -0.00000000000E+00 -0.00000000000E+00 -0.74505805969E-08  0.93827000000E+00  0.93827000000E+00 0. -1.
     999902    2    1    2    0    0 -0.20045063289E-01  0.36957698977E-02 -0.11618196659E-01  0.10204684193E+01  0.10201986811E+01 0.  0.
     999903    2    3    3    0    0  0.53894398727E-01 -0.84787447395E-01 -0.80597840570E-01  0.13026927577E+00  0.19507815249E-01 0.  0.
         14    1    1    2    0    0  0.20045063289E-01 -0.36957698977E-02  0.11618196659E-01  0.23461580744E-01  0.00000000000E+00 0.  1.
     999901    1    3    3    0    0 -0.73939462016E-01  0.88483217293E-01  0.68979643910E-01  0.89019914348E+00  0.88000000000E+00 0. -1.
        -11    1    4    4    0    0  0.16528394227E-01 -0.33844329822E-01 -0.19657692531E-01  0.42488968845E-01  0.51100000000E-03 0. -1.
         11    1    4    4    0    0  0.37366004500E-01 -0.50943117573E-01 -0.60940148038E-01  0.87780306927E-01  0.51100000000E-03 0.  1.
</event>
<event>
 8    1  0.1101883E+005  0.1043930E+01  0.7957747E-01            NaN
         13   -1    0    0    0    0  0.00000000000E+00  0.00000000000E+00  0.74505805969E-08  0.10566000000E+00  0.10566000000E+00 0. -1.
     999900   -1    0    0    0    0 -0.00000000000E+00 -0.00000000000E+00 -0.74505805969E-08  0.93827000000E+00  0.93827000000E+00 0. -1.
     999902    2    1    2    0    0  0.43465053589E-02 -0.16435652311E-01  0.11928199062E-01  0.10231621232E+01  0.10229513310E+01 0.  0.
     999903    2    3    3    0    0  0.79942589290E-01 -0.78828287427E-01  0.73026285554E-01  0.13561461176E+00  0.21301832281E-01 0.  0.
         14    1    1    2    0    0 -0.43465053589E-02  0.16435652311E-01 -0.11928199062E-01  0.20767876843E-01  0.00000000000E+00 0.  1.
     999901    1    3    3    0    0 -0.75596083931E-01  0.62392635117E-01 -0.61098086491E-01  0.88754751140E+00  0.88000000000E+00 0. -1.
        -11    1    4    4    0    0  0.38055070445E-01 -0.49922984083E-01  0.33370626011E-01  0.71093969700E-01  0.51100000000E-03 0. -1.
         11    1    4    4    0    0  0.41887518845E-01 -0.28905303345E-01  0.39655659543E-01  0.64520642055E-01  0.51100000000E-03 0.  1.
</event>
<event>
 8    1  0.1101883E+005  0.1043930E+01  0.7957747E-01            NaN
         13   -1    0    0    0    0  0.00000000000E+00  0.00000000000E+00  0.74505805969E-08  0.10566000000E+00  0.10566000000E+00 0.  1.
     999900   -1    0    0    0    0 -0.00000000000E+00 -0.00000000000E+00 -0.74505805969E-08  0.93827000000E+00  0.93827000000E+00 0. -1.
     999902    2    1    2    0    0 -0.12703856783E-02 -0.59989553919E-02 -0.20905383881E-01  0.10221438480E+01  0.10219116447E+01 0.  0.
     999903    2    3    3    0    0  0.90530409918E-01 -0.18864169382E-01  0.89607013098E-01  0.13040067322E+00  0.20574420382E-01 0.  0.
         14    1    1    2    0    0  0.12703856783E-02  0.59989553919E-02  0.20905383881E-01  0.21786152042E-01  0.00000000000E+00 0.  1.
     999901    1    3    3    0    0 -0.91800795596E-01  0.12865213990E-01 -0.11051239698E+00  0.89174317474E+00  0.88000000000E+00 0. -1.
        -11    1    4    4    0    0  0.20063863202E-01 -0.80395924452E-02  0.10931108498E-01  0.24226925254E-01  0.51100000000E-03 0.  1.
         11    1    4    4    0    0  0.70466546715E-01 -0.10824576937E-01  0.78675904600E-01  0.10617374797E+00  0.51100000000E-03 0. -1.
</event>
<event>
 8    1  0.1101883E+005  0.1043930E+01  0.7957747E-01            NaN
         13   -1    0    0    0    0  0.00000000000E+00  0.00000000000E+00  0.74505805969E-08  0.10566000000E+00  0.10566000000E+00 0.  1.
     999900   -1    0    0    0    0 -0.00000000000E+00 -0.00000000000E+00 -0.74505805969E-08  0.93827000000E+00  0.93827000000E+00 0.  1.
     999902    2    1    2    0    0 -0.65110766770E-02 -0.15945683533E-01 -0.15410019408E-01  0.10208187984E+01  0.10205571476E+01 0.  0.
     999903    2    3    3    0    0  0.83524692547E-01  0.45619988116E-01 -0.88005882917E-01  0.13111832570E+00  0.19733786388E-01 0.  0.
         14    1    1    2    0    0  0.65110766770E-02  0.15945683533E-01  0.15410019408E-01  0.23111201634E-01  0.00000000000E+00 0. -1.
     999901    1    3    3    0    0 -0.90035769224E-01 -0.61565671649E-01  0.72595863509E-01  0.88970047267E+00  0.88000000000E+00 0. -1.
        -11    1    4    4    0    0  0.23301051395E-01  0.10157684212E-01 -0.12848474891E-01  0.28486171605E-01  0.51100000000E-03 0. -1.
         11    1    4    4    0    0  0.60223641152E-01  0.35462303905E-01 -0.75157408026E-01  0.10263215409E+00  0.51100000000E-03 0.  1.
</event>
<event>
 8    1  0.1101883E+005  0.1043930E+01  0.7957747E-01            NaN
         13   -1    0    0    0    0  0.00000000000E+00  0.00000000000E+00  0.74505805969E-08  0.10566000000E+00  0.10566000000E+00 0. -1.
     999900   -1    0    0    0    0 -0.00000000000E+00 -0.00000000000E+00 -0.74505805969E-08  0.93827000000E+00  0.93827000000E+00 0. -1.
     999902    2    1    2    0    0  0.17762646319E-01 -0.86058709302E-02 -0.12377878477E-01  0.10206322642E+01  0.10203663235E+01 0.  0.
     999903    2    3    3    0    0 -0.30371220573E-01  0.17739465322E-01 -0.12542677660E+00  0.13170538347E+00  0.19425037380E-01 0.  0.
         14    1    1    2    0    0 -0.17762646319E-01  0.86058709302E-02  0.12377878477E-01  0.23297735820E-01  0.00000000000E+00 0.  1.
     999901    1    3    3    0    0  0.48133866893E-01 -0.26345336252E-01  0.11304889812E+00  0.88892688071E+00  0.88000000000E+00 0.  1.
        -11    1    4    4    0    0 -0.16900095058E-01  0.19677497908E-01 -0.70713543505E-01  0.75322529783E-01  0.51100000000E-03 0.  1.
         11    1    4    4    0    0 -0.13471125515E-01 -0.19380325864E-02 -0.54713233096E-01  0.56382853686E-01  0.51100000000E-03 0. -1.
</event>
<event>
 8    1  0.1101883E+005  0.1043930E+01  0.7957747E-01            NaN
         13   -1    0    0    0    0  0.00000000000E+00  0.00000000000E+00  0.74505805969E-08  0.10566000000E+00  0.10566000000E+00 0.  1.
     999900   -1    0    0    0    0 -0.00000000000E+00 -0.00000000000E+00 -0.74505805969E-08  0.93827000000E+00  0.93827000000E+00 0. -1.
     999902    2    1    2    0    0 -0.69373563036E-02  0.25492814169E-01 -0.70428553401E-02  0.10165875001E+01  0.10162197268E+01 0.  0.
     999903    2    3    3    0    0  0.18882816253E-01  0.10374280810E+00  0.71733692076E-01  0.12923442088E+00  0.20896937082E-01 0.  0.
         14    1    1    2    0    0  0.69373563036E-02 -0.25492814169E-01  0.70428553401E-02  0.27342499850E-01  0.00000000000E+00 0.  1.
     999901    1    3    3    0    0 -0.25820172557E-01 -0.78249993934E-01 -0.78776547416E-01  0.88735307927E+00  0.88000000000E+00 0. -1.
        -11    1    4    4    0    0  0.19336433455E-01  0.48499152679E-01  0.36522986057E-01  0.63720131049E-01  0.51100000000E-03 0. -1.
         11    1    4    4    0    0 -0.45361720126E-03  0.55243655424E-01  0.35210706018E-01  0.65514289834E-01  0.51100000000E-03 0.  1.
</event>
<event>
 8    1  0.1101883E+005  0.1043930E+01  0.7957747E-01            NaN
         13   -1    0    0    0    0  0.00000000000E+00  0.00000000000E+00  0.74505805969E-08  0.10566000000E+00  0.10566000000E+00 0.  1.
     999900   -1    0    0    0    0 -0.00000000000E+00 -0.00000000000E+00 -0.74505805969E-08  0.93827000000E+00  0.93827000000E+00 0. -1.
     999902    2    1    2    0    0  0.16085755488E-01  0.44979024846E-02  0.16811099097E-01  0.10202319893E+01  0.10199567228E+01 0.  0.
     999903    2    3    3    0    0 -0.41175773766E-01  0.99178470886E-01 -0.68899615172E-01  0.12917103783E+00  0.20154071819E-01 0.  0.
         14    1    1    2    0    0 -0.16085755488E-01 -0.44979024846E-02 -0.16811099097E-01  0.23698010660E-01  0.00000000000E+00 0.  1.
     999901    1    3    3    0    0  0.57261529254E-01 -0.94680568401E-01  0.85710714269E-01  0.89106095151E+00  0.88000000000E+00 0.  1.
        -11    1    4    4    0    0 -0.35245011350E-01  0.75912660091E-01 -0.62077235282E-01  0.10420550393E+00  0.51100000000E-03 0. -1.
         11    1    4    4    0    0 -0.59307624164E-02  0.23265810795E-01 -0.68223798893E-02  0.24965533905E-01  0.51100000000E-03 0.  1.
</event>
<event>
 8    1  0.1101883E+005  0.1043930E+01  0.7957747E-01            NaN
         13   -1    0    0    0    0  0.00000000000E+00  0.00000000000E+00  0.74505805969E-08  0.10566000000E+00  0.10566000000E+00 0.  1.
     999900   -1    0    0    0    0 -0.00000000000E+00 -0.00000000000E+00 -0.74505805969E-08  0.93827000000E+00  0.93827000000E+00 0. -1.
     999902    2    1    2    0    0 -0.89623755412E-03 -0.11382706283E-01  0.20681558146E-01  0.10203059425E+01  0.10200324114E+01 0.  0.
     999903    2    3    3    0    0  0.63599662912E-01  0.11076338131E+00 -0.43922385358E-02  0.12917852001E+00  0.18824306361E-01 0.  0.
         14    1    1    2    0    0  0.89623755412E-03  0.11382706283E-01 -0.20681558146E-01  0.23624057471E-01  0.00000000000E+00 0. -1.
     999901    1    3    3    0    0 -0.64495900466E-01 -0.12214608759E+00  0.25073796681E-01  0.89112742252E+00  0.88000000000E+00 0.  1.
        -11    1    4    4    0    0  0.43101166826E-01  0.67397812967E-01  0.55317650006E-02  0.80193748632E-01  0.51100000000E-03 0. -1.
         11    1    4    4    0    0  0.20498496086E-01  0.43365568343E-01 -0.99240035364E-02  0.48984771375E-01  0.51100000000E-03 0.  1.
</event>
<event>
 8    1  0.1101883E+005  0.1043930E+01  0.7957747E-01            NaN
         13   -1    0    0    0    0  0.00000000000E+00  0.00000000000E+00  0.74505805969E-08  0.10566000000E+00  0.10566000000E+00 0.  1.
     999900   -1    0    0    0    0 -0.00000000000E+00 -0.00000000000E+00 -0.74505805969E-08  0.93827000000E+00  0.93827000000E+00 0.  1.
     999902    2    1    2    0    0  0.14824484585E-01  0.10668178352E-01  0.15405916483E-01  0.10200361172E+01  0.10197562271E+01 0.  0.
     999903    2    3    3    0    0  0.29526220500E-03  0.12226859778E+00 -0.43113025482E-01  0.13094094879E+00  0.18360335525E-01 0.  0.
         14    1    1    2    0    0 -0.14824484585E-01 -0.10668178352E-01 -0.15405916483E-01  0.23893882800E-01  0.00000000000E+00 0. -1.
     999901    1    3    3    0    0  0.14529222380E-01 -0.11160041943E+00  0.58518941966E-01  0.88909516841E+00  0.88000000000E+00 0. -1.
        -11    1    4    4    0    0  0.43247889163E-02  0.99174464541E-01 -0.28376489896E-01  0.10324613560E+00  0.51100000000E-03 0.  1.
         11    1    4    4    0    0 -0.40295267113E-02  0.23094133241E-01 -0.14736535586E-01  0.27694813192E-01  0.51100000000E-03 0. -1.
</event>
<event>
 8    1  0.1101883E+005  0.1043930E+01  0.7957747E-01            NaN
         13   -1    0    0    0    0  0.00000000000E+00  0.00000000000E+00  0.74505805969E-08  0.10566000000E+00  0.10566000000E+00 0. -1.
     999900   -1    0    0    0    0 -0.00000000000E+00 -0.00000000000E+00 -0.74505805969E-08  0.93827000000E+00  0.93827000000E+00 0. -1.
     999902    2    1    2    0    0  0.20770136469E-01  0.14575917979E-01  0.52654052603E-02  0.10180151308E+01  0.10176852294E+01 0.  0.
     999903    2    3    3    0    0 -0.63525396658E-01 -0.26882658817E-01 -0.10413443535E+00  0.12627925306E+00  0.18555747396E-01 0.  0.
         14    1    1    2    0    0 -0.20770136469E-01 -0.14575917979E-01 -0.52654052603E-02  0.25914869215E-01  0.00000000000E+00 0.  1.
     999901    1    3    3    0    0  0.84295533127E-01  0.41458576795E-01  0.10939984061E+00  0.89173587772E+00  0.88000000000E+00 0.  1.
        -11    1    4    4    0    0 -0.19120700789E-01 -0.36894998481E-03 -0.35650260088E-01  0.40459108839E-01  0.51100000000E-03 0.  1.
         11    1    4    4    0    0 -0.44404695869E-01 -0.26513708832E-01 -0.68484175267E-01  0.85820144221E-01  0.51100000000E-03 0. -1.
</event>
<event>
 8    1  0.1101883E+005  0.1043930E+01  0.7957747E-01            NaN
         13   -1    0    0    0    0  0.00000000000E+00  0.00000000000E+00  0.74505805969E-08  0.10566000000E+00  0.10566000000E+00 0.  1.
     999900   -1    0    0    0    0 -0.00000000000E+00 -0.00000000000E+00 -0.74505805969E-08  0.93827000000E+00  0.93827000000E+00 0. -1.
     999902    2    1    2    0    0  0.20202523624E-02 -0.17879843725E-01 -0.14487061417E-01  0.10208292385E+01  0.10205678268E+01 0.  0.
     999903    2    3    3    0    0  0.82924407566E-01  0.10681318124E-01  0.96908413944E-01  0.12966697822E+00  0.20778272811E-01 0.  0.
         14    1    1    2    0    0 -0.20202523624E-02  0.17879843725E-01  0.14487061417E-01  0.23100761453E-01  0.00000000000E+00 0.  1.
     999901    1    3    3    0    0 -0.80904155204E-01 -0.28561161849E-01 -0.11139547536E+00  0.89116226032E+00  0.88000000000E+00 0. -1.
        -11    1    4    4    0    0  0.47636936479E-01  0.72927362356E-02  0.40063340516E-01  0.62672115756E-01  0.51100000000E-03 0. -1.
         11    1    4    4    0    0  0.35287471087E-01  0.33885818882E-02  0.56845073428E-01  0.66994862467E-01  0.51100000000E-03 0.  1.
</event>
<event>
 8    1  0.1101883E+005  0.1043930E+01  0.7957747E-01            NaN
         13   -1    0    0    0    0  0.00000000000E+00  0.00000000000E+00  0.74505805969E-08  0.10566000000E+00  0.10566000000E+00 0.  1.
     999900   -1    0    0    0    0 -0.00000000000E+00 -0.00000000000E+00 -0.74505805969E-08  0.93827000000E+00  0.93827000000E+00 0. -1.
     999902    2    1    2    0    0  0.17723770759E-02 -0.35215515773E-02  0.23912010675E-01  0.10196951717E+01  0.10194071397E+01 0.  0.
     999903    2    3    3    0    0  0.11416742148E+00  0.39884765886E-02  0.62348415959E-01  0.13168255709E+00  0.20071442317E-01 0.  0.
         14    1    1    2    0    0 -0.17723770759E-02  0.35215515773E-02 -0.23912010675E-01  0.24234828255E-01  0.00000000000E+00 0. -1.
     999901    1    3    3    0    0 -0.11239504441E+00 -0.75100281658E-02 -0.38436405284E-01  0.88801261465E+00  0.88000000000E+00 0. -1.
        -11    1    4    4    0    0  0.58821378338E-01 -0.70542387041E-02  0.36678218620E-01  0.69679765179E-01  0.51100000000E-03 0. -1.
         11    1    4    4    0    0  0.55346043144E-01  0.11042715293E-01  0.25670197339E-01  0.62002791914E-01  0.51100000000E-03 0.  1.
</event>
<event>
 8    1  0.1101883E+005  0.1043930E+01  0.7957747E-01            NaN
         13   -1    0    0    0    0  0.00000000000E+00  0.00000000000E+00  0.74505805969E-08  0.10566000000E+00  0.10566000000E+00 0. -1.
     999900   -1    0    0    0    0 -0.00000000000E+00 -0.00000000000E+00 -0.74505805969E-08  0.93827000000E+00  0.93827000000E+00 0. -1.
     999902    2    1    2    0    0  0.67542220511E-02 -0.49510315163E-02 -0.20894987085E-01  0.10214192756E+01  0.10211711922E+01 0.  0.
     999903    2    3    3    0    0  0.10219022359E+00  0.65909001359E-01 -0.49967545999E-01  0.13295183761E+00  0.19814066050E-01 0.  0.
         14    1    1    2    0    0 -0.67542220511E-02  0.49510315163E-02  0.20894987085E-01  0.22510724420E-01  0.00000000000E+00 0. -1.
     999901    1    3    3    0    0 -0.95436001540E-01 -0.70860032875E-01  0.29072558914E-01  0.88846743797E+00  0.88000000000E+00 0. -1.
        -11    1    4    4    0    0  0.63799371319E-01  0.45029898241E-01 -0.41503533658E-01  0.88435603370E-01  0.51100000000E-03 0.  1.
         11    1    4    4    0    0  0.38390852272E-01  0.20879103118E-01 -0.84640123419E-02  0.44516234242E-01  0.51100000000E-03 0. -1.
</event>
<event>
 8    1  0.1101883E+005  0.1043930E+01  0.7957747E-01            NaN
         13   -1    0    0    0    0  0.00000000000E+00  0.00000000000E+00  0.74505805969E-08  0.10566000000E+00  0.10566000000E+00 0.  1.
     999900   -1    0    0    0    0 -0.00000000000E+00 -0.00000000000E+00 -0.74505805969E-08  0.93827000000E+00  0.93827000000E+00 0.  1.
     999902    2    1    2    0    0  0.45796251525E-02  0.16871099816E-01 -0.16593785083E-01  0.10198268741E+01  0.10195420013E+01 0.  0.
     999903    2    3    3    0    0  0.45667267281E-01 -0.48951506328E-01 -0.11121288774E+00  0.13135988854E+00  0.20133669465E-01 0.  0.
         14    1    1    2    0    0 -0.45796251525E-02 -0.16871099816E-01  0.16593785083E-01  0.24103125915E-01  0.00000000000E+00 0.  1.
     999901    1    3    3    0    0 -0.41087642129E-01  0.65822606144E-01  0.94619102653E-01  0.88846698554E+00  0.88000000000E+00 0. -1.
        -11    1    4    4    0    0  0.26722417386E-01 -0.16932958293E-01 -0.62609881563E-01  0.70150346099E-01  0.51100000000E-03 0.  1.
         11    1    4    4    0    0  0.18944849895E-01 -0.32018548035E-01 -0.48603006172E-01  0.61209542441E-01  0.51100000000E-03 0. -1.
</event>
<event>
 8    1  0.1101883E+005  0.1043930E+01  0.7957747E-01            NaN
         13   -1    0    0    0    0  0.00000000000E+00  0.00000000000E+00  0.74505805969E-08  0.10566000000E+00  0.10566000000E+00 0. -1.
     999900   -1    0    0    0    0 -0.00000000000E+00 -0.00000000000E+00 -0.74505805969E-08  0.93827000000E+00  0.93827000000E+00 0. -1.
     999902    2    1    2    0    0  0.24945094967E-01  0.86586194458E-02 -0.74386990048E-02  0.10164971056E+01  0.10161268631E+01 0.  0.
     999903    2    3    3    0    0 -0.11198418671E+00 -0.26262931937E-01  0.41506956878E-01  0.12388026719E+00  0.19831627847E-01 0.  0.
         14    1    1    2    0    0 -0.24945094967E-01 -0.86586194458E-02  0.74386990048E-02  0.27432894424E-01  0.00000000000E+00 0. -1.
     999901    1    3    3    0    0  0.13692928168E+00  0.34921551383E-01 -0.48945655883E-01  0.89261683838E+00  0.88000000000E+00 0. -1.
        -11    1    4    4    0    0 -0.10582601682E+00 -0.28033667882E-01  0.35518538178E-01  0.11509500443E+00  0.51100000000E-03 0.  1.
         11    1    4    4    0    0 -0.61581698982E-02  0.17707359444E-02  0.59884186998E-02  0.87852627624E-02  0.51100000000E-03 0. -1.
</event>
<event>
 8    1  0.1101883E+005  0.1043930E+01  0.7957747E-01            NaN
         13   -1    0    0    0    0  0.00000000000E+00  0.00000000000E+00  0.74505805969E-08  0.10566000000E+00  0.10566000000E+00 0. -1.
     999900   -1    0    0    0    0 -0.00000000000E+00 -0.00000000000E+00 -0.74505805969E-08  0.93827000000E+00  0.93827000000E+00 0. -1.
     999902    2    1    2    0    0 -0.43266615152E-02 -0.25163279614E-02 -0.22671070614E-01  0.10207129944E+01  0.10204489147E+01 0.  0.
     999903    2    3    3    0    0  0.81618363477E-01 -0.55719241694E-01 -0.86166630057E-01  0.13265399669E+00  0.20154492046E-01 0.  0.
         14    1    1    2    0    0  0.43266615152E-02  0.25163279614E-02  0.22671070614E-01  0.23217005601E-01  0.00000000000E+00 0. -1.
     999901    1    3    3    0    0 -0.85945024992E-01  0.53202913732E-01  0.63495559443E-01  0.88805899771E+00  0.88000000000E+00 0. -1.
        -11    1    4    4    0    0  0.53399509016E-01 -0.42962216312E-01 -0.48888779910E-01  0.84188084166E-01  0.51100000000E-03 0.  1.
         11    1    4    4    0    0  0.28218854462E-01 -0.12757025382E-01 -0.37277850148E-01  0.48465912520E-01  0.51100000000E-03 0. -1.
</event>
<event>
 8    1  0.1101883E+005  0.1043930E+01  0.7957747E-01            NaN
         13   -1    0    0    0    0  0.00000000000E+00  0.00000000000E+00  0.74505805969E-08  0.10566000000E+00  0.10566000000E+00 0.  1.
     999900   -1    0    0    0    0 -0.00000000000E+00 -0.00000000000E+00 -0.74505805969E-08  0.93827000000E+00  0.93827000000E+00 0.  1.
     999902    2    1    2    0    0  0.28359179339E-02 -0.74926298226E-02 -0.21912037217E-01  0.10205993483E+01  0.10203326470E+01 0.  0.
     999903    2    3    3    0    0  0.11087621568E+00  0.60105910375E-01 -0.30833163462E-01  0.13137392412E+00  0.20054134350E-01 0.  0.
         14    1    1    2    0    0 -0.28359179339E-02  0.74926298226E-02  0.21912037217E-01  0.23330651667E-01  0.00000000000E+00 0.  1.
     999901    1    3    3    0    0 -0.10804029774E+00 -0.67598540198E-01  0.89211262447E-02  0.88922542421E+00  0.88000000000E+00 0.  1.
        -11    1    4    4    0    0 -0.81194097948E-03  0.49535929698E-03 -0.35241466912E-04  0.10802740154E-02  0.51100000000E-03 0. -1.
         11    1    4    4    0    0  0.11168815666E+00  0.59610551078E-01 -0.30797921995E-01  0.13029365010E+00  0.51100000000E-03 0.  1.
</event>
<event>
 8    1  0.1101883E+005  0.1043930E+01  0.7957747E-01            NaN
         13   -1    0    0    0    0  0.00000000000E+00  0.00000000000E+00  0.74505805969E-08  0.10566000000E+00  0.10566000000E+00 0. -1.
     999900   -1    0    0    0    0 -0.00000000000E+00 -0.00000000000E+00 -0.74505805969E-08  0.93827000000E+00  0.93827000000E+00 0. -1.
     999902    2    1    2    0    0  0.75497797351E-02  0.10127075496E-01  0.19050439702E-01  0.10210722642E+01  0.10208163854E+01 0.  0.
     999903    2    3    3    0    0 -0.26165234890E-01  0.11901699923E+00 -0.45009857316E-01  0.13141084584E+00  0.19830721782E-01 0.  0.
         14    1    1    2    0    0 -0.75497797351E-02 -0.10127075496E-01 -0.19050439702E-01  0.22857735780E-01  0.00000000000E+00 0.  1.
     999901    1    3    3    0    0  0.33715014625E-01 -0.10888992373E+00  0.64060297018E-01  0.88966141838E+00  0.88000000000E+00 0.  1.
        -11    1    4    4    0    0 -0.28940481547E-02  0.28015398410E-01 -0.24134270449E-02  0.28272315326E-01  0.51100000000E-03 0. -1.
         11    1    4    4    0    0 -0.23271186735E-01  0.91001600818E-01 -0.42596430271E-01  0.10313853051E+00  0.51100000000E-03 0.  1.
</event>
<event>
 8    1  0.1101883E+005  0.1043930E+01  0.7957747E-01            NaN
         13   -1    0    0    0    0  0.00000000000E+00  0.00000000000E+00  0.74505805969E-08  0.10566000000E+00  0.10566000000E+00 0. -1.
     999900   -1    0    0    0    0 -0.00000000000E+00 -0.00000000000E+00 -0.74505805969E-08  0.93827000000E+00  0.93827000000E+00 0. -1.
     999902    2    1    2    0    0 -0.30412575384E-02  0.19803454029E-01  0.13381223181E-01  0.10198367816E+01  0.10195521458E+01 0.  0.
     999903    2    3    3    0    0  0.73589675899E-01 -0.80409793156E-01 -0.63054946437E-01  0.12756020851E+00  0.20359402985E-01 0.  0.
         14    1    1    2    0    0  0.30412575384E-02 -0.19803454029E-01 -0.13381223181E-01  0.24093218397E-01  0.00000000000E+00 0.  1.
     999901    1    3    3    0    0 -0.76630933437E-01  0.10021324719E+00  0.76436169618E-01  0.89227657310E+00  0.88000000000E+00 0.  1.
        -11    1    4    4    0    0  0.35104394964E-01 -0.38748879324E-01 -0.18606740149E-01  0.55500144996E-01  0.51100000000E-03 0.  1.
         11    1    4    4    0    0  0.38485280935E-01 -0.41660913832E-01 -0.44448206288E-01  0.72060063511E-01  0.51100000000E-03 0. -1.
</event>
<event>
 8    1  0.1101883E+005  0.1043930E+01  0.7957747E-01            NaN
         13   -1    0    0    0    0  0.00000000000E+00  0.00000000000E+00  0.74505805969E-08  0.10566000000E+00  0.10566000000E+00 0. -1.
     999900   -1    0    0    0    0 -0.00000000000E+00 -0.00000000000E+00 -0.74505805969E-08  0.93827000000E+00  0.93827000000E+00 0. -1.
     999902    2    1    2    0    0  0.13917628620E-01 -0.23977212418E-03 -0.18987560943E-01  0.10203867346E+01  0.10201150929E+01 0.  0.
     999903    2    3    3    0    0 -0.72675843939E-01  0.72675028121E-01 -0.78796173697E-01  0.13112183154E+00  0.20509990540E-01 0.  0.
         14    1    1    2    0    0 -0.13917628620E-01  0.23977212418E-03  0.18987560943E-01  0.23543265442E-01  0.00000000000E+00 0. -1.
     999901    1    3    3    0    0  0.86593472560E-01 -0.72914800245E-01  0.59808612754E-01  0.88926490302E+00  0.88000000000E+00 0.  1.
        -11    1    4    4    0    0 -0.44470136466E-01  0.56626622679E-01 -0.49283650913E-01  0.87254265235E-01  0.51100000000E-03 0. -1.
         11    1    4    4    0    0 -0.28205707473E-01  0.16048405441E-01 -0.29512522784E-01  0.43867566303E-01  0.51100000000E-03 0.  1.
</event>
<event>
 8    1  0.1101883E+005  0.1043930E+01  0.7957747E-01            NaN
         13   -1    0    0    0    0  0.00000000000E+00  0.00000000000E+00  0.74505805969E-08  0.10566000000E+00  0.10566000000E+00 0. -1.
     999900   -1    0    0    0    0 -0.00000000000E+00 -0.00000000000E+00 -0.74505805969E-08  0.93827000000E+00  0.93827000000E+00 0. -1.
     999902    2    1    2    0    0 -0.76830494489E-02  0.35744036458E-02 -0.23504736589E-01  0.10189444391E+01  0.10186380573E+01 0.  0.
     999903    2    3    3    0    0  0.18704942444E-01 -0.12219050698E+00  0.27241154171E-01  0.12816484557E+00  0.20093588290E-01 0.  0.
         14    1    1    2    0    0  0.76830494489E-02 -0.35744036458E-02  0.23504736589E-01  0.24985560878E-01  0.00000000000E+00 0. -1.
     999901    1    3    3    0    0 -0.26387991893E-01  0.12576491063E+00 -0.50745890760E-01  0.89077959355E+00  0.88000000000E+00 0. -1.
        -11    1    4    4    0    0 -0.12637519329E-02 -0.57817057009E-01  0.12924839415E-01  0.59259781851E-01  0.51100000000E-03 0. -1.
         11    1    4    4    0    0  0.19968694377E-01 -0.64373449974E-01  0.14316314756E-01  0.68905063718E-01  0.51100000000E-03 0.  1.
</event>
<event>
 8    1  0.1101883E+005  0.1043930E+01  0.7957747E-01            NaN
         13   -1    0    0    0    0  0.00000000000E+00  0.00000000000E+00  0.74505805969E-08  0.10566000000E+00  0.10566000000E+00 0.  1.
     999900   -1    0    0    0    0 -0.00000000000E+00 -0.00000000000E+00 -0.74505805969E-08  0.93827000000E+00  0.93827000000E+00 0. -1.
     999902    2    1    2    0    0 -0.16193908872E-01 -0.87328448428E-02 -0.12062296632E-01  0.10219299031E+01  0.10216930667E+01 0.  0.
     999903    2    3    3    0    0 -0.49762492999E-01  0.15112175864E-02 -0.12319887962E+00  0.13424576404E+00  0.19114699439E-01 0.  0.
         14    1    1    2    0    0  0.16193908872E-01  0.87328448428E-02  0.12062296632E-01  0.22000096901E-01  0.00000000000E+00 0.  1.
     999901    1    3    3    0    0  0.33568584127E-01 -0.10244062429E-01  0.11113658299E+00  0.88768413906E+00  0.88000000000E+00 0.  1.
        -11    1    4    4    0    0 -0.34319744894E-01 -0.10371439850E-05 -0.59576400335E-01  0.68756479611E-01  0.51100000000E-03 0. -1.
         11    1    4    4    0    0 -0.15442748105E-01  0.15122547304E-02 -0.63622479289E-01  0.65489284431E-01  0.51100000000E-03 0.  1.
</event>
<event>
 8    1  0.1101883E+005  0.1043930E+01  0.7957747E-01            NaN
         13   -1    0    0    0    0  0.00000000000E+00  0.00000000000E+00  0.74505805969E-08  0.10566000000E+00  0.10566000000E+00 0. -1.
     999900   -1    0    0    0    0 -0.00000000000E+00 -0.00000000000E+00 -0.74505805969E-08  0.93827000000E+00  0.93827000000E+00 0. -1.
     999902    2    1    2    0    0  0.21746780894E-01 -0.94020885806E-02  0.11903572622E-03  0.10202374713E+01  0.10199623335E+01 0.  0.
     999903    2    3    3    0    0 -0.48874084178E-01 -0.26072660391E-01 -0.11543584825E+00  0.12972180842E+00  0.20829133310E-01 0.  0.
         14    1    1    2    0    0 -0.21746780894E-01  0.94020885806E-02 -0.11903572622E-03  0.23692528747E-01  0.00000000000E+00 0.  1.
     999901    1    3    3    0    0  0.70620865073E-01  0.16670571810E-01  0.11555488397E+00  0.89051566284E+00  0.88000000000E+00 0.  1.
        -11    1    4    4    0    0 -0.19102642787E-01 -0.78133383112E-02 -0.66274161802E-01  0.69415307105E-01  0.51100000000E-03 0. -1.
         11    1    4    4    0    0 -0.29771441391E-01 -0.18259322080E-01 -0.49161686443E-01  0.60306501310E-01  0.51100000000E-03 0.  1.
</event>
<event>
 8    1  0.1101883E+005  0.1043930E+01  0.7957747E-01            NaN
         13   -1    0    0    0    0  0.00000000000E+00  0.00000000000E+00  0.74505805969E-08  0.10566000000E+00  0.10566000000E+00 0. -1.
     999900   -1    0    0    0    0 -0.00000000000E+00 -0.00000000000E+00 -0.74505805969E-08  0.93827000000E+00  0.93827000000E+00 0. -1.
     999902    2    1    2    0    0  0.20068256990E-01  0.96166153600E-02 -0.49216544647E-02  0.10211388414E+01  0.10208844677E+01 0.  0.
     999903    2    3    3    0    0 -0.39110510134E-01 -0.74297518987E-01  0.95752705788E-01  0.12946679669E+00  0.23309170941E-01 0.  0.
         14    1    1    2    0    0 -0.20068256990E-01 -0.96166153600E-02  0.49216544647E-02  0.22791158643E-01  0.00000000000E+00 0. -1.
     999901    1    3    3    0    0  0.59178767124E-01  0.83914134347E-01 -0.10067436025E+00  0.89167204466E+00  0.88000000000E+00 0. -1.
        -11    1    4    4    0    0 -0.39779640623E-01 -0.57336031341E-01  0.72026501339E-01  0.10028917346E+00  0.51100000000E-03 0.  1.
         11    1    4    4    0    0  0.66913048890E-03 -0.16961487646E-01  0.23726204450E-01  0.29177623230E-01  0.51100000000E-03 0. -1.
</event>
<event>
 8    1  0.1101883E+005  0.1043930E+01  0.7957747E-01            NaN
         13   -1    0    0    0    0  0.00000000000E+00  0.00000000000E+00  0.74505805969E-08  0.10566000000E+00  0.10566000000E+00 0.  1.
     999900   -1    0    0    0    0 -0.00000000000E+00 -0.00000000000E+00 -0.74505805969E-08  0.93827000000E+00  0.93827000000E+00 0.  1.
     999902    2    1    2    0    0 -0.10690407797E-01  0.15645569040E-01 -0.14482815564E-01  0.10200800399E+01  0.10198011901E+01 0.  0.
     999903    2    3    3    0    0 -0.45645117378E-01  0.32148009150E-01  0.11594063990E+00  0.12962822202E+00  0.15629226824E-01 0.  0.
         14    1    1    2    0    0  0.10690407797E-01 -0.15645569040E-01  0.14482815564E-01  0.23849960086E-01  0.00000000000E+00 0.  1.
     999901    1    3    3    0    0  0.34954709581E-01 -0.16502440109E-01 -0.13042345546E+00  0.89045181789E+00  0.88000000000E+00 0.  1.
        -11    1    4    4    0    0 -0.18246627634E-01  0.16569239577E-01  0.67235054550E-01  0.71612099547E-01  0.51100000000E-03 0.  1.
         11    1    4    4    0    0 -0.27398489743E-01  0.15578769573E-01  0.48705585352E-01  0.58016122475E-01  0.51100000000E-03 0. -1.
</event>
<event>
 8    1  0.1101883E+005  0.1043930E+01  0.7957747E-01            NaN
         13   -1    0    0    0    0  0.00000000000E+00  0.00000000000E+00  0.74505805969E-08  0.10566000000E+00  0.10566000000E+00 0.  1.
     999900   -1    0    0    0    0 -0.00000000000E+00 -0.00000000000E+00 -0.74505805969E-08  0.93827000000E+00  0.93827000000E+00 0. -1.
     999902    2    1    2    0    0 -0.10058550113E-01  0.21270844392E-01  0.10132499082E-03  0.10204005819E+01  0.10201292633E+01 0.  0.
     999903    2    3    3    0    0 -0.74630871657E-04  0.12423746921E+00  0.42088939153E-01  0.13334660142E+00  0.23976717531E-01 0.  0.
         14    1    1    2    0    0  0.10058550113E-01 -0.21270844392E-01 -0.10132499082E-03  0.23529418145E-01  0.00000000000E+00 0. -1.
     999901    1    3    3    0    0 -0.99839192412E-02 -0.10296662482E+00 -0.41987614162E-01  0.88705398044E+00  0.88000000000E+00 0. -1.
        -11    1    4    4    0    0 -0.18608595317E-02  0.28518582360E-01  0.20584186674E-01  0.35224170679E-01  0.51100000000E-03 0.  1.
         11    1    4    4    0    0  0.17862286601E-02  0.95718886854E-01  0.21504752479E-01  0.98122430736E-01  0.51100000000E-03 0. -1.
</event>
<event>
 8    1  0.1101883E+005  0.1043930E+01  0.7957747E-01            NaN
         13   -1    0    0    0    0  0.00000000000E+00  0.00000000000E+00  0.74505805969E-08  0.10566000000E+00  0.10566000000E+00 0.  1.
     999900   -1    0    0    0    0 -0.00000000000E+00 -0.00000000000E+00 -0.74505805969E-08  0.93827000000E+00  0.93827000000E+00 0. -1.
     999902    2    1    2    0    0 -0.21674453985E-01  0.94825855828E-02  0.44382111114E-02  0.10198592895E+01  0.10195751916E+01 0.  0.
     999903    2    3    3    0    0 -0.14405262122E-01  0.27328162837E-01  0.12593961007E+00  0.13130209062E+00  0.20618282062E-01 0.  0.
         14    1    1    2    0    0  0.21674453985E-01 -0.94825855828E-02 -0.44382111114E-02  0.24070710475E-01  0.00000000000E+00 0.  1.
     999901    1    3    3    0    0 -0.72691918636E-02 -0.17845577254E-01 -0.12150139896E+00  0.88855719891E+00  0.88000000000E+00 0. -1.
        -11    1    4    4    0    0  0.44935146192E-02  0.95130696355E-03  0.18481000454E-01  0.19050069747E-01  0.51100000000E-03 0.  1.
         11    1    4    4    0    0 -0.18898776741E-01  0.26376855874E-01  0.10745860962E+00  0.11225202087E+00  0.51100000000E-03 0. -1.
</event>
<event>
 8    1  0.1101883E+005  0.1043930E+01  0.7957747E-01            NaN
         13   -1    0    0    0    0  0.00000000000E+00  0.00000000000E+00  0.74505805969E-08  0.10566000000E+00  0.10566000000E+00 0. -1.
     999900   -1    0    0    0    0 -0.00000000000E+00 -0.00000000000E+00 -0.74505805969E-08  0.93827000000E+00  0.93827000000E+00 0.  1.
     999902    2    1    2    0    0  0.20366265072E-01 -0.54659281936E-02 -0.92494384694E-02  0.10209036404E+01  0.10206439290E+01 0.  0.
     999903    2    3    3    0    0  0.72284407842E-01 -0.55980034650E-01 -0.95524372396E-01  0.13372241162E+00  0.19949379693E-01 0.  0.
         14    1    1    2    0    0 -0.20366265072E-01  0.54659281936E-02  0.92494384694E-02  0.23026359590E-01  0.00000000000E+00 0. -1.
     999901    1    3    3    0    0 -0.51918142771E-01  0.50514106457E-01  0.86274933927E-01  0.88718122879E+00  0.88000000000E+00 0. -1.
        -11    1    4    4    0    0  0.51520906413E-01 -0.28934464010E-01 -0.66304741073E-01  0.88815464953E-01  0.51100000000E-03 0. -1.
         11    1    4    4    0    0  0.20763501430E-01 -0.27045570641E-01 -0.29219631323E-01  0.44906946663E-01  0.51100000000E-03 0.  1.
</event>
<event>
 8    1  0.1101883E+005  0.1043930E+01  0.7957747E-01            NaN
         13   -1    0    0    0    0  0.00000000000E+00  0.00000000000E+00  0.74505805969E-08  0.10566000000E+00  0.10566000000E+00 0.  1.
     999900   -1    0    0    0    0 -0.00000000000E+00 -0.00000000000E+00 -0.74505805969E-08  0.93827000000E+00  0.93827000000E+00 0. -1.
     999902    2    1    2    0    0  0.17616586494E-01  0.14699677506E-01  0.40605880248E-02  0.10206295062E+01  0.10203635018E+01 0.  0.
     999903    2    3    3    0    0  0.22780364958E-01 -0.76873814328E-01  0.10114615123E+00  0.13055199515E+00  0.19615075117E-01 0.  0.
         14    1    1    2    0    0 -0.17616586494E-01 -0.14699677506E-01 -0.40605880248E-02  0.23300493848E-01  0.00000000000E+00 0.  1.
     999901    1    3    3    0    0 -0.51637784642E-02  0.91573491834E-01 -0.97085563202E-01  0.89007751101E+00  0.88000000000E+00 0.  1.
        -11    1    4    4    0    0  0.22459053094E-01 -0.75028406655E-01  0.90296022128E-01  0.11952950934E+00  0.51100000000E-03 0. -1.
         11    1    4    4    0    0  0.32131186420E-03 -0.18454076729E-02  0.10850129099E-01  0.11022485802E-01  0.51100000000E-03 0.  1.
</event>
<event>
 8    1  0.1101883E+005  0.1043930E+01  0.7957747E-01            NaN
         13   -1    0    0    0    0  0.00000000000E+00  0.00000000000E+00  0.74505805969E-08  0.10566000000E+00  0.10566000000E+00 0. -1.
     999900   -1    0    0    0    0 -0.00000000000E+00 -0.00000000000E+00 -0.74505805969E-08  0.93827000000E+00  0.93827000000E+00 0.  1.
     999902    2    1    2    0    0  0.11658681332E-01 -0.50517260255E-02 -0.21220791258E-01  0.10191960806E+01  0.10188959142E+01 0.  0.
     999903    2    3    3    0    0 -0.10713499370E+00 -0.67737682713E-01 -0.11110254632E-01  0.12894685184E+00  0.20917750979E-01 0.  0.
         14    1    1    2    0    0 -0.11658681332E-01  0.50517260255E-02  0.21220791258E-01  0.24733919379E-01  0.00000000000E+00 0. -1.
     999901    1    3    3    0    0  0.11879367504E+00  0.62685956687E-01 -0.10110536626E-01  0.89024922878E+00  0.88000000000E+00 0. -1.
        -11    1    4    4    0    0 -0.45327267607E-01 -0.32835637329E-01 -0.14705403293E-01  0.57872707510E-01  0.51100000000E-03 0. -1.
         11    1    4    4    0    0 -0.61807726098E-01 -0.34902045384E-01  0.35951486608E-02  0.71074144330E-01  0.51100000000E-03 0.  1.
</event>
<event>
 8    1  0.1101883E+005  0.1043930E+01  0.7957747E-01            NaN
         13   -1    0    0    0    0  0.00000000000E+00  0.00000000000E+00  0.74505805969E-08  0.10566000000E+00  0.10566000000E+00 0. -1.
     999900   -1    0    0    0    0 -0.00000000000E+00 -0.00000000000E+00 -0.74505805969E-08  0.93827000000E+00  0.93827000000E+00 0.  1.
     999902    2    1    2    0    0  0.30222584226E-01  0.53488244663E-02  0.13687398613E-01  0.10103240571E+01  0.10097649929E+01 0.  0.
     999903    2    3    3    0    0 -0.31669580419E-03 -0.71280741574E-02  0.12192998733E+00  0.12307844358E+00  0.15181295273E-01 0.  0.
         14    1    1    2    0    0 -0.30222584226E-01 -0.53488244663E-02 -0.13687398613E-01  0.33605942946E-01  0.00000000000E+00 0.  1.
     999901    1    3    3    0    0  0.30539280030E-01  0.12476898624E-01 -0.10824258871E+00  0.88724561348E+00  0.88000000000E+00 0.  1.
        -11    1    4    4    0    0 -0.97460520630E-03  0.44409571508E-02  0.21536229452E-01  0.22016862986E-01  0.51100000000E-03 0. -1.
         11    1    4    4    0    0  0.65790940212E-03 -0.11569031308E-01  0.10039375788E+00  0.10106158059E+00  0.51100000000E-03 0.  1.
</event>
<event>
 8    1  0.1101883E+005  0.1043930E+01  0.7957747E-01            NaN
         13   -1    0    0    0    0  0.00000000000E+00  0.00000000000E+00  0.74505805969E-08  0.10566000000E+00  0.10566000000E+00 0.  1.
     999900   -1    0    0    0    0 -0.00000000000E+00 -0.00000000000E+00 -0.74505805969E-08  0.93827000000E+00  0.93827000000E+00 0.  1.
     999902    2    1    2    0    0  0.10348737797E-01  0.19717879071E-01  0.57345081912E-02  0.10209348763E+01  0.10206758770E+01 0.  0.
     999903    2    3    3    0    0  0.67947703380E-01  0.74315995290E-01 -0.84005538700E-01  0.13281783946E+00  0.21068706580E-01 0.  0.
         14    1    1    2    0    0 -0.10348737797E-01 -0.19717879071E-01 -0.57345081912E-02  0.22995123684E-01  0.00000000000E+00 0. -1.
     999901    1    3    3    0    0 -0.57598965583E-01 -0.54598116220E-01  0.89740046891E-01  0.88811703685E+00  0.88000000000E+00 0. -1.
        -11    1    4    4    0    0  0.54104715398E-01  0.53823942935E-01 -0.73458975724E-01  0.10592836871E+00  0.51100000000E-03 0. -1.
         11    1    4    4    0    0  0.13842987982E-01  0.20492052356E-01 -0.10546562976E-01  0.26889470757E-01  0.51100000000E-03 0.  1.
</event>
<event>
 8    1  0.1101883E+005  0.1043930E+01  0.7957747E-01            NaN
         13   -1    0    0    0    0  0.00000000000E+00  0.00000000000E+00  0.74505805969E-08  0.10566000000E+00  0.10566000000E+00 0. -1.
     999900   -1    0    0    0    0 -0.00000000000E+00 -0.00000000000E+00 -0.74505805969E-08  0.93827000000E+00  0.93827000000E+00 0. -1.
     999902    2    1    2    0    0  0.16892861720E-01 -0.44105543336E-02 -0.92375445237E-02  0.10241776838E+01  0.10239871943E+01 0.  0.
     999903    2    3    3    0    0 -0.17962882270E-01  0.26011297669E-01  0.12705746069E+00  0.13248449642E+00  0.20230934959E-01 0.  0.
         14    1    1    2    0    0 -0.16892861720E-01  0.44105543336E-02  0.92375445237E-02  0.19752316204E-01  0.00000000000E+00 0.  1.
     999901    1    3    3    0    0  0.34855743989E-01 -0.30421852002E-01 -0.13629500521E+00  0.89169318738E+00  0.88000000000E+00 0. -1.
        -11    1    4    4    0    0 -0.21126981244E-01  0.20676765573E-01  0.11682470938E+00  0.12050789109E+00  0.51100000000E-03 0. -1.
         11    1    4    4    0    0  0.31640989742E-02  0.53345320961E-02  0.10232751303E-01  0.11976605330E-01  0.51100000000E-03 0.  1.
</event>
<event>
 8    1  0.1101883E+005  0.1043930E+01  0.7957747E-01            NaN
         13   -1    0    0    0    0  0.00000000000E+00  0.00000000000E+00  0.74505805969E-08  0.10566000000E+00  0.10566000000E+00 0. -1.
     999900   -1    0    0    0    0 -0.00000000000E+00 -0.00000000000E+00 -0.74505805969E-08  0.93827000000E+00  0.93827000000E+00 0.  1.
     999902    2    1    2    0    0  0.21054439965E-01  0.57423181547E-02  0.34826391218E-02  0.10218303974E+01  0.10215913902E+01 0.  0.
     999903    2    3    3    0    0  0.46200840622E-01  0.46303704653E-01  0.11468620191E+00  0.13354902310E+00  0.20096415718E-01 0.  0.
         14    1    1    2    0    0 -0.21054439965E-01 -0.57423181547E-02 -0.34826391218E-02  0.22099602604E-01  0.00000000000E+00 0. -1.
     999901    1    3    3    0    0 -0.25146400658E-01 -0.40561386499E-01 -0.11120356279E+00  0.88828137429E+00  0.88000000000E+00 0.  1.
        -11    1    4    4    0    0  0.15832677776E-01  0.28444245564E-01  0.64198689212E-01  0.71982509048E-01  0.51100000000E-03 0.  1.
         11    1    4    4    0    0  0.30368162846E-01  0.17859459089E-01  0.50487512695E-01  0.61566514054E-01  0.51100000000E-03 0. -1.
</event>
