<event>
 8    1  0.1126414E+005  0.1043930E+01  0.7957747E-01            NaN
         13   -1    0    0    0    0  0.00000000000E+00  0.00000000000E+00  0.74505805969E-08  0.10566000000E+00  0.10566000000E+00 0. -1.
     999900   -1    0    0    0    0 -0.00000000000E+00 -0.00000000000E+00 -0.74505805969E-08  0.93827000000E+00  0.93827000000E+00 0.  1.
     999902    2    1    2    0    0 -0.13019022956E-01 -0.22642280483E-01  0.28602428772E-02  0.10176555102E+01  0.10173162678E+01 0.  0.
     999903    2    3    3    0    0  0.76858400205E-01 -0.68237729427E-02 -0.99730638932E-01  0.12700795624E+00  0.15200100214E-01 0.  0.
         14    1    1    2    0    0  0.13019022956E-01  0.22642280483E-01 -0.28602428772E-02  0.26274489786E-01  0.00000000000E+00 0.  1.
     999901    1    3    3    0    0 -0.89877423161E-01 -0.15818507540E-01  0.10259088181E+00  0.89064755398E+00  0.88000000000E+00 0. -1.
        -11    1    4    4    0    0  0.68042974590E-01 -0.10844839185E-01 -0.86098054082E-01  0.11027507863E+00  0.51100000000E-03 0.  1.
         11    1    4    4    0    0  0.88154256144E-02  0.40210662420E-02 -0.13632584849E-01  0.16732877612E-01  0.51100000000E-03 0. -1.
</event>
<event>
 8    1  0.1126414E+005  0.1043930E+01  0.7957747E-01            NaN
         13   -1    0    0    0    0  0.00000000000E+00  0.00000000000E+00  0.74505805969E-08  0.10566000000E+00  0.10566000000E+00 0.  1.
     999900   -1    0    0    0    0 -0.00000000000E+00 -0.00000000000E+00 -0.74505805969E-08  0.93827000000E+00  0.93827000000E+00 0.  1.
     999902    2    1    2    0    0 -0.19239295613E-01  0.79197981355E-02 -0.10819523320E-01  0.10204792904E+01  0.10202098050E+01 0.  0.
     999903    2    3    3    0    0  0.23584482155E-01  0.88162909667E-01 -0.92644023139E-01  0.13201540157E+00  0.22720580755E-01 0.  0.
         14    1    1    2    0    0  0.19239295613E-01 -0.79197981355E-02  0.10819523320E-01  0.23450709649E-01  0.00000000000E+00 0. -1.
     999901    1    3    3    0    0 -0.42823777768E-01 -0.80243111531E-01  0.81824499819E-01  0.88846388878E+00  0.88000000000E+00 0.  1.
        -11    1    4    4    0    0  0.13242473853E-01  0.14536340821E-01 -0.20684941913E-01  0.28544636294E-01  0.51100000000E-03 0.  1.
         11    1    4    4    0    0  0.10342008303E-01  0.73626568845E-01 -0.71959081226E-01  0.10347076528E+00  0.51100000000E-03 0. -1.
</event>
<event>
 8    1  0.1126414E+005  0.1043930E+01  0.7957747E-01            NaN
         13   -1    0    0    0    0  0.00000000000E+00  0.00000000000E+00  0.74505805969E-08  0.10566000000E+00  0.10566000000E+00 0. -1.
     999900   -1    0    0    0    0 -0.00000000000E+00 -0.00000000000E+00 -0.74505805969E-08  0.93827000000E+00  0.93827000000E+00 0.  1.
     999902    2    1    2    0    0  0.15885736215E-02  0.20429251065E-01 -0.13015623620E-01  0.10196548208E+01  0.10193658172E+01 0.  0.
     999903    2    3    3    0    0 -0.45827585123E-01  0.34194446569E-01  0.11404422261E+00  0.12915946586E+00  0.20165693004E-01 0.  0.
         14    1    1    2    0    0 -0.15885736215E-02 -0.20429251065E-01  0.13015623620E-01  0.24275179164E-01  0.00000000000E+00 0. -1.
     999901    1    3    3    0    0  0.47416158745E-01 -0.13765195504E-01 -0.12705984623E+00  0.89049535498E+00  0.88000000000E+00 0.  1.
        -11    1    4    4    0    0 -0.32639281861E-01  0.12736287225E-01  0.73517799577E-01  0.81441167160E-01  0.51100000000E-03 0.  1.
         11    1    4    4    0    0 -0.13188303262E-01  0.21458159343E-01  0.40526423036E-01  0.47718298696E-01  0.51100000000E-03 0. -1.
</event>
<event>
 8    1  0.1126414E+005  0.1043930E+01  0.7957747E-01            NaN
         13   -1    0    0    0    0  0.00000000000E+00  0.00000000000E+00  0.74505805969E-08  0.10566000000E+00  0.10566000000E+00 0. -1.
     999900   -1    0    0    0    0 -0.00000000000E+00 -0.00000000000E+00 -0.74505805969E-08  0.93827000000E+00  0.93827000000E+00 0. -1.
     999902    2    1    2    0    0 -0.73761916478E-02  0.17399675403E-01  0.14412299167E-01  0.10201629793E+01  0.10198860882E+01 0.  0.
     999903    2    3    3    0    0  0.10333779783E+00 -0.43127040871E-01  0.62528945638E-01  0.12986174793E+00  0.20385348094E-01 0.  0.
         14    1    1    2    0    0  0.73761916478E-02 -0.17399675403E-01 -0.14412299167E-01  0.23767020735E-01  0.00000000000E+00 0. -1.
     999901    1    3    3    0    0 -0.11071398948E+00  0.60526716274E-01 -0.48116646471E-01  0.89030123134E+00  0.88000000000E+00 0.  1.
        -11    1    4    4    0    0  0.79063634372E-01 -0.26897099746E-01  0.38136515643E-01  0.91810496138E-01  0.51100000000E-03 0.  1.
         11    1    4    4    0    0  0.24274163463E-01 -0.16229941124E-01  0.24392429995E-01  0.38051251791E-01  0.51100000000E-03 0. -1.
</event>
<event>
 8    1  0.1126414E+005  0.1043930E+01  0.7957747E-01            NaN
         13   -1    0    0    0    0  0.00000000000E+00  0.00000000000E+00  0.74505805969E-08  0.10566000000E+00  0.10566000000E+00 0.  1.
     999900   -1    0    0    0    0 -0.00000000000E+00 -0.00000000000E+00 -0.74505805969E-08  0.93827000000E+00  0.93827000000E+00 0. -1.
     999902    2    1    2    0    0 -0.32455801361E-02 -0.16228487081E-01 -0.17407668569E-01  0.10199107471E+01  0.10196278770E+01 0.  0.
     999903    2    3    3    0    0 -0.11717184251E+00 -0.34522223007E-01  0.40948143251E-01  0.13046189823E+00  0.20555580656E-01 0.  0.
         14    1    1    2    0    0  0.32455801361E-02  0.16228487081E-01  0.17407668569E-01  0.24019252869E-01  0.00000000000E+00 0.  1.
     999901    1    3    3    0    0  0.11392626237E+00  0.18293735926E-01 -0.58355811820E-01  0.88944884890E+00  0.88000000000E+00 0. -1.
        -11    1    4    4    0    0 -0.70027407485E-01 -0.10343585988E-01  0.25936235243E-01  0.75390828286E-01  0.51100000000E-03 0.  1.
         11    1    4    4    0    0 -0.47144435026E-01 -0.24178637019E-01  0.15011908008E-01  0.55071069947E-01  0.51100000000E-03 0. -1.
</event>
<event>
 8    1  0.1126414E+005  0.1043930E+01  0.7957747E-01            NaN
         13   -1    0    0    0    0  0.00000000000E+00  0.00000000000E+00  0.74505805969E-08  0.10566000000E+00  0.10566000000E+00 0.  1.
     999900   -1    0    0    0    0 -0.00000000000E+00 -0.00000000000E+00 -0.74505805969E-08  0.93827000000E+00  0.93827000000E+00 0.  1.
     999902    2    1    2    0    0 -0.64985505621E-02  0.22446112246E-01 -0.89228077173E-03  0.10205450630E+01  0.10202771047E+01 0.  0.
     999903    2    3    3    0    0  0.86630781729E-01 -0.44378623444E-01 -0.82650699269E-01  0.12935313257E+00  0.20657692388E-01 0.  0.
         14    1    1    2    0    0  0.64985505621E-02 -0.22446112246E-01  0.89228077173E-03  0.23384937018E-01  0.00000000000E+00 0.  1.
     999901    1    3    3    0    0 -0.93129332291E-01  0.66824735690E-01  0.81758418497E-01  0.89119193041E+00  0.88000000000E+00 0. -1.
        -11    1    4    4    0    0  0.28087177599E-01 -0.20709612955E-01 -0.40329487014E-01  0.53333912833E-01  0.51100000000E-03 0.  1.
         11    1    4    4    0    0  0.58543604130E-01 -0.23669010489E-01 -0.42321212255E-01  0.76019219739E-01  0.51100000000E-03 0. -1.
</event>
<event>
 8    1  0.1126414E+005  0.1043930E+01  0.7957747E-01            NaN
         13   -1    0    0    0    0  0.00000000000E+00  0.00000000000E+00  0.74505805969E-08  0.10566000000E+00  0.10566000000E+00 0.  1.
     999900   -1    0    0    0    0 -0.00000000000E+00 -0.00000000000E+00 -0.74505805969E-08  0.93827000000E+00  0.93827000000E+00 0. -1.
     999902    2    1    2    0    0  0.49468470014E-02  0.64374517604E-02  0.22319572320E-01  0.10201797287E+01  0.10199032324E+01 0.  0.
     999903    2    3    3    0    0 -0.18113205565E-02  0.11593313299E+00 -0.55317600986E-01  0.12997609593E+00  0.19747818266E-01 0.  0.
         14    1    1    2    0    0 -0.49468470014E-02 -0.64374517604E-02 -0.22319572320E-01  0.23750271345E-01  0.00000000000E+00 0. -1.
     999901    1    3    3    0    0  0.67581675579E-02 -0.10949568123E+00  0.77637173306E-01  0.89020363272E+00  0.88000000000E+00 0.  1.
        -11    1    4    4    0    0 -0.48002953464E-02  0.82530216404E-01 -0.48175072656E-01  0.95683740528E-01  0.51100000000E-03 0.  1.
         11    1    4    4    0    0  0.29889747899E-02  0.33402916590E-01 -0.71425283305E-02  0.34292355401E-01  0.51100000000E-03 0. -1.
</event>
<event>
 8    1  0.1126414E+005  0.1043930E+01  0.7957747E-01            NaN
         13   -1    0    0    0    0  0.00000000000E+00  0.00000000000E+00  0.74505805969E-08  0.10566000000E+00  0.10566000000E+00 0.  1.
     999900   -1    0    0    0    0 -0.00000000000E+00 -0.00000000000E+00 -0.74505805969E-08  0.93827000000E+00  0.93827000000E+00 0. -1.
     999902    2    1    2    0    0 -0.11905028968E-01 -0.25319364735E-02 -0.16461723259E-01  0.10234573658E+01  0.10232525841E+01 0.  0.
     999903    2    3    3    0    0 -0.68174896966E-01  0.10791929156E+00 -0.37497809196E-01  0.13452076026E+00  0.19883640992E-01 0.  0.
         14    1    1    2    0    0  0.11905028968E-01  0.25319364735E-02  0.16461723259E-01  0.20472634166E-01  0.00000000000E+00 0.  1.
     999901    1    3    3    0    0  0.56269867997E-01 -0.11045122803E+00  0.21036085937E-01  0.88893660557E+00  0.88000000000E+00 0.  1.
        -11    1    4    4    0    0 -0.15734042610E-01  0.40497694042E-01 -0.81813393593E-02  0.44213332314E-01  0.51100000000E-03 0. -1.
         11    1    4    4    0    0 -0.52440854356E-01  0.67421597518E-01 -0.29316469837E-01  0.90307427946E-01  0.51100000000E-03 0.  1.
</event>
<event>
 8    1  0.1126414E+005  0.1043930E+01  0.7957747E-01            NaN
         13   -1    0    0    0    0  0.00000000000E+00  0.00000000000E+00  0.74505805969E-08  0.10566000000E+00  0.10566000000E+00 0.  1.
     999900   -1    0    0    0    0 -0.00000000000E+00 -0.00000000000E+00 -0.74505805969E-08  0.93827000000E+00  0.93827000000E+00 0. -1.
     999902    2    1    2    0    0 -0.95044152250E-02 -0.15597776127E-01  0.16424491916E-01  0.10193660332E+01  0.10190700276E+01 0.  0.
     999903    2    3    3    0    0 -0.93389504044E-01  0.47120663414E-01  0.76413590015E-01  0.13112676216E+00  0.20328173267E-01 0.  0.
         14    1    1    2    0    0  0.95044152250E-02  0.15597776127E-01 -0.16424491916E-01  0.24563966772E-01  0.00000000000E+00 0. -1.
     999901    1    3    3    0    0  0.83885088819E-01 -0.62718439540E-01 -0.59989098099E-01  0.88823927107E+00  0.88000000000E+00 0. -1.
        -11    1    4    4    0    0 -0.48874518397E-01  0.13399458758E-01  0.34739298768E-01  0.61443828360E-01  0.51100000000E-03 0. -1.
         11    1    4    4    0    0 -0.44514985646E-01  0.33721204655E-01  0.41674291247E-01  0.69682933796E-01  0.51100000000E-03 0.  1.
</event>
<event>
 8    1  0.1126414E+005  0.1043930E+01  0.7957747E-01            NaN
         13   -1    0    0    0    0  0.00000000000E+00  0.00000000000E+00  0.74505805969E-08  0.10566000000E+00  0.10566000000E+00 0.  1.
     999900   -1    0    0    0    0 -0.00000000000E+00 -0.00000000000E+00 -0.74505805969E-08  0.93827000000E+00  0.93827000000E+00 0. -1.
     999902    2    1    2    0    0  0.73351303113E-02 -0.17385779770E-01  0.15606560398E-01  0.10194425705E+01  0.10191484290E+01 0.  0.
     999903    2    3    3    0    0 -0.80511523510E-01 -0.82532356394E-01 -0.56007200327E-01  0.12978553449E+00  0.20341661820E-01 0.  0.
         14    1    1    2    0    0 -0.73351303113E-02  0.17385779770E-01 -0.15606560398E-01  0.24487429476E-01  0.00000000000E+00 0. -1.
     999901    1    3    3    0    0  0.87846653821E-01  0.65146576624E-01  0.71613760724E-01  0.88965703603E+00  0.88000000000E+00 0.  1.
        -11    1    4    4    0    0 -0.18713646403E-01 -0.32610048249E-01 -0.19428006935E-01  0.42324040249E-01  0.51100000000E-03 0.  1.
         11    1    4    4    0    0 -0.61797877107E-01 -0.49922308145E-01 -0.36579193392E-01  0.87461494245E-01  0.51100000000E-03 0. -1.
</event>
<event>
 8    1  0.1126414E+005  0.1043930E+01  0.7957747E-01            NaN
         13   -1    0    0    0    0  0.00000000000E+00  0.00000000000E+00  0.74505805969E-08  0.10566000000E+00  0.10566000000E+00 0.  1.
     999900   -1    0    0    0    0 -0.00000000000E+00 -0.00000000000E+00 -0.74505805969E-08  0.93827000000E+00  0.93827000000E+00 0. -1.
     999902    2    1    2    0    0 -0.16501819549E-01 -0.26695242348E-02  0.16874178019E-01  0.10201776466E+01  0.10199011013E+01 0.  0.
     999903    2    3    3    0    0  0.97535660193E-01  0.65664518854E-01  0.48978899960E-01  0.12961333034E+00  0.23992680444E-01 0.  0.
         14    1    1    2    0    0  0.16501819549E-01  0.26695242348E-02 -0.16874178019E-01  0.23752353396E-01  0.00000000000E+00 0. -1.
     999901    1    3    3    0    0 -0.11403747974E+00 -0.68334043088E-01 -0.32104721942E-01  0.89056431626E+00  0.88000000000E+00 0. -1.
        -11    1    4    4    0    0  0.36031382077E-01  0.37051879768E-01  0.26954371904E-01  0.58291522321E-01  0.51100000000E-03 0.  1.
         11    1    4    4    0    0  0.61504278116E-01  0.28612639085E-01  0.22024528057E-01  0.71321808020E-01  0.51100000000E-03 0. -1.
</event>
<event>
 8    1  0.1126414E+005  0.1043930E+01  0.7957747E-01            NaN
         13   -1    0    0    0    0  0.00000000000E+00  0.00000000000E+00  0.74505805969E-08  0.10566000000E+00  0.10566000000E+00 0. -1.
     999900   -1    0    0    0    0 -0.00000000000E+00 -0.00000000000E+00 -0.74505805969E-08  0.93827000000E+00  0.93827000000E+00 0.  1.
     999902    2    1    2    0    0  0.15334638570E-01 -0.12024349743E-01 -0.17926970695E-01  0.10174514728E+01  0.10171068710E+01 0.  0.
     999903    2    3    3    0    0 -0.78875289124E-02 -0.12413967642E+00 -0.31825158400E-01  0.12992554347E+00  0.19872940506E-01 0.  0.
         14    1    1    2    0    0 -0.15334638570E-01  0.12024349743E-01  0.17926970695E-01  0.26478527246E-01  0.00000000000E+00 0.  1.
     999901    1    3    3    0    0  0.23222167482E-01  0.11211532667E+00  0.13898187704E-01  0.88752592929E+00  0.88000000000E+00 0. -1.
        -11    1    4    4    0    0  0.23406638122E-02 -0.85853691073E-01 -0.16641078462E-01  0.87484407704E-01  0.51100000000E-03 0. -1.
         11    1    4    4    0    0 -0.10228192725E-01 -0.38285985344E-01 -0.15184079937E-01  0.42441135761E-01  0.51100000000E-03 0.  1.
</event>
<event>
 8    1  0.1126414E+005  0.1043930E+01  0.7957747E-01            NaN
         13   -1    0    0    0    0  0.00000000000E+00  0.00000000000E+00  0.74505805969E-08  0.10566000000E+00  0.10566000000E+00 0.  1.
     999900   -1    0    0    0    0 -0.00000000000E+00 -0.00000000000E+00 -0.74505805969E-08  0.93827000000E+00  0.93827000000E+00 0. -1.
     999902    2    1    2    0    0 -0.18846379748E-01  0.97778245292E-02 -0.49350615787E-02  0.10221321397E+01  0.10218996840E+01 0.  0.
     999903    2    3    3    0    0  0.23072805753E-01  0.77137871392E-01 -0.10395889358E+00  0.13303129425E+00  0.20180885197E-01 0.  0.
         14    1    1    2    0    0  0.18846379748E-01 -0.97778245292E-02  0.49350615787E-02  0.21797860329E-01  0.00000000000E+00 0. -1.
     999901    1    3    3    0    0 -0.41919185501E-01 -0.67360046862E-01  0.99023832000E-01  0.88910084542E+00  0.88000000000E+00 0.  1.
        -11    1    4    4    0    0  0.12793461973E-01  0.14824918982E-01 -0.20307850230E-01  0.28215612594E-01  0.51100000000E-03 0. -1.
         11    1    4    4    0    0  0.10279343780E-01  0.62312952409E-01 -0.83651043349E-01  0.10481568166E+00  0.51100000000E-03 0.  1.
</event>
<event>
 8    1  0.1126414E+005  0.1043930E+01  0.7957747E-01            NaN
         13   -1    0    0    0    0  0.00000000000E+00  0.00000000000E+00  0.74505805969E-08  0.10566000000E+00  0.10566000000E+00 0. -1.
     999900   -1    0    0    0    0 -0.00000000000E+00 -0.00000000000E+00 -0.74505805969E-08  0.93827000000E+00  0.93827000000E+00 0.  1.
     999902    2    1    2    0    0 -0.40311476378E-03  0.16181808958E-01 -0.15639190991E-01  0.10214222738E+01  0.10211742573E+01 0.  0.
     999903    2    3    3    0    0 -0.27526380176E-01  0.39045016404E-01 -0.12335990497E+00  0.13414432977E+00  0.22244553142E-01 0.  0.
         14    1    1    2    0    0  0.40311476378E-03 -0.16181808958E-01  0.15639190991E-01  0.22507726174E-01  0.00000000000E+00 0. -1.
     999901    1    3    3    0    0  0.27123265412E-01 -0.22863207446E-01  0.10772071398E+00  0.88727794405E+00  0.88000000000E+00 0. -1.
        -11    1    4    4    0    0 -0.20455853529E-01  0.13338398333E-01 -0.75553581998E-01  0.79403776279E-01  0.51100000000E-03 0.  1.
         11    1    4    4    0    0 -0.70705266468E-02  0.25706618071E-01 -0.47806322973E-01  0.54740553495E-01  0.51100000000E-03 0. -1.
</event>
<event>
 8    1  0.1306923E+005  0.1043930E+01  0.7957747E-01            NaN
         13   -1    0    0    0    0  0.00000000000E+00  0.00000000000E+00  0.74505805969E-08  0.10566000000E+00  0.10566000000E+00 0.  1.
     999900   -1    0    0    0    0 -0.00000000000E+00 -0.00000000000E+00 -0.74505805969E-08  0.93827000000E+00  0.93827000000E+00 0.  1.
     999902    2    1    2    0    0  0.92185233095E-02 -0.24777027326E-01 -0.26374828238E-02  0.10173623774E+01  0.10170154219E+01 0.  0.
     999903    2    3    3    0    0 -0.87031359744E-01  0.77026216445E-01 -0.42474655714E-01  0.12538987739E+00  0.20273859385E-01 0.  0.
         14    1    1    2    0    0 -0.92185233095E-02  0.24777027326E-01  0.26374828238E-02  0.26567622603E-01  0.00000000000E+00 0.  1.
     999901    1    3    3    0    0  0.96249883053E-01 -0.10180324377E+00  0.39837172891E-01  0.89197250001E+00  0.88000000000E+00 0.  1.
        -11    1    4    4    0    0 -0.47906950263E-01  0.43696349876E-01 -0.12982029361E-01  0.66130485279E-01  0.51100000000E-03 0. -1.
         11    1    4    4    0    0 -0.39124409481E-01  0.33329866569E-01 -0.29492626353E-01  0.59259392108E-01  0.51100000000E-03 0.  1.
</event>
<event>
 8    1  0.1126414E+005  0.1043930E+01  0.7957747E-01            NaN
         13   -1    0    0    0    0  0.00000000000E+00  0.00000000000E+00  0.74505805969E-08  0.10566000000E+00  0.10566000000E+00 0. -1.
     999900   -1    0    0    0    0 -0.00000000000E+00 -0.00000000000E+00 -0.74505805969E-08  0.93827000000E+00  0.93827000000E+00 0. -1.
     999902    2    1    2    0    0 -0.14594881492E-01 -0.47994327580E-02  0.17645805203E-01  0.10205330010E+01  0.10202647630E+01 0.  0.
     999903    2    3    3    0    0  0.35887058300E-01 -0.42143338574E-01  0.11903419610E+00  0.13248874572E+00  0.17893740816E-01 0.  0.
         14    1    1    2    0    0  0.14594881492E-01  0.47994327580E-02 -0.17645805203E-01  0.23396998992E-01  0.00000000000E+00 0.  1.
     999901    1    3    3    0    0 -0.50481939792E-01  0.37343905816E-01 -0.10138839090E+00  0.88804425529E+00  0.88000000000E+00 0. -1.
        -11    1    4    4    0    0  0.28582361341E-01 -0.30261534258E-01  0.69384752460E-01  0.80914873975E-01  0.51100000000E-03 0. -1.
         11    1    4    4    0    0  0.73046969591E-02 -0.11881804315E-01  0.49649443642E-01  0.51573871742E-01  0.51100000000E-03 0.  1.
</event>
<event>
 8    1  0.1126414E+005  0.1043930E+01  0.7957747E-01            NaN
         13   -1    0    0    0    0  0.00000000000E+00  0.00000000000E+00  0.74505805969E-08  0.10566000000E+00  0.10566000000E+00 0. -1.
     999900   -1    0    0    0    0 -0.00000000000E+00 -0.00000000000E+00 -0.74505805969E-08  0.93827000000E+00  0.93827000000E+00 0.  1.
     999902    2    1    2    0    0 -0.31110703313E-02  0.17473988680E-01  0.12572480669E-01  0.10221794527E+01  0.10219480159E+01 0.  0.
     999903    2    3    3    0    0 -0.64594358784E-03  0.13214807855E+00  0.14732504922E-01  0.13473317855E+00  0.21735933242E-01 0.  0.
         14    1    1    2    0    0  0.31110703313E-02 -0.17473988680E-01 -0.12572480669E-01  0.21750547330E-01  0.00000000000E+00 0. -1.
     999901    1    3    3    0    0 -0.24651267435E-02 -0.11467408987E+00 -0.21600242522E-02  0.88744627412E+00  0.88000000000E+00 0. -1.
        -11    1    4    4    0    0 -0.89568269225E-02  0.49267911566E-01 -0.36098178028E-03  0.50079369878E-01  0.51100000000E-03 0. -1.
         11    1    4    4    0    0  0.83108833347E-02  0.82880166986E-01  0.15093486702E-01  0.84653808675E-01  0.51100000000E-03 0.  1.
</event>
<event>
 8    1  0.1126414E+005  0.1043930E+01  0.7957747E-01            NaN
         13   -1    0    0    0    0  0.00000000000E+00  0.00000000000E+00  0.74505805969E-08  0.10566000000E+00  0.10566000000E+00 0. -1.
     999900   -1    0    0    0    0 -0.00000000000E+00 -0.00000000000E+00 -0.74505805969E-08  0.93827000000E+00  0.93827000000E+00 0. -1.
     999902    2    1    2    0    0  0.67356262392E-02 -0.13521817826E-01 -0.18908072931E-01  0.10197282761E+01  0.10194410398E+01 0.  0.
     999903    2    3    3    0    0 -0.10763399609E+00  0.17430579931E-01 -0.68739274383E-01  0.13039053930E+00  0.19690166761E-01 0.  0.
         14    1    1    2    0    0 -0.67356262392E-02  0.13521817826E-01  0.18908072931E-01  0.24201723908E-01  0.00000000000E+00 0. -1.
     999901    1    3    3    0    0  0.11436962232E+00 -0.30952397757E-01  0.49831201452E-01  0.88933773679E+00  0.88000000000E+00 0.  1.
        -11    1    4    4    0    0 -0.81628864261E-01  0.10193833903E-01 -0.41895288580E-01  0.92318265020E-01  0.51100000000E-03 0. -1.
         11    1    4    4    0    0 -0.26005131825E-01  0.72367460280E-02 -0.26843985804E-01  0.38072274284E-01  0.51100000000E-03 0.  1.
</event>
<event>
 8    1  0.1126414E+005  0.1043930E+01  0.7957747E-01            NaN
         13   -1    0    0    0    0  0.00000000000E+00  0.00000000000E+00  0.74505805969E-08  0.10566000000E+00  0.10566000000E+00 0.  1.
     999900   -1    0    0    0    0 -0.00000000000E+00 -0.00000000000E+00 -0.74505805969E-08  0.93827000000E+00  0.93827000000E+00 0. -1.
     999902    2    1    2    0    0 -0.18320582852E-01 -0.12062332372E-01 -0.45966375317E-02  0.10215185588E+01  0.10212726832E+01 0.  0.
     999903    2    3    3    0    0  0.10624805871E+00 -0.72991429713E-01 -0.62309338798E-02  0.13065809149E+00  0.20403762970E-01 0.  0.
         14    1    1    2    0    0  0.18320582852E-01  0.12062332372E-01  0.45966375317E-02  0.22411441160E-01  0.00000000000E+00 0.  1.
     999901    1    3    3    0    0 -0.12456864156E+00  0.60929097341E-01  0.16342963481E-02  0.89086046735E+00  0.88000000000E+00 0. -1.
        -11    1    4    4    0    0  0.80792150795E-01 -0.50273543646E-01 -0.12463235007E-01  0.95970798521E-01  0.51100000000E-03 0.  1.
         11    1    4    4    0    0  0.25455907915E-01 -0.22717886067E-01  0.62323011275E-02  0.34687292968E-01  0.51100000000E-03 0. -1.
</event>
<event>
 8    1  0.1126414E+005  0.1043930E+01  0.7957747E-01            NaN
         13   -1    0    0    0    0  0.00000000000E+00  0.00000000000E+00  0.74505805969E-08  0.10566000000E+00  0.10566000000E+00 0. -1.
     999900   -1    0    0    0    0 -0.00000000000E+00 -0.00000000000E+00 -0.74505805969E-08  0.93827000000E+00  0.93827000000E+00 0.  1.
     999902    2    1    2    0    0  0.31917241050E-02 -0.12323407454E-01  0.19052041685E-01  0.10210163847E+01  0.10207592390E+01 0.  0.
     999903    2    3    3    0    0 -0.11888094529E+00  0.41627839673E-01 -0.11482197221E-01  0.13042960429E+00  0.31850975409E-01 0.  0.
         14    1    1    2    0    0 -0.31917241050E-02  0.12323407454E-01 -0.19052041685E-01  0.22913615306E-01  0.00000000000E+00 0.  1.
     999901    1    3    3    0    0  0.12207266939E+00 -0.53951247127E-01  0.30534238906E-01  0.89058678040E+00  0.88000000000E+00 0. -1.
        -11    1    4    4    0    0 -0.53426430171E-01  0.21350058740E-02 -0.42173403907E-02  0.53637568661E-01  0.51100000000E-03 0.  1.
         11    1    4    4    0    0 -0.65454515117E-01  0.39492833799E-01 -0.72648568300E-02  0.76792035632E-01  0.51100000000E-03 0. -1.
</event>
<event>
 8    1  0.1126414E+005  0.1043930E+01  0.7957747E-01            NaN
         13   -1    0    0    0    0  0.00000000000E+00  0.00000000000E+00  0.74505805969E-08  0.10566000000E+00  0.10566000000E+00 0.  1.
     999900   -1    0    0    0    0 -0.00000000000E+00 -0.00000000000E+00 -0.74505805969E-08  0.93827000000E+00  0.93827000000E+00 0. -1.
     999902    2    1    2    0    0  0.12945380984E-01 -0.83188064781E-02  0.19073069085E-01  0.10194235234E+01  0.10191289186E+01 0.  0.
     999903    2    3    3    0    0  0.30259354830E-01  0.65016426408E-01  0.10813406581E+00  0.13172442394E+00  0.22706462036E-01 0.  0.
         14    1    1    2    0    0 -0.12945380984E-01  0.83188064781E-02 -0.19073069085E-01  0.24506476580E-01  0.00000000000E+00 0. -1.
     999901    1    3    3    0    0 -0.17313973846E-01 -0.73335232886E-01 -0.89060996721E-01  0.88769909948E+00  0.88000000000E+00 0.  1.
        -11    1    4    4    0    0  0.14147959929E-01  0.38561698172E-01  0.42288829520E-01  0.58955708453E-01  0.51100000000E-03 0. -1.
         11    1    4    4    0    0  0.16111394901E-01  0.26454728236E-01  0.65845236286E-01  0.72768715491E-01  0.51100000000E-03 0.  1.
</event>
<event>
 8    1  0.1126414E+005  0.1043930E+01  0.7957747E-01            NaN
         13   -1    0    0    0    0  0.00000000000E+00  0.00000000000E+00  0.74505805969E-08  0.10566000000E+00  0.10566000000E+00 0.  1.
     999900   -1    0    0    0    0 -0.00000000000E+00 -0.00000000000E+00 -0.74505805969E-08  0.93827000000E+00  0.93827000000E+00 0.  1.
     999902    2    1    2    0    0  0.18757016223E-01 -0.13221870412E-01 -0.34782339517E-02  0.10207191916E+01  0.10204552545E+01 0.  0.
     999903    2    3    3    0    0  0.96750847740E-01  0.76453063095E-01  0.41625754220E-01  0.13158534274E+00  0.19395917474E-01 0.  0.
         14    1    1    2    0    0 -0.18757016223E-01  0.13221870412E-01  0.34782339517E-02  0.23210808392E-01  0.00000000000E+00 0.  1.
     999901    1    3    3    0    0 -0.77993831516E-01 -0.89674933507E-01 -0.45103988171E-01  0.88913384887E+00  0.88000000000E+00 0.  1.
        -11    1    4    4    0    0  0.99740964401E-02  0.35741562100E-02  0.82887555086E-02  0.13461863961E-01  0.51100000000E-03 0. -1.
         11    1    4    4    0    0  0.86776751299E-01  0.72878906885E-01  0.33336998711E-01  0.11812347878E+00  0.51100000000E-03 0.  1.
</event>
<event>
 8    1  0.1126414E+005  0.1043930E+01  0.7957747E-01            NaN
         13   -1    0    0    0    0  0.00000000000E+00  0.00000000000E+00  0.74505805969E-08  0.10566000000E+00  0.10566000000E+00 0. -1.
     999900   -1    0    0    0    0 -0.00000000000E+00 -0.00000000000E+00 -0.74505805969E-08  0.93827000000E+00  0.93827000000E+00 0. -1.
     999902    2    1    2    0    0 -0.39588643031E-02 -0.72318230203E-02 -0.22849530664E-01  0.10196385834E+01  0.10193491883E+01 0.  0.
     999903    2    3    3    0    0  0.85425493672E-01  0.11089057660E-01  0.91816153682E-01  0.12752119350E+00  0.20272309852E-01 0.  0.
         14    1    1    2    0    0  0.39588643031E-02  0.72318230203E-02  0.22849530664E-01  0.24291416639E-01  0.00000000000E+00 0. -1.
     999901    1    3    3    0    0 -0.89384357975E-01 -0.18320880681E-01 -0.11466568435E+00  0.89211738986E+00  0.88000000000E+00 0. -1.
        -11    1    4    4    0    0  0.56147291914E-01  0.52029867094E-02  0.45728295694E-01  0.72601154316E-01  0.51100000000E-03 0.  1.
         11    1    4    4    0    0  0.29278201758E-01  0.58860709509E-02  0.46087857988E-01  0.54920039187E-01  0.51100000000E-03 0. -1.
</event>
<event>
 8    1  0.1126414E+005  0.1043930E+01  0.7957747E-01            NaN
         13   -1    0    0    0    0  0.00000000000E+00  0.00000000000E+00  0.74505805969E-08  0.10566000000E+00  0.10566000000E+00 0.  1.
     999900   -1    0    0    0    0 -0.00000000000E+00 -0.00000000000E+00 -0.74505805969E-08  0.93827000000E+00  0.93827000000E+00 0. -1.
     999902    2    1    2    0    0 -0.97597982655E-02 -0.18860201366E-01  0.16143020043E-01  0.10172549563E+01  0.10169051520E+01 0.  0.
     999903    2    3    3    0    0 -0.23447907900E-01  0.11371025746E+00 -0.42574612385E-01  0.12528519719E+00  0.20098656136E-01 0.  0.
         14    1    1    2    0    0  0.97597982655E-02  0.18860201366E-01 -0.16143020043E-01  0.26675043652E-01  0.00000000000E+00 0. -1.
     999901    1    3    3    0    0  0.13688109635E-01 -0.13257045882E+00  0.58717632428E-01  0.89196975916E+00  0.88000000000E+00 0.  1.
        -11    1    4    4    0    0 -0.15209001036E-01  0.39160903276E-01 -0.83254265118E-02  0.42830642133E-01  0.51100000000E-03 0.  1.
         11    1    4    4    0    0 -0.82389068644E-02  0.74549354182E-01 -0.34249185873E-01  0.82454555054E-01  0.51100000000E-03 0. -1.
</event>
<event>
 8    1  0.1126414E+005  0.1043930E+01  0.7957747E-01            NaN
         13   -1    0    0    0    0  0.00000000000E+00  0.00000000000E+00  0.74505805969E-08  0.10566000000E+00  0.10566000000E+00 0. -1.
     999900   -1    0    0    0    0 -0.00000000000E+00 -0.00000000000E+00 -0.74505805969E-08  0.93827000000E+00  0.93827000000E+00 0. -1.
     999902    2    1    2    0    0 -0.99726264514E-02  0.18602065520E-01  0.12310231132E-01  0.10194957636E+01  0.10192029140E+01 0.  0.
     999903    2    3    3    0    0  0.55320996822E-01  0.17929313673E-01  0.11577771323E+00  0.13103122871E+00  0.19566068517E-01 0.  0.
         14    1    1    2    0    0  0.99726264514E-02 -0.18602065520E-01 -0.12310231132E-01  0.24434236441E-01  0.00000000000E+00 0. -1.
     999901    1    3    3    0    0 -0.65293623274E-01  0.67275184678E-03 -0.10346748210E+00  0.88846453485E+00  0.88000000000E+00 0. -1.
        -11    1    4    4    0    0  0.20961173620E-01  0.14005601757E-01  0.34784503330E-01  0.42962198186E-01  0.51100000000E-03 0. -1.
         11    1    4    4    0    0  0.34359823202E-01  0.39237119162E-02  0.80993209903E-01  0.88069030522E-01  0.51100000000E-03 0.  1.
</event>
<event>
 8    1  0.1126414E+005  0.1043930E+01  0.7957747E-01            NaN
         13   -1    0    0    0    0  0.00000000000E+00  0.00000000000E+00  0.74505805969E-08  0.10566000000E+00  0.10566000000E+00 0.  1.
     999900   -1    0    0    0    0 -0.00000000000E+00 -0.00000000000E+00 -0.74505805969E-08  0.93827000000E+00  0.93827000000E+00 0. -1.
     999902    2    1    2    0    0 -0.12059431881E-01  0.63374667812E-03 -0.21065754632E-01  0.10196483701E+01  0.10193592110E+01 0.  0.
     999903    2    3    3    0    0  0.42543502876E-02  0.82217370056E-01  0.95769342403E-01  0.12803608498E+00  0.21063633990E-01 0.  0.
         14    1    1    2    0    0  0.12059431881E-01 -0.63374667812E-03  0.21065754632E-01  0.24281629895E-01  0.00000000000E+00 0.  1.
     999901    1    3    3    0    0 -0.16313782168E-01 -0.81583623378E-01 -0.11683509703E+00  0.89161228513E+00  0.88000000000E+00 0. -1.
        -11    1    4    4    0    0 -0.37234602838E-02  0.47337356545E-01  0.66996928878E-01  0.82119054313E-01  0.51100000000E-03 0. -1.
         11    1    4    4    0    0  0.79778105713E-02  0.34880013511E-01  0.28772413525E-01  0.45917030665E-01  0.51100000000E-03 0.  1.
</event>
<event>
 8    1  0.1126414E+005  0.1043930E+01  0.7957747E-01            NaN
         13   -1    0    0    0    0  0.00000000000E+00  0.00000000000E+00  0.74505805969E-08  0.10566000000E+00  0.10566000000E+00 0. -1.
     999900   -1    0    0    0    0 -0.00000000000E+00 -0.00000000000E+00 -0.74505805969E-08  0.93827000000E+00  0.93827000000E+00 0. -1.
     999902    2    1    2    0    0  0.33401440869E-02  0.20083631699E-01  0.11922177080E-01  0.10203366295E+01  0.10200638168E+01 0.  0.
     999903    2    3    3    0    0  0.26037336145E-01  0.10358099312E+00 -0.74514519344E-01  0.13187825998E+00  0.20796558689E-01 0.  0.
         14    1    1    2    0    0 -0.33401440869E-02 -0.20083631699E-01 -0.11922177080E-01  0.23593370490E-01  0.00000000000E+00 0.  1.
     999901    1    3    3    0    0 -0.22697192059E-01 -0.83497361425E-01  0.86436696424E-01  0.88845836953E+00  0.88000000000E+00 0. -1.
        -11    1    4    4    0    0  0.24075029088E-01  0.56045848057E-01 -0.37582788679E-01  0.71648246566E-01  0.51100000000E-03 0.  1.
         11    1    4    4    0    0  0.19623070576E-02  0.47535145067E-01 -0.36931730665E-01  0.60230013419E-01  0.51100000000E-03 0. -1.
</event>
<event>
 8    1  0.1126414E+005  0.1043930E+01  0.7957747E-01            NaN
         13   -1    0    0    0    0  0.00000000000E+00  0.00000000000E+00  0.74505805969E-08  0.10566000000E+00  0.10566000000E+00 0. -1.
     999900   -1    0    0    0    0 -0.00000000000E+00 -0.00000000000E+00 -0.74505805969E-08  0.93827000000E+00  0.93827000000E+00 0.  1.
     999902    2    1    2    0    0  0.58196097886E-02 -0.92825468700E-02  0.12417313722E-01  0.10273703136E+01  0.10272368461E+01 0.  0.
     999903    2    3    3    0    0 -0.99187737513E-01  0.79628125388E-01  0.43948713952E-01  0.13612069656E+00  0.20457491235E-01 0.  0.
         14    1    1    2    0    0 -0.58196097886E-02  0.92825468700E-02 -0.12417313722E-01  0.16559686427E-01  0.00000000000E+00 0.  1.
     999901    1    3    3    0    0  0.10500734730E+00 -0.88910672258E-01 -0.31531400230E-01  0.89124961701E+00  0.88000000000E+00 0. -1.
        -11    1    4    4    0    0 -0.28537030865E-01  0.15823538126E-01  0.18774805440E-01  0.37649713541E-01  0.51100000000E-03 0.  1.
         11    1    4    4    0    0 -0.70650706648E-01  0.63804587262E-01  0.25173908512E-01  0.98470983017E-01  0.51100000000E-03 0. -1.
</event>
<event>
 8    1  0.1126414E+005  0.1043930E+01  0.7957747E-01            NaN
         13   -1    0    0    0    0  0.00000000000E+00  0.00000000000E+00  0.74505805969E-08  0.10566000000E+00  0.10566000000E+00 0. -1.
     999900   -1    0    0    0    0 -0.00000000000E+00 -0.00000000000E+00 -0.74505805969E-08  0.93827000000E+00  0.93827000000E+00 0.  1.
     999902    2    1    2    0    0  0.13572955107E-01 -0.19232880791E-02  0.21985532812E-01  0.10180207777E+01  0.10176910219E+01 0.  0.
     999903    2    3    3    0    0 -0.41235695939E-01  0.82555834449E-01 -0.83379990020E-01  0.12603277118E+00  0.20400692482E-01 0.  0.
         14    1    1    2    0    0 -0.13572955107E-01  0.19232880791E-02 -0.21985532812E-01  0.25909222304E-01  0.00000000000E+00 0.  1.
     999901    1    3    3    0    0  0.54808651046E-01 -0.84479122528E-01  0.10536552283E+00  0.89198800652E+00  0.88000000000E+00 0. -1.
        -11    1    4    4    0    0 -0.11697169147E-01  0.22699422126E-01 -0.36153205365E-01  0.44265143285E-01  0.51100000000E-03 0. -1.
         11    1    4    4    0    0 -0.29538526792E-01  0.59856412323E-01 -0.47226784655E-01  0.81767627892E-01  0.51100000000E-03 0.  1.
</event>
<event>
 8    1  0.1126414E+005  0.1043930E+01  0.7957747E-01            NaN
         13   -1    0    0    0    0  0.00000000000E+00  0.00000000000E+00  0.74505805969E-08  0.10566000000E+00  0.10566000000E+00 0. -1.
     999900   -1    0    0    0    0 -0.00000000000E+00 -0.00000000000E+00 -0.74505805969E-08  0.93827000000E+00  0.93827000000E+00 0.  1.
     999902    2    1    2    0    0 -0.12638161608E-01 -0.77184204804E-02 -0.16338094965E-01  0.10218793653E+01  0.10216414277E+01 0.  0.
     999903    2    3    3    0    0 -0.10914216375E+00  0.68363154221E-01  0.23975405838E-01  0.13242638353E+00  0.19400881585E-01 0.  0.
         14    1    1    2    0    0  0.12638161608E-01  0.77184204804E-02  0.16338094965E-01  0.22050634699E-01  0.00000000000E+00 0.  1.
     999901    1    3    3    0    0  0.96504002141E-01 -0.76081574701E-01 -0.40313500803E-01  0.88945298177E+00  0.88000000000E+00 0.  1.
        -11    1    4    4    0    0 -0.26734474284E-01  0.21396231659E-01 -0.12742433313E-02  0.34269748489E-01  0.51100000000E-03 0.  1.
         11    1    4    4    0    0 -0.82407689465E-01  0.46966922562E-01  0.25249649170E-01  0.98156635038E-01  0.51100000000E-03 0. -1.
</event>
<event>
 8    1  0.1126414E+005  0.1043930E+01  0.7957747E-01            NaN
         13   -1    0    0    0    0  0.00000000000E+00  0.00000000000E+00  0.74505805969E-08  0.10566000000E+00  0.10566000000E+00 0. -1.
     999900   -1    0    0    0    0 -0.00000000000E+00 -0.00000000000E+00 -0.74505805969E-08  0.93827000000E+00  0.93827000000E+00 0.  1.
     999902    2    1    2    0    0 -0.19936006752E-02  0.72794231180E-03 -0.23485003613E-01  0.10203492931E+01  0.10200767766E+01 0.  0.
     999903    2    3    3    0    0  0.56133169820E-01 -0.92645244548E-01  0.66917912714E-01  0.12890666412E+00  0.20120808138E-01 0.  0.
         14    1    1    2    0    0  0.19936006752E-02 -0.72794231180E-03  0.23485003613E-01  0.23580706910E-01  0.00000000000E+00 0. -1.
     999901    1    3    3    0    0 -0.58126770495E-01  0.93373186860E-01 -0.90402916327E-01  0.89144262897E+00  0.88000000000E+00 0. -1.
        -11    1    4    4    0    0  0.32343739680E-01 -0.70800940447E-01  0.48762364389E-01  0.91852707998E-01  0.51100000000E-03 0. -1.
         11    1    4    4    0    0  0.23789430140E-01 -0.21844304101E-01  0.18155548325E-01  0.37053956118E-01  0.51100000000E-03 0.  1.
</event>
<event>
 8    1  0.1126414E+005  0.1043930E+01  0.7957747E-01            NaN
         13   -1    0    0    0    0  0.00000000000E+00  0.00000000000E+00  0.74505805969E-08  0.10566000000E+00  0.10566000000E+00 0. -1.
     999900   -1    0    0    0    0 -0.00000000000E+00 -0.00000000000E+00 -0.74505805969E-08  0.93827000000E+00  0.93827000000E+00 0. -1.
     999902    2    1    2    0    0  0.63129918589E-02 -0.21148543287E-01  0.71961298918E-02  0.10207158010E+01  0.10204517859E+01 0.  0.
     999903    2    3    3    0    0 -0.43162639896E-01 -0.12010311760E+00 -0.31088866219E-01  0.13296268959E+00  0.20610358562E-01 0.  0.
         14    1    1    2    0    0 -0.63129918589E-02  0.21148543287E-01 -0.71961298918E-02  0.23214198991E-01  0.00000000000E+00 0.  1.
     999901    1    3    3    0    0  0.49475631754E-01  0.98954574309E-01  0.38284996111E-01  0.88775311142E+00  0.88000000000E+00 0.  1.
        -11    1    4    4    0    0 -0.15172140359E-01 -0.71979528741E-01 -0.16057337093E-01  0.75295056918E-01  0.51100000000E-03 0.  1.
         11    1    4    4    0    0 -0.27990499536E-01 -0.48123588856E-01 -0.15031529125E-01  0.57667632668E-01  0.51100000000E-03 0. -1.
</event>
<event>
 8    1  0.1126414E+005  0.1043930E+01  0.7957747E-01            NaN
         13   -1    0    0    0    0  0.00000000000E+00  0.00000000000E+00  0.74505805969E-08  0.10566000000E+00  0.10566000000E+00 0.  1.
     999900   -1    0    0    0    0 -0.00000000000E+00 -0.00000000000E+00 -0.74505805969E-08  0.93827000000E+00  0.93827000000E+00 0.  1.
     999902    2    1    2    0    0 -0.56922270681E-02  0.22432256654E-01 -0.88552737540E-02  0.10191505032E+01  0.10188492159E+01 0.  0.
     999903    2    3    3    0    0 -0.10994712306E-01  0.10571152382E+00 -0.76741140222E-01  0.13259985968E+00  0.19942673303E-01 0.  0.
         14    1    1    2    0    0  0.56922270681E-02 -0.22432256654E-01  0.88552737540E-02  0.24779496784E-01  0.00000000000E+00 0.  1.
     999901    1    3    3    0    0  0.53024852375E-02 -0.83279267161E-01  0.67885866468E-01  0.88655064354E+00  0.88000000000E+00 0. -1.
        -11    1    4    4    0    0 -0.76938635497E-02  0.20163069817E-01 -0.88346120802E-02  0.23325016878E-01  0.51100000000E-03 0.  1.
         11    1    4    4    0    0 -0.33008487558E-02  0.85548453999E-01 -0.67906528142E-01  0.10927484280E+00  0.51100000000E-03 0. -1.
</event>
<event>
 7    1  0.1126414E+005  0.1043930E+01  0.7957747E-01            NaN
         13   -1    0    0    0    0  0.00000000000E+00  0.00000000000E+00  0.74505805969E-08  0.10566000000E+00  0.10566000000E+00 0.  1.
     999900   -1    0    0    0    0 -0.00000000000E+00 -0.00000000000E+00 -0.74505805969E-08  0.93827000000E+00  0.93827000000E+00 0.  1.
     999903    2    1    2    0    0  0.51427469843E-01 -0.32666342843E-01 -0.39563226254E-02  0.64324632308E-01  0.20251696809E-01 0.  0.
         14    1    1    2    0    0 -0.21152879122E-01 -0.63533187020E-01 -0.62179848672E-01  0.91379668028E-01  0.00000000000E+00 0. -1.
     999901    1    1    2    0    0 -0.30274590722E-01  0.96199529863E-01  0.66136171298E-01  0.88822569966E+00  0.88000000000E+00 0. -1.
        -11    1    3    3    0    0  0.17953196296E-01 -0.81139730082E-03 -0.54269853650E-03  0.17986974886E-01  0.51100000000E-03 0.  1.
         11    1    3    3    0    0  0.33474273547E-01 -0.31854945542E-01 -0.34136240889E-02  0.46337657422E-01  0.51100000000E-03 0. -1.
</event>
<event>
 8    1  0.1126414E+005  0.1043930E+01  0.7957747E-01            NaN
         13   -1    0    0    0    0  0.00000000000E+00  0.00000000000E+00  0.74505805969E-08  0.10566000000E+00  0.10566000000E+00 0.  1.
     999900   -1    0    0    0    0 -0.00000000000E+00 -0.00000000000E+00 -0.74505805969E-08  0.93827000000E+00  0.93827000000E+00 0.  1.
     999902    2    1    2    0    0 -0.10616503666E-01 -0.20284135937E-01 -0.33918422757E-02  0.10207856505E+01  0.10205232400E+01 0.  0.
     999903    2    3    3    0    0  0.60813974974E-01 -0.79864239660E-01 -0.83829032894E-01  0.13223500832E+00  0.19548768293E-01 0.  0.
         14    1    1    2    0    0  0.10616503666E-01  0.20284135937E-01  0.33918422757E-02  0.23144349522E-01  0.00000000000E+00 0. -1.
     999901    1    3    3    0    0 -0.71430478640E-01  0.59580103723E-01  0.80437190618E-01  0.88855064215E+00  0.88000000000E+00 0. -1.
        -11    1    4    4    0    0  0.14116775672E-01 -0.80558865423E-02 -0.17574379961E-01  0.23943696777E-01  0.51100000000E-03 0. -1.
         11    1    4    4    0    0  0.46697199302E-01 -0.71808353118E-01 -0.66254652933E-01  0.10829131155E+00  0.51100000000E-03 0.  1.
</event>
<event>
 8    1  0.1126414E+005  0.1043930E+01  0.7957747E-01            NaN
         13   -1    0    0    0    0  0.00000000000E+00  0.00000000000E+00  0.74505805969E-08  0.10566000000E+00  0.10566000000E+00 0. -1.
     999900   -1    0    0    0    0 -0.00000000000E+00 -0.00000000000E+00 -0.74505805969E-08  0.93827000000E+00  0.93827000000E+00 0. -1.
     999902    2    1    2    0    0 -0.19034391087E-01 -0.13809402093E-01 -0.43280853528E-02  0.10200189157E+01  0.10197386177E+01 0.  0.
     999903    2    3    3    0    0 -0.90080219556E-01 -0.96089280839E-01 -0.96844643543E-02  0.13331367775E+00  0.18197581645E-01 0.  0.
         14    1    1    2    0    0  0.19034391087E-01  0.13809402093E-01  0.43280853528E-02  0.23911084314E-01  0.00000000000E+00 0. -1.
     999901    1    3    3    0    0  0.71045828469E-01  0.82279878746E-01  0.53563790015E-02  0.88670523794E+00  0.88000000000E+00 0.  1.
        -11    1    4    4    0    0 -0.38616366653E-01 -0.28812226538E-01 -0.56341689826E-02  0.48511577512E-01  0.51100000000E-03 0.  1.
         11    1    4    4    0    0 -0.51463852903E-01 -0.67277054301E-01 -0.40502953718E-02  0.84802100237E-01  0.51100000000E-03 0. -1.
</event>
<event>
 8    1  0.1126414E+005  0.1043930E+01  0.7957747E-01            NaN
         13   -1    0    0    0    0  0.00000000000E+00  0.00000000000E+00  0.74505805969E-08  0.10566000000E+00  0.10566000000E+00 0.  1.
     999900   -1    0    0    0    0 -0.00000000000E+00 -0.00000000000E+00 -0.74505805969E-08  0.93827000000E+00  0.93827000000E+00 0. -1.
     999902    2    1    2    0    0 -0.19341798134E-01  0.11012312954E-01  0.10393522594E-01  0.10193657678E+01  0.10190697557E+01 0.  0.
     999903    2    3    3    0    0  0.15236434997E-01 -0.97463810750E-02  0.12792958269E+00  0.13063560459E+00  0.19301351327E-01 0.  0.
         14    1    1    2    0    0  0.19341798134E-01 -0.11012312954E-01 -0.10393522594E-01  0.24564232199E-01  0.00000000000E+00 0. -1.
     999901    1    3    3    0    0 -0.34578233131E-01  0.20758694029E-01 -0.11753606010E+00  0.88873016321E+00  0.88000000000E+00 0. -1.
        -11    1    4    4    0    0  0.91563430510E-02 -0.13696036853E-01  0.11092296243E+00  0.11214091475E+00  0.51100000000E-03 0.  1.
         11    1    4    4    0    0  0.60800919460E-02  0.39496557782E-02  0.17006620254E-01  0.18494689841E-01  0.51100000000E-03 0. -1.
</event>
<event>
 8    1  0.1126414E+005  0.1043930E+01  0.7957747E-01            NaN
         13   -1    0    0    0    0  0.00000000000E+00  0.00000000000E+00  0.74505805969E-08  0.10566000000E+00  0.10566000000E+00 0. -1.
     999900   -1    0    0    0    0 -0.00000000000E+00 -0.00000000000E+00 -0.74505805969E-08  0.93827000000E+00  0.93827000000E+00 0.  1.
     999902    2    1    2    0    0 -0.41745087449E-02  0.20350042743E-01  0.78449659476E-02  0.10217242743E+01  0.10214829409E+01 0.  0.
     999903    2    3    3    0    0  0.87886174897E-01  0.96233002755E-01  0.21223395283E-01  0.13357317485E+00  0.20164076341E-01 0.  0.
         14    1    1    2    0    0  0.41745087449E-02 -0.20350042743E-01 -0.78449659476E-02  0.22205725695E-01  0.00000000000E+00 0.  1.
     999901    1    3    3    0    0 -0.92060683642E-01 -0.75882960012E-01 -0.13378429335E-01  0.88815109946E+00  0.88000000000E+00 0.  1.
        -11    1    4    4    0    0  0.18725492317E-01  0.27140560536E-01  0.13068608341E-01  0.35472577206E-01  0.51100000000E-03 0. -1.
         11    1    4    4    0    0  0.69160682581E-01  0.69092442219E-01  0.81547869421E-02  0.98100597643E-01  0.51100000000E-03 0.  1.
</event>
<event>
 8    1  0.1126414E+005  0.1043930E+01  0.7957747E-01            NaN
         13   -1    0    0    0    0  0.00000000000E+00  0.00000000000E+00  0.74505805969E-08  0.10566000000E+00  0.10566000000E+00 0. -1.
     999900   -1    0    0    0    0 -0.00000000000E+00 -0.00000000000E+00 -0.74505805969E-08  0.93827000000E+00  0.93827000000E+00 0.  1.
     999902    2    1    2    0    0  0.20464755996E-01  0.64741427775E-02 -0.97321042616E-02  0.10203623396E+01  0.10200901281E+01 0.  0.
     999903    2    3    3    0    0 -0.73794271714E-01 -0.21520787283E-01  0.10032750398E+00  0.12807225350E+00  0.20691912394E-01 0.  0.
         14    1    1    2    0    0 -0.20464755996E-01 -0.64741427775E-02  0.97321042616E-02  0.23567660385E-01  0.00000000000E+00 0.  1.
     999901    1    3    3    0    0  0.94259027709E-01  0.27994930060E-01 -0.11005960824E+00  0.89229008612E+00  0.88000000000E+00 0.  1.
        -11    1    4    4    0    0 -0.41270447252E-01 -0.22200080317E-01  0.63682056673E-01  0.79068064638E-01  0.51100000000E-03 0. -1.
         11    1    4    4    0    0 -0.32523824462E-01  0.67929303425E-03  0.36645447307E-01  0.49004188862E-01  0.51100000000E-03 0.  1.
</event>
<event>
 8    1  0.1126414E+005  0.1043930E+01  0.7957747E-01            NaN
         13   -1    0    0    0    0  0.00000000000E+00  0.00000000000E+00  0.74505805969E-08  0.10566000000E+00  0.10566000000E+00 0. -1.
     999900   -1    0    0    0    0 -0.00000000000E+00 -0.00000000000E+00 -0.74505805969E-08  0.93827000000E+00  0.93827000000E+00 0. -1.
     999902    2    1    2    0    0  0.14062611414E-01 -0.17617743170E-01  0.66804436691E-02  0.10204189336E+01  0.10201480431E+01 0.  0.
     999903    2    3    3    0    0  0.43051241177E-01  0.65977232649E-02  0.12308170666E+00  0.13195059796E+00  0.19102734540E-01 0.  0.
         14    1    1    2    0    0 -0.14062611414E-01  0.17617743170E-01 -0.66804436691E-02  0.23511066369E-01  0.00000000000E+00 0.  1.
     999901    1    3    3    0    0 -0.28988629764E-01 -0.24215466435E-01 -0.11640126299E+00  0.88846833567E+00  0.88000000000E+00 0. -1.
        -11    1    4    4    0    0  0.16241105831E-01  0.65694900152E-02  0.73728393237E-01  0.75783037733E-01  0.51100000000E-03 0.  1.
         11    1    4    4    0    0  0.26810135347E-01  0.28233249684E-04  0.49353313425E-01  0.56167560223E-01  0.51100000000E-03 0. -1.
</event>
<event>
 8    1  0.1126414E+005  0.1043930E+01  0.7957747E-01            NaN
         13   -1    0    0    0    0  0.00000000000E+00  0.00000000000E+00  0.74505805969E-08  0.10566000000E+00  0.10566000000E+00 0. -1.
     999900   -1    0    0    0    0 -0.00000000000E+00 -0.00000000000E+00 -0.74505805969E-08  0.93827000000E+00  0.93827000000E+00 0.  1.
     999902    2    1    2    0    0  0.15242551170E-01 -0.17080662271E-01  0.33279768475E-02  0.10207964784E+01  0.10205343162E+01 0.  0.
     999903    2    3    3    0    0  0.93354371196E-03  0.12136896800E+00 -0.38534136288E-01  0.12887412513E+00  0.19808144049E-01 0.  0.
         14    1    1    2    0    0 -0.15242551170E-01  0.17080662271E-01 -0.33279768475E-02  0.23133521558E-01  0.00000000000E+00 0. -1.
     999901    1    3    3    0    0  0.14309007458E-01 -0.13844963028E+00  0.41862113136E-01  0.89192235331E+00  0.88000000000E+00 0. -1.
        -11    1    4    4    0    0  0.81582011214E-02  0.99316769153E-01 -0.29053577638E-01  0.10380148542E+00  0.51100000000E-03 0.  1.
         11    1    4    4    0    0 -0.72246574094E-02  0.22052198852E-01 -0.94805586504E-02  0.25072639713E-01  0.51100000000E-03 0. -1.
</event>
<event>
 8    1  0.1126414E+005  0.1043930E+01  0.7957747E-01            NaN
         13   -1    0    0    0    0  0.00000000000E+00  0.00000000000E+00  0.74505805969E-08  0.10566000000E+00  0.10566000000E+00 0. -1.
     999900   -1    0    0    0    0 -0.00000000000E+00 -0.00000000000E+00 -0.74505805969E-08  0.93827000000E+00  0.93827000000E+00 0. -1.
     999902    2    1    2    0    0  0.55734765325E-02 -0.21563277235E-01  0.49730311879E-03  0.10216525254E+01  0.10214096126E+01 0.  0.
     999903    2    3    3    0    0  0.94519543325E-01  0.30405538470E-01  0.84008082889E-01  0.13171645410E+00  0.20818872429E-01 0.  0.
         14    1    1    2    0    0 -0.55734765325E-02  0.21563277235E-01 -0.49730311879E-03  0.22277474637E-01  0.00000000000E+00 0.  1.
     999901    1    3    3    0    0 -0.88946066792E-01 -0.51968815705E-01 -0.83510779770E-01  0.88993607127E+00  0.88000000000E+00 0. -1.
        -11    1    4    4    0    0  0.72064743437E-01  0.30062737297E-01  0.57509451387E-01  0.96977799213E-01  0.51100000000E-03 0. -1.
         11    1    4    4    0    0  0.22454799888E-01  0.34280117282E-03  0.26498631502E-01  0.34738654884E-01  0.51100000000E-03 0.  1.
</event>
<event>
 8    1  0.1126414E+005  0.1043930E+01  0.7957747E-01            NaN
         13   -1    0    0    0    0  0.00000000000E+00  0.00000000000E+00  0.74505805969E-08  0.10566000000E+00  0.10566000000E+00 0.  1.
     999900   -1    0    0    0    0 -0.00000000000E+00 -0.00000000000E+00 -0.74505805969E-08  0.93827000000E+00  0.93827000000E+00 0.  1.
     999902    2    1    2    0    0 -0.73121620544E-02 -0.23151531899E-01 -0.16585002263E-02  0.10195945985E+01  0.10193041418E+01 0.  0.
     999903    2    3    3    0    0  0.11797161147E+00  0.30029589784E-01  0.34016764169E-01  0.12841729846E+00  0.22688872270E-01 0.  0.
         14    1    1    2    0    0  0.73121620544E-02  0.23151531899E-01  0.16585002263E-02  0.24335401500E-01  0.00000000000E+00 0.  1.
     999901    1    3    3    0    0 -0.12528377352E+00 -0.53181121683E-01 -0.35675264395E-01  0.89117730004E+00  0.88000000000E+00 0.  1.
        -11    1    4    4    0    0  0.92158902688E-01  0.13692098506E-01  0.27886431755E-01  0.97255596771E-01  0.51100000000E-03 0. -1.
         11    1    4    4    0    0  0.25812708780E-01  0.16337491278E-01  0.61303324139E-02  0.31161701692E-01  0.51100000000E-03 0.  1.
</event>
<event>
 8    1  0.1126414E+005  0.1043930E+01  0.7957747E-01            NaN
         13   -1    0    0    0    0  0.00000000000E+00  0.00000000000E+00  0.74505805969E-08  0.10566000000E+00  0.10566000000E+00 0.  1.
     999900   -1    0    0    0    0 -0.00000000000E+00 -0.00000000000E+00 -0.74505805969E-08  0.93827000000E+00  0.93827000000E+00 0.  1.
     999902    2    1    2    0    0 -0.15748245832E-01 -0.84137254003E-02  0.14332823273E-01  0.10210339775E+01  0.10207772310E+01 0.  0.
     999903    2    3    3    0    0  0.74124230807E-02  0.90906749137E-01 -0.89174669841E-01  0.12911762810E+00  0.20006476231E-01 0.  0.
         14    1    1    2    0    0  0.15748245832E-01  0.84137254003E-02 -0.14332823273E-01  0.22896022468E-01  0.00000000000E+00 0. -1.
     999901    1    3    3    0    0 -0.23160668913E-01 -0.99320474537E-01  0.10350749311E+00  0.89191634943E+00  0.88000000000E+00 0.  1.
        -11    1    4    4    0    0  0.10915019122E-01  0.48424698135E-01 -0.38020149061E-01  0.62529048350E-01  0.51100000000E-03 0. -1.
         11    1    4    4    0    0 -0.35025960415E-02  0.42482051002E-01 -0.51154520780E-01  0.66588579754E-01  0.51100000000E-03 0.  1.
</event>
<event>
 8    1  0.1126414E+005  0.1043930E+01  0.7957747E-01            NaN
         13   -1    0    0    0    0  0.00000000000E+00  0.00000000000E+00  0.74505805969E-08  0.10566000000E+00  0.10566000000E+00 0. -1.
     999900   -1    0    0    0    0 -0.00000000000E+00 -0.00000000000E+00 -0.74505805969E-08  0.93827000000E+00  0.93827000000E+00 0.  1.
     999902    2    1    2    0    0 -0.51235136318E-02  0.21090752058E-01  0.88542495807E-02  0.10204892673E+01  0.10202200139E+01 0.  0.
     999903    2    3    3    0    0  0.44402901354E-02 -0.95045745446E-01  0.85611704318E-01  0.12949495796E+00  0.19651216706E-01 0.  0.
         14    1    1    2    0    0  0.51235136318E-02 -0.21090752058E-01 -0.88542495807E-02  0.23440732709E-01  0.00000000000E+00 0.  1.
     999901    1    3    3    0    0 -0.95638037672E-02  0.11613649750E+00 -0.76757454738E-01  0.89099430933E+00  0.88000000000E+00 0.  1.
        -11    1    4    4    0    0 -0.76197882310E-02 -0.27490048056E-01  0.24911612795E-01  0.37876291897E-01  0.51100000000E-03 0. -1.
         11    1    4    4    0    0  0.12060078366E-01 -0.67555697389E-01  0.60700091524E-01  0.91618666067E-01  0.51100000000E-03 0.  1.
</event>
<event>
 8    1  0.1126414E+005  0.1043930E+01  0.7957747E-01            NaN
         13   -1    0    0    0    0  0.00000000000E+00  0.00000000000E+00  0.74505805969E-08  0.10566000000E+00  0.10566000000E+00 0.  1.
     999900   -1    0    0    0    0 -0.00000000000E+00 -0.00000000000E+00 -0.74505805969E-08  0.93827000000E+00  0.93827000000E+00 0.  1.
     999902    2    1    2    0    0 -0.59049930551E-02 -0.18441750781E-01 -0.13850178355E-01  0.10201225525E+01  0.10198447076E+01 0.  0.
     999903    2    3    3    0    0 -0.80978901914E-01  0.94461105329E-01  0.29071391802E-01  0.12870491309E+00  0.15470160213E-01 0.  0.
         14    1    1    2    0    0  0.59049930551E-02  0.18441750781E-01  0.13850178355E-01  0.23807447476E-01  0.00000000000E+00 0.  1.
     999901    1    3    3    0    0  0.75073908859E-01 -0.11290285611E+00 -0.42921570157E-01  0.89141763943E+00  0.88000000000E+00 0.  1.
        -11    1    4    4    0    0 -0.47379331696E-01  0.66510310808E-01  0.19631931493E-01  0.83988668110E-01  0.51100000000E-03 0.  1.
         11    1    4    4    0    0 -0.33599570218E-01  0.27950794521E-01  0.94394603089E-02  0.44716244980E-01  0.51100000000E-03 0. -1.
</event>
<event>
 8    1  0.1126414E+005  0.1043930E+01  0.7957747E-01            NaN
         13   -1    0    0    0    0  0.00000000000E+00  0.00000000000E+00  0.74505805969E-08  0.10566000000E+00  0.10566000000E+00 0.  1.
     999900   -1    0    0    0    0 -0.00000000000E+00 -0.00000000000E+00 -0.74505805969E-08  0.93827000000E+00  0.93827000000E+00 0.  1.
     999902    2    1    2    0    0 -0.89978037614E-02 -0.58571587875E-02  0.20369430740E-01  0.10209043515E+01  0.10206446563E+01 0.  0.
     999903    2    3    3    0    0  0.12493686142E+00  0.28573587585E-01  0.93249574307E-02  0.13003626290E+00  0.19919979642E-01 0.  0.
         14    1    1    2    0    0  0.89978037614E-02  0.58571587875E-02 -0.20369430740E-01  0.23025648531E-01  0.00000000000E+00 0. -1.
     999901    1    3    3    0    0 -0.13393466519E+00 -0.34430746373E-01  0.11044473309E-01  0.89086808857E+00  0.88000000000E+00 0.  1.
        -11    1    4    4    0    0  0.88453327798E-01  0.11458351200E-01  0.98079502311E-02  0.89731499594E-01  0.51100000000E-03 0. -1.
         11    1    4    4    0    0  0.36483533626E-01  0.17115236385E-01 -0.48299280036E-03  0.40304763309E-01  0.51100000000E-03 0.  1.
</event>
<event>
 8    1  0.1126414E+005  0.1043930E+01  0.7957747E-01            NaN
         13   -1    0    0    0    0  0.00000000000E+00  0.00000000000E+00  0.74505805969E-08  0.10566000000E+00  0.10566000000E+00 0. -1.
     999900   -1    0    0    0    0 -0.00000000000E+00 -0.00000000000E+00 -0.74505805969E-08  0.93827000000E+00  0.93827000000E+00 0.  1.
     999902    2    1    2    0    0 -0.51079159640E-02 -0.13736166699E-02 -0.23329282472E-01  0.10200086069E+01  0.10197280643E+01 0.  0.
     999903    2    3    3    0    0  0.11235611594E-01  0.12499067681E+00 -0.30850437129E-01  0.13080018737E+00  0.20199784329E-01 0.  0.
         14    1    1    2    0    0  0.51079159640E-02  0.13736166699E-02  0.23329282472E-01  0.23921393122E-01  0.00000000000E+00 0. -1.
     999901    1    3    3    0    0 -0.16343527558E-01 -0.12636429348E+00  0.75211546575E-02  0.88920841951E+00  0.88000000000E+00 0.  1.
        -11    1    4    4    0    0  0.14671133414E-01  0.53429617873E-01 -0.11547563033E-01  0.56600119741E-01  0.51100000000E-03 0.  1.
         11    1    4    4    0    0 -0.34355218194E-02  0.71561058938E-01 -0.19302874096E-01  0.74200067627E-01  0.51100000000E-03 0. -1.
</event>
<event>
 8    1  0.1126414E+005  0.1043930E+01  0.7957747E-01            NaN
         13   -1    0    0    0    0  0.00000000000E+00  0.00000000000E+00  0.74505805969E-08  0.10566000000E+00  0.10566000000E+00 0.  1.
     999900   -1    0    0    0    0 -0.00000000000E+00 -0.00000000000E+00 -0.74505805969E-08  0.93827000000E+00  0.93827000000E+00 0.  1.
     999902    2    1    2    0    0 -0.54221606565E-02  0.18643003140E-01 -0.17910871973E-01  0.10175148391E+01  0.10171719063E+01 0.  0.
     999903    2    3    3    0    0  0.36130658489E-01 -0.10112423616E+00  0.60536139506E-01  0.12497645782E+00  0.20565874710E-01 0.  0.
         14    1    1    2    0    0  0.54221606565E-02 -0.18643003140E-01  0.17910871973E-01  0.26415160933E-01  0.00000000000E+00 0.  1.
     999901    1    3    3    0    0 -0.41552819146E-01  0.11976723929E+00 -0.78447011479E-01  0.89253838125E+00  0.88000000000E+00 0.  1.
        -11    1    4    4    0    0  0.69666785003E-02 -0.42393734721E-01  0.31419728509E-01  0.53228035972E-01  0.51100000000E-03 0. -1.
         11    1    4    4    0    0  0.29163979989E-01 -0.58730501434E-01  0.29116410996E-01  0.71748421849E-01  0.51100000000E-03 0.  1.
</event>
<event>
 8    1  0.1126414E+005  0.1043930E+01  0.7957747E-01            NaN
         13   -1    0    0    0    0  0.00000000000E+00  0.00000000000E+00  0.74505805969E-08  0.10566000000E+00  0.10566000000E+00 0.  1.
     999900   -1    0    0    0    0 -0.00000000000E+00 -0.00000000000E+00 -0.74505805969E-08  0.93827000000E+00  0.93827000000E+00 0.  1.
     999902    2    1    2    0    0  0.19020661910E-01 -0.81925468727E-02 -0.13918555103E-01  0.10189774534E+01  0.10186718908E+01 0.  0.
     999903    2    3    3    0    0  0.98492845750E-01  0.72404579859E-01 -0.43284879661E-01  0.13124207290E+00  0.20190023359E-01 0.  0.
         14    1    1    2    0    0 -0.19020661910E-01  0.81925468727E-02  0.13918555103E-01  0.24952546562E-01  0.00000000000E+00 0.  1.
     999901    1    3    3    0    0 -0.79472183840E-01 -0.80597126732E-01  0.29366324558E-01  0.88773538054E+00  0.88000000000E+00 0. -1.
        -11    1    4    4    0    0  0.29405950690E-01  0.16210409944E-01 -0.37027990165E-02  0.33785487536E-01  0.51100000000E-03 0. -1.
         11    1    4    4    0    0  0.69086895061E-01  0.56194169915E-01 -0.39582080645E-01  0.97456585364E-01  0.51100000000E-03 0.  1.
</event>
<event>
 8    1  0.1126414E+005  0.1043930E+01  0.7957747E-01            NaN
         13   -1    0    0    0    0  0.00000000000E+00  0.00000000000E+00  0.74505805969E-08  0.10566000000E+00  0.10566000000E+00 0. -1.
     999900   -1    0    0    0    0 -0.00000000000E+00 -0.00000000000E+00 -0.74505805969E-08  0.93827000000E+00  0.93827000000E+00 0.  1.
     999902    2    1    2    0    0 -0.13284208159E-02 -0.22468430961E-01  0.83836565641E-02  0.10199116572E+01  0.10196288088E+01 0.  0.
     999903    2    3    3    0    0 -0.73840212534E-02 -0.98268754463E-01 -0.84757025173E-01  0.13173512865E+00  0.21427060707E-01 0.  0.
         14    1    1    2    0    0  0.13284208159E-02  0.22468430961E-01 -0.83836565641E-02  0.24018342763E-01  0.00000000000E+00 0.  1.
     999901    1    3    3    0    0  0.60556004375E-02  0.75800323502E-01  0.93140681737E-01  0.88817652859E+00  0.88000000000E+00 0. -1.
        -11    1    4    4    0    0 -0.72993653449E-02 -0.83134122827E-01 -0.80621093979E-01  0.11603699853E+00  0.51100000000E-03 0. -1.
         11    1    4    4    0    0 -0.84655908453E-04 -0.15134631636E-01 -0.41359311940E-02  0.15698130119E-01  0.51100000000E-03 0.  1.
</event>
<event>
 8    1  0.1126414E+005  0.1043930E+01  0.7957747E-01            NaN
         13   -1    0    0    0    0  0.00000000000E+00  0.00000000000E+00  0.74505805969E-08  0.10566000000E+00  0.10566000000E+00 0. -1.
     999900   -1    0    0    0    0 -0.00000000000E+00 -0.00000000000E+00 -0.74505805969E-08  0.93827000000E+00  0.93827000000E+00 0. -1.
     999902    2    1    2    0    0  0.18777729882E-01  0.14133290887E-01  0.65895918337E-02  0.10195214816E+01  0.10192292557E+01 0.  0.
     999903    2    3    3    0    0  0.74077342631E-01  0.90770472740E-01 -0.57780905382E-01  0.13212367579E+00  0.19781336275E-01 0.  0.
         14    1    1    2    0    0 -0.18777729882E-01 -0.14133290887E-01 -0.65895918337E-02  0.24408518418E-01  0.00000000000E+00 0.  1.
     999901    1    3    3    0    0 -0.55299612750E-01 -0.76637181853E-01  0.64370497216E-01  0.88739780579E+00  0.88000000000E+00 0.  1.
        -11    1    4    4    0    0  0.58911290417E-01  0.79142054905E-01 -0.41586230376E-01  0.10706857929E+00  0.51100000000E-03 0. -1.
         11    1    4    4    0    0  0.15166052215E-01  0.11628417835E-01 -0.16194675006E-01  0.25055096501E-01  0.51100000000E-03 0.  1.
</event>
<event>
 8    1  0.1126414E+005  0.1043930E+01  0.7957747E-01            NaN
         13   -1    0    0    0    0  0.00000000000E+00  0.00000000000E+00  0.74505805969E-08  0.10566000000E+00  0.10566000000E+00 0.  1.
     999900   -1    0    0    0    0 -0.00000000000E+00 -0.00000000000E+00 -0.74505805969E-08  0.93827000000E+00  0.93827000000E+00 0.  1.
     999902    2    1    2    0    0  0.13767015523E-01  0.18266128772E-01  0.28282982952E-02  0.10208826260E+01  0.10206224349E+01 0.  0.
     999903    2    3    3    0    0  0.64650015279E-01 -0.90898384123E-01  0.64773565201E-01  0.13052135853E+00  0.19951680900E-01 0.  0.
         14    1    1    2    0    0 -0.13767015523E-01 -0.18266128772E-01 -0.28282982952E-02  0.23047373993E-01  0.00000000000E+00 0.  1.
     999901    1    3    3    0    0 -0.50882999756E-01  0.10916451289E+00 -0.61945266906E-01  0.89036126748E+00  0.88000000000E+00 0.  1.
        -11    1    4    4    0    0  0.34314979561E-01 -0.32427662380E-01  0.31123555306E-01  0.56550932137E-01  0.51100000000E-03 0. -1.
         11    1    4    4    0    0  0.30335035718E-01 -0.58470721742E-01  0.33650009896E-01  0.73970426388E-01  0.51100000000E-03 0.  1.
</event>
<event>
 8    1  0.1126414E+005  0.1043930E+01  0.7957747E-01            NaN
         13   -1    0    0    0    0  0.00000000000E+00  0.00000000000E+00  0.74505805969E-08  0.10566000000E+00  0.10566000000E+00 0. -1.
     999900   -1    0    0    0    0 -0.00000000000E+00 -0.00000000000E+00 -0.74505805969E-08  0.93827000000E+00  0.93827000000E+00 0. -1.
     999902    2    1    2    0    0  0.76898057090E-02  0.13870436270E-01 -0.18130100506E-01  0.10198421886E+01  0.10195576820E+01 0.  0.
     999903    2    3    3    0    0 -0.56809603359E-01 -0.95988735511E-01  0.58297310296E-01  0.12739030725E+00  0.19711560401E-01 0.  0.
         14    1    1    2    0    0 -0.76898057090E-02 -0.13870436270E-01  0.18130100506E-01  0.24087811410E-01  0.00000000000E+00 0. -1.
     999901    1    3    3    0    0  0.64499409068E-01  0.10985917178E+00 -0.76427410802E-01  0.89245188135E+00  0.88000000000E+00 0. -1.
        -11    1    4    4    0    0 -0.22065107508E-01 -0.51148414934E-01  0.36597595361E-01  0.66653390213E-01  0.51100000000E-03 0.  1.
         11    1    4    4    0    0 -0.34744495851E-01 -0.44840320577E-01  0.21699714935E-01  0.60736917033E-01  0.51100000000E-03 0. -1.
</event>
<event>
 8    1  0.1126414E+005  0.1043930E+01  0.7957747E-01            NaN
         13   -1    0    0    0    0  0.00000000000E+00  0.00000000000E+00  0.74505805969E-08  0.10566000000E+00  0.10566000000E+00 0.  1.
     999900   -1    0    0    0    0 -0.00000000000E+00 -0.00000000000E+00 -0.74505805969E-08  0.93827000000E+00  0.93827000000E+00 0.  1.
     999902    2    1    2    0    0  0.50511417830E-02 -0.94744221244E-02  0.20800210550E-01  0.10205221495E+01  0.10202536597E+01 0.  0.
     999903    2    3    3    0    0  0.19163277288E-01 -0.47211559224E-01 -0.11680083730E+00  0.12891837409E+00  0.19528160771E-01 0.  0.
         14    1    1    2    0    0 -0.50511417830E-02  0.94744221244E-02 -0.20800210550E-01  0.23407850538E-01  0.00000000000E+00 0. -1.
     999901    1    3    3    0    0 -0.14112135505E-01  0.37737137099E-01  0.13760104785E+00  0.89160377537E+00  0.88000000000E+00 0. -1.
        -11    1    4    4    0    0  0.24211326890E-02 -0.53420413703E-02 -0.32147500812E-02  0.67078333749E-02  0.51100000000E-03 0. -1.
         11    1    4    4    0    0  0.16742144599E-01 -0.41869517853E-01 -0.11358608722E+00  0.12221054072E+00  0.51100000000E-03 0.  1.
</event>
<event>
 8    1  0.1126414E+005  0.1043930E+01  0.7957747E-01            NaN
         13   -1    0    0    0    0  0.00000000000E+00  0.00000000000E+00  0.74505805969E-08  0.10566000000E+00  0.10566000000E+00 0. -1.
     999900   -1    0    0    0    0 -0.00000000000E+00 -0.00000000000E+00 -0.74505805969E-08  0.93827000000E+00  0.93827000000E+00 0. -1.
     999902    2    1    2    0    0  0.46114864633E-02  0.22927673927E-01 -0.20074367440E-02  0.10204571680E+01  0.10201871681E+01 0.  0.
     999903    2    3    3    0    0 -0.12348682403E+00 -0.90761820625E-02  0.33928160290E-01  0.12988162878E+00  0.19665824283E-01 0.  0.
         14    1    1    2    0    0 -0.46114864633E-02 -0.22927673927E-01  0.20074367440E-02  0.23472831985E-01  0.00000000000E+00 0.  1.
     999901    1    3    3    0    0  0.12809831049E+00  0.32003855989E-01 -0.35935597034E-01  0.89057553923E+00  0.88000000000E+00 0. -1.
        -11    1    4    4    0    0 -0.80839087956E-01 -0.46001203098E-02  0.12464452369E-01  0.81925227753E-01  0.51100000000E-03 0. -1.
         11    1    4    4    0    0 -0.42647736072E-01 -0.44760617526E-02  0.21463707921E-01  0.47956401028E-01  0.51100000000E-03 0.  1.
</event>
<event>
 8    1  0.1223664E+005  0.1043930E+01  0.7957747E-01            NaN
         13   -1    0    0    0    0  0.00000000000E+00  0.00000000000E+00  0.74505805969E-08  0.10566000000E+00  0.10566000000E+00 0. -1.
     999900   -1    0    0    0    0 -0.00000000000E+00 -0.00000000000E+00 -0.74505805969E-08  0.93827000000E+00  0.93827000000E+00 0. -1.
     999902    2    1    2    0    0 -0.21444521396E-01  0.55069188177E-02  0.64126118005E-02  0.10208797236E+01  0.10206194662E+01 0.  0.
     999903    2    3    3    0    0 -0.86337113769E-01  0.85129215015E-01  0.50939698245E-01  0.13378704521E+00  0.24556875734E-01 0.  0.
         14    1    1    2    0    0  0.21444521396E-01 -0.55069188177E-02 -0.64126118005E-02  0.23050276416E-01  0.00000000000E+00 0.  1.
     999901    1    3    3    0    0  0.64892592373E-01 -0.79622296197E-01 -0.44527086445E-01  0.88709267837E+00  0.88000000000E+00 0. -1.
        -11    1    4    4    0    0 -0.54492664681E-01  0.46379420198E-01  0.41580209331E-01  0.82762769715E-01  0.51100000000E-03 0. -1.
         11    1    4    4    0    0 -0.31844449088E-01  0.38749794817E-01  0.93594889143E-02  0.51024275495E-01  0.51100000000E-03 0.  1.
</event>
<event>
 8    1  0.1126414E+005  0.1043930E+01  0.7957747E-01            NaN
         13   -1    0    0    0    0  0.00000000000E+00  0.00000000000E+00  0.74505805969E-08  0.10566000000E+00  0.10566000000E+00 0.  1.
     999900   -1    0    0    0    0 -0.00000000000E+00 -0.00000000000E+00 -0.74505805969E-08  0.93827000000E+00  0.93827000000E+00 0.  1.
     999902    2    1    2    0    0  0.18455008012E-01  0.14448292310E-01  0.44370553050E-02  0.10200756937E+01  0.10197967410E+01 0.  0.
     999903    2    3    3    0    0 -0.76501952161E-01  0.43207121250E-01 -0.92330333918E-01  0.12922900530E+00  0.21350438862E-01 0.  0.
         14    1    1    2    0    0 -0.18455008012E-01 -0.14448292310E-01 -0.44370553050E-02  0.23854306345E-01  0.00000000000E+00 0. -1.
     999901    1    3    3    0    0  0.94956960173E-01 -0.28758828940E-01  0.96767389223E-01  0.89084668835E+00  0.88000000000E+00 0. -1.
        -11    1    4    4    0    0 -0.28178994279E-01  0.76877409906E-02 -0.40655405746E-01  0.50062762783E-01  0.51100000000E-03 0.  1.
         11    1    4    4    0    0 -0.48322957881E-01  0.35519380260E-01 -0.51674928172E-01  0.79166242522E-01  0.51100000000E-03 0. -1.
</event>
<event>
 8    1  0.1126414E+005  0.1043930E+01  0.7957747E-01            NaN
         13   -1    0    0    0    0  0.00000000000E+00  0.00000000000E+00  0.74505805969E-08  0.10566000000E+00  0.10566000000E+00 0. -1.
     999900   -1    0    0    0    0 -0.00000000000E+00 -0.00000000000E+00 -0.74505805969E-08  0.93827000000E+00  0.93827000000E+00 0. -1.
     999902    2    1    2    0    0 -0.23936862676E-01  0.19077002332E-01  0.37364564644E-02  0.10130938764E+01  0.10126244792E+01 0.  0.
     999903    2    3    3    0    0  0.69825716453E-01 -0.19433169456E-01 -0.95864293940E-01  0.12169342538E+00  0.19132385470E-01 0.  0.
         14    1    1    2    0    0  0.23936862676E-01 -0.19077002332E-01 -0.37364564644E-02  0.30836123616E-01  0.00000000000E+00 0.  1.
     999901    1    3    3    0    0 -0.93762579129E-01  0.38510171789E-01  0.99600750405E-01  0.89140045101E+00  0.88000000000E+00 0. -1.
        -11    1    4    4    0    0  0.36776721493E-01 -0.19246444491E-01 -0.47097166534E-01  0.62780228463E-01  0.51100000000E-03 0.  1.
         11    1    4    4    0    0  0.33048994960E-01 -0.18672496565E-03 -0.48767127406E-01  0.58913196913E-01  0.51100000000E-03 0. -1.
</event>
<event>
 8    1  0.1126414E+005  0.1043930E+01  0.7957747E-01            NaN
         13   -1    0    0    0    0  0.00000000000E+00  0.00000000000E+00  0.74505805969E-08  0.10566000000E+00  0.10566000000E+00 0. -1.
     999900   -1    0    0    0    0 -0.00000000000E+00 -0.00000000000E+00 -0.74505805969E-08  0.93827000000E+00  0.93827000000E+00 0.  1.
     999902    2    1    2    0    0  0.42380970542E-02  0.32384713256E-02 -0.23207565297E-01  0.10201173930E+01  0.10198394263E+01 0.  0.
     999903    2    3    3    0    0 -0.92512671296E-01 -0.16176143693E-01 -0.92290456279E-01  0.13191128842E+00  0.79245011512E-02 0.  0.
         14    1    1    2    0    0 -0.42380970542E-02 -0.32384713256E-02  0.23207565297E-01  0.23812606959E-01  0.00000000000E+00 0. -1.
     999901    1    3    3    0    0  0.96750768350E-01  0.19414615018E-01  0.69082890982E-01  0.88820610462E+00  0.88000000000E+00 0. -1.
        -11    1    4    4    0    0 -0.55309713754E-01 -0.13545501061E-01 -0.56366990396E-01  0.80125799602E-01  0.51100000000E-03 0. -1.
         11    1    4    4    0    0 -0.37202957542E-01 -0.26306426314E-02 -0.35923465882E-01  0.51785488822E-01  0.51100000000E-03 0.  1.
</event>
<event>
 8    1  0.1126414E+005  0.1043930E+01  0.7957747E-01            NaN
         13   -1    0    0    0    0  0.00000000000E+00  0.00000000000E+00  0.74505805969E-08  0.10566000000E+00  0.10566000000E+00 0.  1.
     999900   -1    0    0    0    0 -0.00000000000E+00 -0.00000000000E+00 -0.74505805969E-08  0.93827000000E+00  0.93827000000E+00 0. -1.
     999902    2    1    2    0    0  0.11714704518E-01 -0.14664837270E-01 -0.13913910031E-01  0.10205657400E+01  0.10202982608E+01 0.  0.
     999903    2    3    3    0    0  0.10142223760E+00 -0.22797142967E-01 -0.81160675930E-01  0.13341541257E+00  0.20160282424E-01 0.  0.
         14    1    1    2    0    0 -0.11714704518E-01  0.14664837270E-01  0.13913910031E-01  0.23364260023E-01  0.00000000000E+00 0.  1.
     999901    1    3    3    0    0 -0.89707533082E-01  0.81323056970E-02  0.67246765900E-01  0.88715032740E+00  0.88000000000E+00 0.  1.
        -11    1    4    4    0    0  0.68723627208E-01 -0.13338668038E-01 -0.65765488396E-01  0.96053201856E-01  0.51100000000E-03 0.  1.
         11    1    4    4    0    0  0.32698610392E-01 -0.94584749282E-02 -0.15395187534E-01  0.37362210718E-01  0.51100000000E-03 0. -1.
</event>
<event>
 8    1  0.1126414E+005  0.1043930E+01  0.7957747E-01            NaN
         13   -1    0    0    0    0  0.00000000000E+00  0.00000000000E+00  0.74505805969E-08  0.10566000000E+00  0.10566000000E+00 0.  1.
     999900   -1    0    0    0    0 -0.00000000000E+00 -0.00000000000E+00 -0.74505805969E-08  0.93827000000E+00  0.93827000000E+00 0.  1.
     999902    2    1    2    0    0 -0.24761875890E-02 -0.23078887376E-04  0.25009166717E-01  0.10187985365E+01  0.10184885211E+01 0.  0.
     999903    2    3    3    0    0  0.46779413927E-01 -0.88758483628E-01  0.81657199605E-01  0.13115610514E+00  0.21625070721E-01 0.  0.
         14    1    1    2    0    0  0.24761875890E-02  0.23078887376E-04 -0.25009166717E-01  0.25131463496E-01  0.00000000000E+00 0. -1.
     999901    1    3    3    0    0 -0.49255601516E-01  0.88735404741E-01 -0.56648032888E-01  0.88764243137E+00  0.88000000000E+00 0.  1.
        -11    1    4    4    0    0  0.10224680611E-01 -0.15949183728E-01  0.27231052199E-01  0.33176978163E-01  0.51100000000E-03 0.  1.
         11    1    4    4    0    0  0.36554733316E-01 -0.72809299900E-01  0.54426147406E-01  0.97979126972E-01  0.51100000000E-03 0. -1.
</event>
<event>
 8    1  0.1126414E+005  0.1043930E+01  0.7957747E-01            NaN
         13   -1    0    0    0    0  0.00000000000E+00  0.00000000000E+00  0.74505805969E-08  0.10566000000E+00  0.10566000000E+00 0. -1.
     999900   -1    0    0    0    0 -0.00000000000E+00 -0.00000000000E+00 -0.74505805969E-08  0.93827000000E+00  0.93827000000E+00 0.  1.
     999902    2    1    2    0    0 -0.42973322335E-02  0.17600305781E-01 -0.14768815299E-01  0.10205557464E+01  0.10202880357E+01 0.  0.
     999903    2    3    3    0    0 -0.27423381489E-01  0.10648226129E+00 -0.73020682927E-01  0.13386070507E+00  0.22274523675E-01 0.  0.
         14    1    1    2    0    0  0.42973322335E-02 -0.17600305781E-01  0.14768815299E-01  0.23374253640E-01  0.00000000000E+00 0.  1.
     999901    1    3    3    0    0  0.23126049255E-01 -0.88881955508E-01  0.58251867628E-01  0.88669504129E+00  0.88000000000E+00 0. -1.
        -11    1    4    4    0    0 -0.13759738210E-02  0.23752966984E-01 -0.68422473954E-02  0.24762354794E-01  0.51100000000E-03 0.  1.
         11    1    4    4    0    0 -0.26047407668E-01  0.82729294304E-01 -0.66178435531E-01  0.10909835027E+00  0.51100000000E-03 0. -1.
</event>
<event>
 8    1  0.1126414E+005  0.1043930E+01  0.7957747E-01            NaN
         13   -1    0    0    0    0  0.00000000000E+00  0.00000000000E+00  0.74505805969E-08  0.10566000000E+00  0.10566000000E+00 0. -1.
     999900   -1    0    0    0    0 -0.00000000000E+00 -0.00000000000E+00 -0.74505805969E-08  0.93827000000E+00  0.93827000000E+00 0. -1.
     999902    2    1    2    0    0  0.17737238212E-01  0.41075205875E-02 -0.15338141690E-01  0.10201236997E+01  0.10198458818E+01 0.  0.
     999903    2    3    3    0    0  0.92078217964E-01  0.48363984546E-01  0.78367316120E-01  0.13092972269E+00  0.13552963678E-01 0.  0.
         14    1    1    2    0    0 -0.17737238212E-01 -0.41075205875E-02  0.15338141690E-01  0.23806300327E-01  0.00000000000E+00 0.  1.
     999901    1    3    3    0    0 -0.74340979752E-01 -0.44256463959E-01 -0.93705457809E-01  0.88919397698E+00  0.88000000000E+00 0. -1.
        -11    1    4    4    0    0  0.56384984914E-01  0.30895800750E-01  0.56359037057E-01  0.85500989507E-01  0.51100000000E-03 0. -1.
         11    1    4    4    0    0  0.35693233050E-01  0.17468183797E-01  0.22008279063E-01  0.45428733187E-01  0.51100000000E-03 0.  1.
</event>
<event>
 8    1  0.1126414E+005  0.1043930E+01  0.7957747E-01            NaN
         13   -1    0    0    0    0  0.00000000000E+00  0.00000000000E+00  0.74505805969E-08  0.10566000000E+00  0.10566000000E+00 0.  1.
     999900   -1    0    0    0    0 -0.00000000000E+00 -0.00000000000E+00 -0.74505805969E-08  0.93827000000E+00  0.93827000000E+00 0. -1.
     999902    2    1    2    0    0 -0.21901879544E-01  0.18591499819E-02 -0.87183661285E-02  0.10202834638E+01  0.10200094058E+01 0.  0.
     999903    2    3    3    0    0  0.58413777784E-01  0.11340328769E+00  0.80637743863E-02  0.12945556813E+00  0.20524243423E-01 0.  0.
         14    1    1    2    0    0  0.21901879544E-01 -0.18591499819E-02  0.87183661285E-02  0.23646536198E-01  0.00000000000E+00 0.  1.
     999901    1    3    3    0    0 -0.80315657328E-01 -0.11154413771E+00 -0.16782140515E-01  0.89082789567E+00  0.88000000000E+00 0. -1.
        -11    1    4    4    0    0  0.20113472673E-01  0.20844760360E-01  0.13695266017E-03  0.28971290866E-01  0.51100000000E-03 0. -1.
         11    1    4    4    0    0  0.38300305111E-01  0.92558527331E-01  0.79268217261E-02  0.10048427726E+00  0.51100000000E-03 0.  1.
</event>
<event>
 8    1  0.1126414E+005  0.1043930E+01  0.7957747E-01            NaN
         13   -1    0    0    0    0  0.00000000000E+00  0.00000000000E+00  0.74505805969E-08  0.10566000000E+00  0.10566000000E+00 0. -1.
     999900   -1    0    0    0    0 -0.00000000000E+00 -0.00000000000E+00 -0.74505805969E-08  0.93827000000E+00  0.93827000000E+00 0.  1.
     999902    2    1    2    0    0 -0.91344366366E-02 -0.11654178389E-01 -0.16961855571E-01  0.10214141755E+01  0.10211659785E+01 0.  0.
     999903    2    3    3    0    0 -0.75090706701E-01  0.15523025503E-01 -0.10781940845E+00  0.13386478261E+00  0.20375883607E-01 0.  0.
         14    1    1    2    0    0  0.91344366366E-02  0.11654178389E-01  0.16961855571E-01  0.22515824457E-01  0.00000000000E+00 0. -1.
     999901    1    3    3    0    0  0.65956270064E-01 -0.27177203891E-01  0.90857552877E-01  0.88754939293E+00  0.88000000000E+00 0. -1.
        -11    1    4    4    0    0 -0.53145748188E-01  0.27753589076E-02 -0.64137754895E-01  0.83343181434E-01  0.51100000000E-03 0.  1.
         11    1    4    4    0    0 -0.21944958513E-01  0.12747666595E-01 -0.43681653552E-01  0.50521601180E-01  0.51100000000E-03 0. -1.
</event>
<event>
 8    1  0.1126414E+005  0.1043930E+01  0.7957747E-01            NaN
         13   -1    0    0    0    0  0.00000000000E+00  0.00000000000E+00  0.74505805969E-08  0.10566000000E+00  0.10566000000E+00 0.  1.
     999900   -1    0    0    0    0 -0.00000000000E+00 -0.00000000000E+00 -0.74505805969E-08  0.93827000000E+00  0.93827000000E+00 0. -1.
     999902    2    1    2    0    0  0.20318714995E-01  0.19970710574E-01 -0.58616883285E-02  0.10148432530E+01  0.10144263351E+01 0.  0.
     999903    2    3    3    0    0  0.10311540627E+00 -0.86006270065E-02 -0.72802802810E-01  0.12796517446E+00  0.19185410702E-01 0.  0.
         14    1    1    2    0    0 -0.20318714995E-01 -0.19970710574E-01  0.58616883285E-02  0.29086746981E-01  0.00000000000E+00 0.  1.
     999901    1    3    3    0    0 -0.82796691271E-01  0.28571337581E-01  0.66941114481E-01  0.88687807856E+00  0.88000000000E+00 0. -1.
        -11    1    4    4    0    0  0.16439792970E-01  0.10838332286E-02 -0.42245867832E-02  0.17016161196E-01  0.51100000000E-03 0.  1.
         11    1    4    4    0    0  0.86675613296E-01 -0.96844602352E-02 -0.68578216027E-01  0.11094901327E+00  0.51100000000E-03 0. -1.
</event>
<event>
 8    1  0.1126414E+005  0.1043930E+01  0.7957747E-01            NaN
         13   -1    0    0    0    0  0.00000000000E+00  0.00000000000E+00  0.74505805969E-08  0.10566000000E+00  0.10566000000E+00 0.  1.
     999900   -1    0    0    0    0 -0.00000000000E+00 -0.00000000000E+00 -0.74505805969E-08  0.93827000000E+00  0.93827000000E+00 0. -1.
     999902    2    1    2    0    0 -0.18865416486E-01  0.23134911148E-02 -0.13168845740E-01  0.10208069665E+01  0.10205450447E+01 0.  0.
     999903    2    3    3    0    0 -0.25175334473E-01  0.44589241815E-01  0.11805867385E+00  0.13005014443E+00  0.18793393584E-01 0.  0.
         14    1    1    2    0    0  0.18865416486E-01 -0.23134911148E-02  0.13168845740E-01  0.23123033504E-01  0.00000000000E+00 0.  1.
     999901    1    3    3    0    0  0.63099179875E-02 -0.42275750700E-01 -0.13122751959E+00  0.89075682207E+00  0.88000000000E+00 0. -1.
        -11    1    4    4    0    0 -0.47948412586E-02  0.27002091452E-01  0.54130573984E-01  0.60683470619E-01  0.51100000000E-03 0.  1.
         11    1    4    4    0    0 -0.20380493215E-01  0.17587150363E-01  0.63928099868E-01  0.69366673809E-01  0.51100000000E-03 0. -1.
</event>
<event>
 8    1  0.1126414E+005  0.1043930E+01  0.7957747E-01            NaN
         13   -1    0    0    0    0  0.00000000000E+00  0.00000000000E+00  0.74505805969E-08  0.10566000000E+00  0.10566000000E+00 0. -1.
     999900   -1    0    0    0    0 -0.00000000000E+00 -0.00000000000E+00 -0.74505805969E-08  0.93827000000E+00  0.93827000000E+00 0. -1.
     999902    2    1    2    0    0  0.99688281511E-03 -0.19030212624E-01 -0.15612115892E-01  0.10192950466E+01  0.10189973067E+01 0.  0.
     999903    2    3    3    0    0 -0.12532637049E+00 -0.41186950420E-02 -0.28470593772E-01  0.13005646321E+00  0.19505028150E-01 0.  0.
         14    1    1    2    0    0 -0.99688281511E-03  0.19030212624E-01  0.15612115892E-01  0.24634953430E-01  0.00000000000E+00 0. -1.
     999901    1    3    3    0    0  0.12632325331E+00 -0.14911517582E-01  0.12858477879E-01  0.88923858336E+00  0.88000000000E+00 0.  1.
        -11    1    4    4    0    0 -0.21640062621E-01  0.89528812343E-03 -0.12541079333E-01  0.25032651535E-01  0.51100000000E-03 0. -1.
         11    1    4    4    0    0 -0.10368630787E+00 -0.50139831654E-02 -0.15929514438E-01  0.10502381167E+00  0.51100000000E-03 0.  1.
</event>
<event>
 8    1  0.1126414E+005  0.1043930E+01  0.7957747E-01            NaN
         13   -1    0    0    0    0  0.00000000000E+00  0.00000000000E+00  0.74505805969E-08  0.10566000000E+00  0.10566000000E+00 0.  1.
     999900   -1    0    0    0    0 -0.00000000000E+00 -0.00000000000E+00 -0.74505805969E-08  0.93827000000E+00  0.93827000000E+00 0. -1.
     999902    2    1    2    0    0 -0.12886463118E-01  0.99042079907E-02  0.17623210054E-01  0.10199564354E+01  0.10196746532E+01 0.  0.
     999903    2    3    3    0    0  0.88369782071E-01  0.65944245477E-01 -0.63331577348E-01  0.12869497510E+00  0.19840514901E-01 0.  0.
         14    1    1    2    0    0  0.12886463118E-01 -0.99042079907E-02 -0.17623210054E-01  0.23973564613E-01  0.00000000000E+00 0. -1.
     999901    1    3    3    0    0 -0.10125624519E+00 -0.56040037487E-01  0.80954787402E-01  0.89126146029E+00  0.88000000000E+00 0.  1.
        -11    1    4    4    0    0  0.44490116166E-01  0.22724022359E-01 -0.34313597047E-01  0.60608874696E-01  0.51100000000E-03 0.  1.
         11    1    4    4    0    0  0.43879665905E-01  0.43220223118E-01 -0.29017980302E-01  0.68086100403E-01  0.51100000000E-03 0. -1.
</event>
<event>
 8    1  0.1126414E+005  0.1043930E+01  0.7957747E-01            NaN
         13   -1    0    0    0    0  0.00000000000E+00  0.00000000000E+00  0.74505805969E-08  0.10566000000E+00  0.10566000000E+00 0.  1.
     999900   -1    0    0    0    0 -0.00000000000E+00 -0.00000000000E+00 -0.74505805969E-08  0.93827000000E+00  0.93827000000E+00 0. -1.
     999902    2    1    2    0    0  0.14230856602E-01  0.10205214033E-01 -0.16602411610E-01  0.10197990294E+01  0.10195134901E+01 0.  0.
     999903    2    3    3    0    0 -0.20823944513E-01 -0.28626518872E-02  0.12423554737E+00  0.12781531936E+00  0.21458173057E-01 0.  0.
         14    1    1    2    0    0 -0.14230856602E-01 -0.10205214033E-01  0.16602411610E-01  0.24130970647E-01  0.00000000000E+00 0.  1.
     999901    1    3    3    0    0  0.35054801115E-01  0.13067865921E-01 -0.14083795898E+00  0.89198370999E+00  0.88000000000E+00 0. -1.
        -11    1    4    4    0    0  0.43659025758E-03 -0.80645986354E-02  0.30293067890E-01  0.31355373469E-01  0.51100000000E-03 0. -1.
         11    1    4    4    0    0 -0.21260534771E-01  0.52019467482E-02  0.93942479485E-01  0.96459945892E-01  0.51100000000E-03 0.  1.
</event>
<event>
 8    1  0.1126414E+005  0.1043930E+01  0.7957747E-01            NaN
         13   -1    0    0    0    0  0.00000000000E+00  0.00000000000E+00  0.74505805969E-08  0.10566000000E+00  0.10566000000E+00 0. -1.
     999900   -1    0    0    0    0 -0.00000000000E+00 -0.00000000000E+00 -0.74505805969E-08  0.93827000000E+00  0.93827000000E+00 0.  1.
     999902    2    1    2    0    0  0.12280929390E-01 -0.20148082140E-03  0.19503122382E-01  0.10208814945E+01  0.10206212776E+01 0.  0.
     999903    2    3    3    0    0 -0.10883646444E+00 -0.14843573428E-02  0.70154693024E-01  0.13114184135E+00  0.20710439135E-01 0.  0.
         14    1    1    2    0    0 -0.12280929390E-01  0.20148082140E-03 -0.19503122382E-01  0.23048505458E-01  0.00000000000E+00 0.  1.
     999901    1    3    3    0    0  0.12111739383E+00  0.12828765214E-02 -0.50651570642E-01  0.88973965320E+00  0.88000000000E+00 0.  1.
        -11    1    4    4    0    0 -0.47435459920E-01  0.96053049419E-02  0.30258412948E-01  0.57080797262E-01  0.51100000000E-03 0.  1.
         11    1    4    4    0    0 -0.61401004522E-01 -0.11089662285E-01  0.39896280076E-01  0.74061044084E-01  0.51100000000E-03 0. -1.
</event>
<event>
 8    1  0.1126414E+005  0.1043930E+01  0.7957747E-01            NaN
         13   -1    0    0    0    0  0.00000000000E+00  0.00000000000E+00  0.74505805969E-08  0.10566000000E+00  0.10566000000E+00 0.  1.
     999900   -1    0    0    0    0 -0.00000000000E+00 -0.00000000000E+00 -0.74505805969E-08  0.93827000000E+00  0.93827000000E+00 0.  1.
     999902    2    1    2    0    0  0.10657505921E-01 -0.80041056010E-02 -0.17233123905E-01  0.10221440252E+01  0.10219118257E+01 0.  0.
     999903    2    3    3    0    0  0.10173497198E+00 -0.88947567823E-02  0.81371487237E-01  0.13196496038E+00  0.19086922518E-01 0.  0.
         14    1    1    2    0    0 -0.10657505921E-01  0.80041056010E-02  0.17233123905E-01  0.21785974811E-01  0.00000000000E+00 0.  1.
     999901    1    3    3    0    0 -0.91077466060E-01  0.89065118130E-03 -0.98604611142E-01  0.89017906481E+00  0.88000000000E+00 0. -1.
        -11    1    4    4    0    0  0.15343855512E-01 -0.57448115888E-02  0.20434543951E-01  0.26196726316E-01  0.51100000000E-03 0.  1.
         11    1    4    4    0    0  0.86391116468E-01 -0.31499451935E-02  0.60936943286E-01  0.10576823407E+00  0.51100000000E-03 0. -1.
</event>
<event>
 8    1  0.1126414E+005  0.1043930E+01  0.7957747E-01            NaN
         13   -1    0    0    0    0  0.00000000000E+00  0.00000000000E+00  0.74505805969E-08  0.10566000000E+00  0.10566000000E+00 0. -1.
     999900   -1    0    0    0    0 -0.00000000000E+00 -0.00000000000E+00 -0.74505805969E-08  0.93827000000E+00  0.93827000000E+00 0.  1.
     999902    2    1    2    0    0  0.39007522134E-02 -0.14905878766E-01 -0.14345846325E-01  0.10228775798E+01  0.10226609110E+01 0.  0.
     999903    2    3    3    0    0  0.15230403933E-01  0.86301174697E-02 -0.13203857137E+00  0.13465807897E+00  0.19803276750E-01 0.  0.
         14    1    1    2    0    0 -0.39007522134E-02  0.14905878766E-01  0.14345846325E-01  0.21052420203E-01  0.00000000000E+00 0. -1.
     999901    1    3    3    0    0 -0.11329651719E-01 -0.23535996236E-01  0.11769272505E+00  0.88821950083E+00  0.88000000000E+00 0. -1.
        -11    1    4    4    0    0 -0.44757977968E-02  0.17448041438E-02 -0.39420371610E-01  0.39715285802E-01  0.51100000000E-03 0. -1.
         11    1    4    4    0    0  0.19706201730E-01  0.68853133259E-02 -0.92618199760E-01  0.94942793165E-01  0.51100000000E-03 0.  1.
</event>
<event>
 8    1  0.1126414E+005  0.1043930E+01  0.7957747E-01            NaN
         13   -1    0    0    0    0  0.00000000000E+00  0.00000000000E+00  0.74505805969E-08  0.10566000000E+00  0.10566000000E+00 0. -1.
     999900   -1    0    0    0    0 -0.00000000000E+00 -0.00000000000E+00 -0.74505805969E-08  0.93827000000E+00  0.93827000000E+00 0. -1.
     999902    2    1    2    0    0 -0.23694418685E-01  0.60280590418E-02 -0.42955411797E-02  0.10191063289E+01  0.10188039532E+01 0.  0.
     999903    2    3    3    0    0 -0.12170444500E-01  0.12513049604E+00 -0.29598945693E-01  0.13064785787E+00  0.19672427886E-01 0.  0.
         14    1    1    2    0    0  0.23694418685E-01 -0.60280590418E-02  0.42955411797E-02  0.24823671096E-01  0.00000000000E+00 0.  1.
     999901    1    3    3    0    0 -0.11523974185E-01 -0.11910243700E+00  0.25303404513E-01  0.88845847104E+00  0.88000000000E+00 0. -1.
        -11    1    4    4    0    0  0.41779563005E-02  0.57702652889E-01 -0.12583958548E-01  0.59208686888E-01  0.51100000000E-03 0. -1.
         11    1    4    4    0    0 -0.16348400801E-01  0.67427843156E-01 -0.17014987145E-01  0.71439170977E-01  0.51100000000E-03 0.  1.
</event>
<event>
 8    1  0.1126414E+005  0.1043930E+01  0.7957747E-01            NaN
         13   -1    0    0    0    0  0.00000000000E+00  0.00000000000E+00  0.74505805969E-08  0.10566000000E+00  0.10566000000E+00 0. -1.
     999900   -1    0    0    0    0 -0.00000000000E+00 -0.00000000000E+00 -0.74505805969E-08  0.93827000000E+00  0.93827000000E+00 0.  1.
     999902    2    1    2    0    0  0.14249507288E-01  0.18634773231E-01 -0.26551560572E-02  0.10203216734E+01  0.10200485107E+01 0.  0.
     999903    2    3    3    0    0 -0.27032772238E-02  0.11971162213E+00 -0.53576134104E-01  0.13291146820E+00  0.21374659083E-01 0.  0.
         14    1    1    2    0    0 -0.14249507288E-01 -0.18634773231E-01  0.26551560572E-02  0.23608326603E-01  0.00000000000E+00 0. -1.
     999901    1    3    3    0    0  0.16952784512E-01 -0.10107684890E+00  0.50920978046E-01  0.88741020520E+00  0.88000000000E+00 0.  1.
        -11    1    4    4    0    0  0.17939386427E-02  0.55066330952E-01 -0.35824906210E-01  0.65720651597E-01  0.51100000000E-03 0. -1.
         11    1    4    4    0    0 -0.44972158665E-02  0.64645291183E-01 -0.17751227893E-01  0.67190816600E-01  0.51100000000E-03 0.  1.
</event>
<event>
 8    1  0.1126414E+005  0.1043930E+01  0.7957747E-01            NaN
         13   -1    0    0    0    0  0.00000000000E+00  0.00000000000E+00  0.74505805969E-08  0.10566000000E+00  0.10566000000E+00 0.  1.
     999900   -1    0    0    0    0 -0.00000000000E+00 -0.00000000000E+00 -0.74505805969E-08  0.93827000000E+00  0.93827000000E+00 0. -1.
     999902    2    1    2    0    0 -0.93005310250E-02 -0.13298678731E-01 -0.16848893979E-01  0.10205368394E+01  0.10202686904E+01 0.  0.
     999903    2    3    3    0    0 -0.44578894455E-01 -0.66654821994E-01 -0.10536612278E+00  0.13378617506E+00  0.19146218524E-01 0.  0.
         14    1    1    2    0    0  0.93005310250E-02  0.13298678731E-01  0.16848893979E-01  0.23393160575E-01  0.00000000000E+00 0.  1.
     999901    1    3    3    0    0  0.35278363430E-01  0.53356143262E-01  0.88517228797E-01  0.88675066436E+00  0.88000000000E+00 0.  1.
        -11    1    4    4    0    0 -0.77915272507E-02 -0.11560398771E-01 -0.81925783407E-02  0.16178077065E-01  0.51100000000E-03 0.  1.
         11    1    4    4    0    0 -0.36787367205E-01 -0.55094423222E-01 -0.97173544435E-01  0.11760809800E+00  0.51100000000E-03 0. -1.
</event>
<event>
 8    1  0.1126414E+005  0.1043930E+01  0.7957747E-01            NaN
         13   -1    0    0    0    0  0.00000000000E+00  0.00000000000E+00  0.74505805969E-08  0.10566000000E+00  0.10566000000E+00 0. -1.
     999900   -1    0    0    0    0 -0.00000000000E+00 -0.00000000000E+00 -0.74505805969E-08  0.93827000000E+00  0.93827000000E+00 0.  1.
     999902    2    1    2    0    0  0.68658294027E-02  0.20664661416E-01 -0.52081718409E-02  0.10215404288E+01  0.10212950381E+01 0.  0.
     999903    2    3    3    0    0  0.19020732424E-01 -0.13232779763E-01  0.12724376936E+00  0.13090004406E+00  0.20173001080E-01 0.  0.
         14    1    1    2    0    0 -0.68658294027E-02 -0.20664661416E-01  0.52081718409E-02  0.22389571205E-01  0.00000000000E+00 0. -1.
     999901    1    3    3    0    0 -0.12154903021E-01  0.33897441179E-01 -0.13245194120E+00  0.89064038473E+00  0.88000000000E+00 0.  1.
        -11    1    4    4    0    0  0.84392745869E-02 -0.13869763531E-01  0.42570278380E-01  0.45564036457E-01  0.51100000000E-03 0.  1.
         11    1    4    4    0    0  0.10581457837E-01  0.63698376841E-03  0.84673490981E-01  0.85336007606E-01  0.51100000000E-03 0. -1.
</event>
<event>
 8    1  0.1126414E+005  0.1043930E+01  0.7957747E-01            NaN
         13   -1    0    0    0    0  0.00000000000E+00  0.00000000000E+00  0.74505805969E-08  0.10566000000E+00  0.10566000000E+00 0. -1.
     999900   -1    0    0    0    0 -0.00000000000E+00 -0.00000000000E+00 -0.74505805969E-08  0.93827000000E+00  0.93827000000E+00 0.  1.
     999902    2    1    2    0    0  0.98933838006E-02  0.39827841016E-03  0.21352479110E-01  0.10203935170E+01  0.10201220336E+01 0.  0.
     999903    2    3    3    0    0  0.41457227074E-01  0.11379702833E+00  0.48898581979E-01  0.13212872512E+00  0.19961546707E-01 0.  0.
         14    1    1    2    0    0 -0.98933838006E-02 -0.39827841016E-03 -0.21352479110E-01  0.23536483018E-01  0.00000000000E+00 0.  1.
     999901    1    3    3    0    0 -0.31563843273E-01 -0.11339874992E+00 -0.27546102869E-01  0.88826479187E+00  0.88000000000E+00 0. -1.
        -11    1    4    4    0    0  0.21444919522E-01  0.63420210570E-01  0.16415757847E-01  0.68932908750E-01  0.51100000000E-03 0.  1.
         11    1    4    4    0    0  0.20012307551E-01  0.50376817764E-01  0.32482824132E-01  0.63195816366E-01  0.51100000000E-03 0. -1.
</event>
<event>
 8    1  0.1126414E+005  0.1043930E+01  0.7957747E-01            NaN
         13   -1    0    0    0    0  0.00000000000E+00  0.00000000000E+00  0.74505805969E-08  0.10566000000E+00  0.10566000000E+00 0.  1.
     999900   -1    0    0    0    0 -0.00000000000E+00 -0.00000000000E+00 -0.74505805969E-08  0.93827000000E+00  0.93827000000E+00 0. -1.
     999902    2    1    2    0    0 -0.21233795045E-01  0.27794255210E-02  0.18929160600E-01  0.10153483209E+01  0.10149459594E+01 0.  0.
     999903    2    3    3    0    0 -0.48148694257E-01 -0.78960426291E-01  0.87017505499E-01  0.12853276068E+00  0.19889158476E-01 0.  0.
         14    1    1    2    0    0  0.21233795045E-01 -0.27794255210E-02 -0.18929160600E-01  0.28581679084E-01  0.00000000000E+00 0. -1.
     999901    1    3    3    0    0  0.26914899212E-01  0.81739851812E-01 -0.68088344899E-01  0.88681556024E+00  0.88000000000E+00 0. -1.
        -11    1    4    4    0    0 -0.12121515493E-01 -0.29176555000E-01  0.40974640428E-01  0.51743451554E-01  0.51100000000E-03 0. -1.
         11    1    4    4    0    0 -0.36027178764E-01 -0.49783871291E-01  0.46042865071E-01  0.76789309122E-01  0.51100000000E-03 0.  1.
</event>
<event>
 8    1  0.1126414E+005  0.1043930E+01  0.7957747E-01            NaN
         13   -1    0    0    0    0  0.00000000000E+00  0.00000000000E+00  0.74505805969E-08  0.10566000000E+00  0.10566000000E+00 0. -1.
     999900   -1    0    0    0    0 -0.00000000000E+00 -0.00000000000E+00 -0.74505805969E-08  0.93827000000E+00  0.93827000000E+00 0. -1.
     999902    2    1    2    0    0 -0.19634797017E-01 -0.72635121113E-02 -0.12412569652E-01  0.10195916404E+01  0.10193011123E+01 0.  0.
     999903    2    3    3    0    0 -0.38979939022E-01  0.27559048104E-02  0.12151265479E+00  0.12919252261E+00  0.19958756657E-01 0.  0.
         14    1    1    2    0    0  0.19634797017E-01  0.72635121113E-02  0.12412569652E-01  0.24338359588E-01  0.00000000000E+00 0. -1.
     999901    1    3    3    0    0  0.19345142005E-01 -0.10019416922E-01 -0.13392522444E+00  0.89039911780E+00  0.88000000000E+00 0. -1.
        -11    1    4    4    0    0 -0.22352313733E-01 -0.26945937913E-02  0.93387473648E-01  0.96064395695E-01  0.51100000000E-03 0.  1.
         11    1    4    4    0    0 -0.16627625289E-01  0.54504986016E-02  0.28125181143E-01  0.33128126918E-01  0.51100000000E-03 0. -1.
</event>
<event>
 8    1  0.1126414E+005  0.1043930E+01  0.7957747E-01            NaN
         13   -1    0    0    0    0  0.00000000000E+00  0.00000000000E+00  0.74505805969E-08  0.10566000000E+00  0.10566000000E+00 0. -1.
     999900   -1    0    0    0    0 -0.00000000000E+00 -0.00000000000E+00 -0.74505805969E-08  0.93827000000E+00  0.93827000000E+00 0. -1.
     999902    2    1    2    0    0 -0.18292938697E-02 -0.22927068640E-01  0.64391417663E-02  0.10200457094E+01  0.10197660466E+01 0.  0.
     999903    2    3    3    0    0 -0.51356178891E-01 -0.10035719416E+00 -0.66141648953E-01  0.13228655967E+00  0.20395896992E-01 0.  0.
         14    1    1    2    0    0  0.18292938697E-02  0.22927068640E-01 -0.64391417663E-02  0.23884290636E-01  0.00000000000E+00 0.  1.
     999901    1    3    3    0    0  0.49526885022E-01  0.77430125520E-01  0.72580790719E-01  0.88775914969E+00  0.88000000000E+00 0.  1.
        -11    1    4    4    0    0 -0.42184405091E-01 -0.63210393151E-01 -0.48473034322E-01  0.90138637735E-01  0.51100000000E-03 0. -1.
         11    1    4    4    0    0 -0.91717738004E-02 -0.37146801009E-01 -0.17668614630E-01  0.42147921939E-01  0.51100000000E-03 0.  1.
</event>
<event>
 8    1  0.1126414E+005  0.1043930E+01  0.7957747E-01            NaN
         13   -1    0    0    0    0  0.00000000000E+00  0.00000000000E+00  0.74505805969E-08  0.10566000000E+00  0.10566000000E+00 0. -1.
     999900   -1    0    0    0    0 -0.00000000000E+00 -0.00000000000E+00 -0.74505805969E-08  0.93827000000E+00  0.93827000000E+00 0. -1.
     999902    2    1    2    0    0  0.10460208844E-01 -0.96025278844E-02 -0.19362243613E-01  0.10199191485E+01  0.10196364786E+01 0.  0.
     999903    2    3    3    0    0  0.11828489381E-02 -0.31931089476E-01  0.12256522329E+00  0.12821962518E+00  0.19925980877E-01 0.  0.
         14    1    1    2    0    0 -0.10460208844E-01  0.96025278844E-02  0.19362243613E-01  0.24010851475E-01  0.00000000000E+00 0. -1.
     999901    1    3    3    0    0  0.92773599059E-02  0.22328561591E-01 -0.14192746691E+00  0.89169952334E+00  0.88000000000E+00 0. -1.
        -11    1    4    4    0    0 -0.48011604213E-02 -0.28356956724E-01  0.11134666903E+00  0.11500221721E+00  0.51100000000E-03 0. -1.
         11    1    4    4    0    0  0.59840093594E-02 -0.35741327514E-02  0.11218554259E-01  0.13217407975E-01  0.51100000000E-03 0.  1.
</event>
<event>
 8    1  0.1126414E+005  0.1043930E+01  0.7957747E-01            NaN
         13   -1    0    0    0    0  0.00000000000E+00  0.00000000000E+00  0.74505805969E-08  0.10566000000E+00  0.10566000000E+00 0. -1.
     999900   -1    0    0    0    0 -0.00000000000E+00 -0.00000000000E+00 -0.74505805969E-08  0.93827000000E+00  0.93827000000E+00 0.  1.
     999902    2    1    2    0    0  0.19235486133E-01  0.15353216760E-01 -0.28938518417E-02  0.10191489675E+01  0.10188476424E+01 0.  0.
     999903    2    3    3    0    0 -0.11983683524E+00  0.15151098298E-01  0.35329462399E-01  0.12740787665E+00  0.19853797090E-01 0.  0.
         14    1    1    2    0    0 -0.19235486133E-01 -0.15353216760E-01  0.28938518417E-02  0.24781032467E-01  0.00000000000E+00 0. -1.
     999901    1    3    3    0    0  0.13907232137E+00  0.20211846172E-03 -0.38223314241E-01  0.89174109089E+00  0.88000000000E+00 0.  1.
        -11    1    4    4    0    0 -0.38989528855E-01 -0.43083968688E-02  0.10159241080E-01  0.40524275986E-01  0.51100000000E-03 0.  1.
         11    1    4    4    0    0 -0.80847306382E-01  0.19459495167E-01  0.25170221319E-01  0.86883600660E-01  0.51100000000E-03 0. -1.
</event>
<event>
 8    1  0.1126414E+005  0.1043930E+01  0.7957747E-01            NaN
         13   -1    0    0    0    0  0.00000000000E+00  0.00000000000E+00  0.74505805969E-08  0.10566000000E+00  0.10566000000E+00 0. -1.
     999900   -1    0    0    0    0 -0.00000000000E+00 -0.00000000000E+00 -0.74505805969E-08  0.93827000000E+00  0.93827000000E+00 0.  1.
     999902    2    1    2    0    0 -0.19880706582E-01  0.10078668722E-01  0.66936773644E-02  0.10206571107E+01  0.10203917436E+01 0.  0.
     999903    2    3    3    0    0 -0.20659803732E-01  0.59742600231E-01  0.11504399573E+00  0.13262169221E+00  0.18904669218E-01 0.  0.
         14    1    1    2    0    0  0.19880706582E-01 -0.10078668722E-01 -0.66936773644E-02  0.23272889251E-01  0.00000000000E+00 0.  1.
     999901    1    3    3    0    0  0.77909714951E-03 -0.49663931509E-01 -0.10835031837E+00  0.88803541854E+00  0.88000000000E+00 0.  1.
        -11    1    4    4    0    0 -0.13835307727E-01  0.56860994993E-01  0.10072995648E+00  0.11649623919E+00  0.51100000000E-03 0. -1.
         11    1    4    4    0    0 -0.68244960052E-02  0.28816052376E-02  0.14314039253E-01  0.16125453024E-01  0.51100000000E-03 0.  1.
</event>
<event>
 8    1  0.1126414E+005  0.1043930E+01  0.7957747E-01            NaN
         13   -1    0    0    0    0  0.00000000000E+00  0.00000000000E+00  0.74505805969E-08  0.10566000000E+00  0.10566000000E+00 0.  1.
     999900   -1    0    0    0    0 -0.00000000000E+00 -0.00000000000E+00 -0.74505805969E-08  0.93827000000E+00  0.93827000000E+00 0.  1.
     999902    2    1    2    0    0  0.18354981783E-01  0.14355565995E-02 -0.15022781323E-01  0.10201676319E+01  0.10198908506E+01 0.  0.
     999903    2    3    3    0    0  0.49118681304E-01 -0.32805108209E-01 -0.11711718879E+00  0.13307006321E+00  0.22413965229E-01 0.  0.
         14    1    1    2    0    0 -0.18354981783E-01 -0.14355565995E-02  0.15022781323E-01  0.23762368099E-01  0.00000000000E+00 0.  1.
     999901    1    3    3    0    0 -0.30763699521E-01  0.34240664808E-01  0.10209440746E+00  0.88709756869E+00  0.88000000000E+00 0. -1.
        -11    1    4    4    0    0  0.50904256489E-01 -0.28578814668E-01 -0.10562047159E+00  0.12068113820E+00  0.51100000000E-03 0. -1.
         11    1    4    4    0    0 -0.17855751851E-02 -0.42262935406E-02 -0.11496717191E-01  0.12388925014E-01  0.51100000000E-03 0.  1.
</event>
<event>
 8    1  0.1126414E+005  0.1043930E+01  0.7957747E-01            NaN
         13   -1    0    0    0    0  0.00000000000E+00  0.00000000000E+00  0.74505805969E-08  0.10566000000E+00  0.10566000000E+00 0.  1.
     999900   -1    0    0    0    0 -0.00000000000E+00 -0.00000000000E+00 -0.74505805969E-08  0.93827000000E+00  0.93827000000E+00 0. -1.
     999902    2    1    2    0    0  0.67868598215E-02 -0.14752391519E-01 -0.17846714087E-01  0.10198011847E+01  0.10195156971E+01 0.  0.
     999903    2    3    3    0    0  0.10578096158E+00  0.67586759418E-01  0.24663677442E-01  0.12941548105E+00  0.19557297085E-01 0.  0.
         14    1    1    2    0    0 -0.67868598215E-02  0.14752391519E-01  0.17846714087E-01  0.24128815252E-01  0.00000000000E+00 0.  1.
     999901    1    3    3    0    0 -0.98994101759E-01 -0.82339150937E-01 -0.42510391529E-01  0.89038570370E+00  0.88000000000E+00 0. -1.
        -11    1    4    4    0    0  0.48212807272E-01  0.34168042765E-01  0.21130908908E-02  0.59132530857E-01  0.51100000000E-03 0. -1.
         11    1    4    4    0    0  0.57568154308E-01  0.33418716652E-01  0.22550586551E-01  0.70282950194E-01  0.51100000000E-03 0.  1.
</event>
<event>
 8    1  0.1126414E+005  0.1043930E+01  0.7957747E-01            NaN
         13   -1    0    0    0    0  0.00000000000E+00  0.00000000000E+00  0.74505805969E-08  0.10566000000E+00  0.10566000000E+00 0.  1.
     999900   -1    0    0    0    0 -0.00000000000E+00 -0.00000000000E+00 -0.74505805969E-08  0.93827000000E+00  0.93827000000E+00 0.  1.
     999902    2    1    2    0    0  0.81775302967E-02  0.47085579894E-02 -0.10988162452E-01  0.10294461388E+01  0.10293442430E+01 0.  0.
     999903    2    3    3    0    0  0.11807508909E+00  0.68428423172E-01  0.24801185009E-01  0.13960425848E+00  0.15813742370E-01 0.  0.
         14    1    1    2    0    0 -0.81775302967E-02 -0.47085579894E-02  0.10988162452E-01  0.14483861162E-01  0.00000000000E+00 0.  1.
     999901    1    3    3    0    0 -0.10989755879E+00 -0.63719865183E-01 -0.35789347460E-01  0.88984188036E+00  0.88000000000E+00 0.  1.
        -11    1    4    4    0    0  0.47694652684E-01  0.31423995629E-01  0.32133326648E-02  0.57208688359E-01  0.51100000000E-03 0. -1.
         11    1    4    4    0    0  0.70380436401E-01  0.37004427543E-01  0.21587852344E-01  0.82395570121E-01  0.51100000000E-03 0.  1.
</event>
<event>
 8    1  0.1126414E+005  0.1043930E+01  0.7957747E-01            NaN
         13   -1    0    0    0    0  0.00000000000E+00  0.00000000000E+00  0.74505805969E-08  0.10566000000E+00  0.10566000000E+00 0. -1.
     999900   -1    0    0    0    0 -0.00000000000E+00 -0.00000000000E+00 -0.74505805969E-08  0.93827000000E+00  0.93827000000E+00 0. -1.
     999902    2    1    2    0    0 -0.25824703249E-02 -0.41659670194E-02  0.22748603493E-01  0.10206593448E+01  0.10203940291E+01 0.  0.
     999903    2    3    3    0    0 -0.61452482435E-01 -0.23355806045E-01  0.11466237207E+00  0.13370834888E+00  0.20212909673E-01 0.  0.
         14    1    1    2    0    0  0.25824703249E-02  0.41659670194E-02 -0.22748603493E-01  0.23270655235E-01  0.00000000000E+00 0.  1.
     999901    1    3    3    0    0  0.58870012110E-01  0.19189839026E-01 -0.91913768579E-01  0.88695099589E+00  0.88000000000E+00 0. -1.
        -11    1    4    4    0    0 -0.44752995194E-01 -0.10848942126E-01  0.92111792252E-01  0.10298239421E+00  0.51100000000E-03 0.  1.
         11    1    4    4    0    0 -0.16699487241E-01 -0.12506863919E-01  0.22550579820E-01  0.30725954670E-01  0.51100000000E-03 0. -1.
</event>
<event>
 8    1  0.1126414E+005  0.1043930E+01  0.7957747E-01            NaN
         13   -1    0    0    0    0  0.00000000000E+00  0.00000000000E+00  0.74505805969E-08  0.10566000000E+00  0.10566000000E+00 0. -1.
     999900   -1    0    0    0    0 -0.00000000000E+00 -0.00000000000E+00 -0.74505805969E-08  0.93827000000E+00  0.93827000000E+00 0.  1.
     999902    2    1    2    0    0  0.14048565815E-02  0.10648735894E-01 -0.19127874624E-01  0.10219927079E+01  0.10217572364E+01 0.  0.
     999903    2    3    3    0    0  0.29926179817E-01  0.25964016117E-01 -0.12715910885E+00  0.13479556448E+00  0.20753285672E-01 0.  0.
         14    1    1    2    0    0 -0.14048565815E-02 -0.10648735894E-01  0.19127874624E-01  0.21937292125E-01  0.00000000000E+00 0. -1.
     999901    1    3    3    0    0 -0.28521323236E-01 -0.15315280222E-01  0.10803123423E+00  0.88719714340E+00  0.88000000000E+00 0. -1.
        -11    1    4    4    0    0  0.13928174820E-01  0.94733435531E-03 -0.55384745492E-01  0.57119371936E-01  0.51100000000E-03 0.  1.
         11    1    4    4    0    0  0.15998004998E-01  0.25016681761E-01 -0.71774363362E-01  0.77676192539E-01  0.51100000000E-03 0. -1.
</event>
<event>
 8    1  0.1126414E+005  0.1043930E+01  0.7957747E-01            NaN
         13   -1    0    0    0    0  0.00000000000E+00  0.00000000000E+00  0.74505805969E-08  0.10566000000E+00  0.10566000000E+00 0. -1.
     999900   -1    0    0    0    0 -0.00000000000E+00 -0.00000000000E+00 -0.74505805969E-08  0.93827000000E+00  0.93827000000E+00 0. -1.
     999902    2    1    2    0    0 -0.37363724679E-02  0.22035367211E-01 -0.60235446395E-02  0.10207826248E+01  0.10205201449E+01 0.  0.
     999903    2    3    3    0    0  0.10661202424E+00 -0.59715936137E-01 -0.38118143139E-01  0.12955307667E+00  0.19972233146E-01 0.  0.
         14    1    1    2    0    0  0.37363724679E-02 -0.22035367211E-01  0.60235446395E-02  0.23147375173E-01  0.00000000000E+00 0. -1.
     999901    1    3    3    0    0 -0.11034839671E+00  0.81751303349E-01  0.32094598500E-01  0.89122954816E+00  0.88000000000E+00 0. -1.
        -11    1    4    4    0    0  0.83231158048E-01 -0.47548644838E-01 -0.21029417460E-01  0.98136623213E-01  0.51100000000E-03 0.  1.
         11    1    4    4    0    0  0.23380866193E-01 -0.12167291299E-01 -0.17088725679E-01  0.31416453457E-01  0.51100000000E-03 0. -1.
</event>
<event>
 8    1  0.1126414E+005  0.1043930E+01  0.7957747E-01            NaN
         13   -1    0    0    0    0  0.00000000000E+00  0.00000000000E+00  0.74505805969E-08  0.10566000000E+00  0.10566000000E+00 0. -1.
     999900   -1    0    0    0    0 -0.00000000000E+00 -0.00000000000E+00 -0.74505805969E-08  0.93827000000E+00  0.93827000000E+00 0. -1.
     999902    2    1    2    0    0  0.24482889968E-02  0.11918106029E-01 -0.20128109051E-01  0.10204103031E+01  0.10201392113E+01 0.  0.
     999903    2    3    3    0    0  0.10475398549E+00  0.73647124213E-01  0.21465146023E-01  0.13136197699E+00  0.19947935302E-01 0.  0.
         14    1    1    2    0    0 -0.24482889968E-02 -0.11918106029E-01  0.20128109051E-01  0.23519696943E-01  0.00000000000E+00 0. -1.
     999901    1    3    3    0    0 -0.10230569649E+00 -0.61729018184E-01 -0.41593255074E-01  0.88904832607E+00  0.88000000000E+00 0. -1.
        -11    1    4    4    0    0  0.48864685321E-01  0.33300436427E-01  0.19960330948E-01  0.62412758874E-01  0.51100000000E-03 0.  1.
         11    1    4    4    0    0  0.55889300170E-01  0.40346687786E-01  0.15048150744E-02  0.68949218112E-01  0.51100000000E-03 0. -1.
</event>
<event>
 8    1  0.1126414E+005  0.1043930E+01  0.7957747E-01            NaN
         13   -1    0    0    0    0  0.00000000000E+00  0.00000000000E+00  0.74505805969E-08  0.10566000000E+00  0.10566000000E+00 0. -1.
     999900   -1    0    0    0    0 -0.00000000000E+00 -0.00000000000E+00 -0.74505805969E-08  0.93827000000E+00  0.93827000000E+00 0. -1.
     999902    2    1    2    0    0  0.20669941945E-01  0.12331736331E-01  0.20859610935E-02  0.10197707481E+01  0.10194845311E+01 0.  0.
     999903    2    3    3    0    0 -0.32685886064E-01 -0.35420924936E-01 -0.11769417444E+00  0.12877442825E+00  0.20197168165E-01 0.  0.
         14    1    1    2    0    0 -0.20669941945E-01 -0.12331736331E-01 -0.20859610935E-02  0.24159251947E-01  0.00000000000E+00 0.  1.
     999901    1    3    3    0    0  0.53355828009E-01  0.47752661267E-01  0.11978013553E+00  0.89099631981E+00  0.88000000000E+00 0.  1.
        -11    1    4    4    0    0 -0.26767791417E-01 -0.36389274115E-01 -0.93490078420E-01  0.10383327892E+00  0.51100000000E-03 0.  1.
         11    1    4    4    0    0 -0.59180946472E-02  0.96834917991E-03 -0.24204096020E-01  0.24941149323E-01  0.51100000000E-03 0. -1.
</event>
<event>
 8    1  0.1126414E+005  0.1043930E+01  0.7957747E-01            NaN
         13   -1    0    0    0    0  0.00000000000E+00  0.00000000000E+00  0.74505805969E-08  0.10566000000E+00  0.10566000000E+00 0. -1.
     999900   -1    0    0    0    0 -0.00000000000E+00 -0.00000000000E+00 -0.74505805969E-08  0.93827000000E+00  0.93827000000E+00 0. -1.
     999902    2    1    2    0    0  0.13377295637E-01  0.72808904115E-02  0.18325431435E-01  0.10201017638E+01  0.10198234277E+01 0.  0.
     999903    2    3    3    0    0 -0.12572508345E+00 -0.99407158973E-02  0.18139154915E-01  0.12900912534E+00  0.20216603077E-01 0.  0.
         14    1    1    2    0    0 -0.13377295637E-01 -0.72808904115E-02 -0.18325431435E-01  0.23828236212E-01  0.00000000000E+00 0.  1.
     999901    1    3    3    0    0  0.13910237909E+00  0.17221606309E-01  0.18627651969E-03  0.89109263844E+00  0.88000000000E+00 0.  1.
        -11    1    4    4    0    0 -0.10795277834E+00 -0.13076568729E-02  0.15505226812E-01  0.10906963600E+00  0.51100000000E-03 0. -1.
         11    1    4    4    0    0 -0.17772305113E-01 -0.86330590245E-02  0.26339281027E-02  0.19939489347E-01  0.51100000000E-03 0.  1.
</event>
<event>
 8    1  0.1126414E+005  0.1043930E+01  0.7957747E-01            NaN
         13   -1    0    0    0    0  0.00000000000E+00  0.00000000000E+00  0.74505805969E-08  0.10566000000E+00  0.10566000000E+00 0.  1.
     999900   -1    0    0    0    0 -0.00000000000E+00 -0.00000000000E+00 -0.74505805969E-08  0.93827000000E+00  0.93827000000E+00 0.  1.
     999902    2    1    2    0    0 -0.20562098337E-01  0.79610361747E-02  0.10527843768E-01  0.10194961407E+01  0.10192033004E+01 0.  0.
     999903    2    3    3    0    0 -0.28916315519E-01 -0.40909621427E-01  0.11978631004E+00  0.13135451543E+00  0.19887137089E-01 0.  0.
         14    1    1    2    0    0  0.20562098337E-01 -0.79610361747E-02 -0.10527843768E-01  0.24433859282E-01  0.00000000000E+00 0. -1.
     999901    1    3    3    0    0  0.83542171816E-02  0.48870657602E-01 -0.10925846627E+00  0.88814162529E+00  0.88000000000E+00 0.  1.
        -11    1    4    4    0    0 -0.44633398757E-02 -0.20610034871E-01  0.35766060377E-01  0.41523091601E-01  0.51100000000E-03 0.  1.
         11    1    4    4    0    0 -0.24452975643E-01 -0.20299586556E-01  0.84020249665E-01  0.89831423828E-01  0.51100000000E-03 0. -1.
</event>
<event>
 8    1  0.1126414E+005  0.1043930E+01  0.7957747E-01            NaN
         13   -1    0    0    0    0  0.00000000000E+00  0.00000000000E+00  0.74505805969E-08  0.10566000000E+00  0.10566000000E+00 0. -1.
     999900   -1    0    0    0    0 -0.00000000000E+00 -0.00000000000E+00 -0.74505805969E-08  0.93827000000E+00  0.93827000000E+00 0. -1.
     999902    2    1    2    0    0  0.23492890542E-01  0.14743675304E-02 -0.11572746158E-01  0.10176999005E+01  0.10173618183E+01 0.  0.
     999903    2    3    3    0    0  0.12683986952E+00  0.26618790932E-01 -0.73666029379E-02  0.13128547614E+00  0.19613691007E-01 0.  0.
         14    1    1    2    0    0 -0.23492890542E-01 -0.14743675304E-02  0.11572746158E-01  0.26230099490E-01  0.00000000000E+00 0. -1.
     999901    1    3    3    0    0 -0.10334697898E+00 -0.25144423402E-01 -0.42061432196E-02  0.88641442437E+00  0.88000000000E+00 0.  1.
        -11    1    4    4    0    0  0.18759701499E-01  0.11149382051E-01  0.33507792948E-03  0.21831365479E-01  0.51100000000E-03 0. -1.
         11    1    4    4    0    0  0.10808016802E+00  0.15469408881E-01 -0.77016808674E-02  0.10945411066E+00  0.51100000000E-03 0.  1.
</event>
<event>
 8    1  0.1126414E+005  0.1043930E+01  0.7957747E-01            NaN
         13   -1    0    0    0    0  0.00000000000E+00  0.00000000000E+00  0.74505805969E-08  0.10566000000E+00  0.10566000000E+00 0. -1.
     999900   -1    0    0    0    0 -0.00000000000E+00 -0.00000000000E+00 -0.74505805969E-08  0.93827000000E+00  0.93827000000E+00 0.  1.
     999902    2    1    2    0    0 -0.19305225400E-01  0.67687985570E-03  0.14040498319E-01  0.10200493491E+01  0.10197697726E+01 0.  0.
     999903    2    3    3    0    0  0.11076708767E+00 -0.31798620177E-01  0.54073016676E-01  0.12899600207E+00  0.20870492638E-01 0.  0.
         14    1    1    2    0    0  0.19305225400E-01 -0.67687985570E-03 -0.14040498319E-01  0.23880650894E-01  0.00000000000E+00 0.  1.
     999901    1    3    3    0    0 -0.13007231307E+00  0.32475500033E-01 -0.40032518357E-01  0.89105334703E+00  0.88000000000E+00 0.  1.
        -11    1    4    4    0    0  0.59181412615E-01 -0.20422831582E-01  0.40108925239E-01  0.74354008996E-01  0.51100000000E-03 0.  1.
         11    1    4    4    0    0  0.51585675054E-01 -0.11375788595E-01  0.13964091437E-01  0.54641993079E-01  0.51100000000E-03 0. -1.
</event>
<event>
 8    1  0.1126414E+005  0.1043930E+01  0.7957747E-01            NaN
         13   -1    0    0    0    0  0.00000000000E+00  0.00000000000E+00  0.74505805969E-08  0.10566000000E+00  0.10566000000E+00 0.  1.
     999900   -1    0    0    0    0 -0.00000000000E+00 -0.00000000000E+00 -0.74505805969E-08  0.93827000000E+00  0.93827000000E+00 0. -1.
     999902    2    1    2    0    0 -0.24036578662E-01  0.53561035423E-03 -0.83802979584E-02  0.10184687866E+01  0.10181504781E+01 0.  0.
     999903    2    3    3    0    0  0.59210592714E-01 -0.65901148379E-01  0.88391589736E-01  0.12678008944E+00  0.20279602939E-01 0.  0.
         14    1    1    2    0    0  0.24036578662E-01 -0.53561035423E-03  0.83802979584E-02  0.25461213367E-01  0.00000000000E+00 0.  1.
     999901    1    3    3    0    0 -0.83247171376E-01  0.66436758733E-01 -0.96771887694E-01  0.89168869719E+00  0.88000000000E+00 0. -1.
        -11    1    4    4    0    0  0.33353964855E-01 -0.33041696706E-01  0.60216144170E-01  0.76357618038E-01  0.51100000000E-03 0.  1.
         11    1    4    4    0    0  0.25856627859E-01 -0.32859451674E-01  0.28175445565E-01  0.50422471402E-01  0.51100000000E-03 0. -1.
</event>
<event>
 8    1  0.1587215E+005  0.1043930E+01  0.7957747E-01            NaN
         13   -1    0    0    0    0  0.00000000000E+00  0.00000000000E+00  0.74505805969E-08  0.10566000000E+00  0.10566000000E+00 0.  1.
     999900   -1    0    0    0    0 -0.00000000000E+00 -0.00000000000E+00 -0.74505805969E-08  0.93827000000E+00  0.93827000000E+00 0. -1.
     999902    2    1    2    0    0  0.17485252311E-01  0.15445165568E-01 -0.53431231997E-02  0.10199960042E+01  0.10197151624E+01 0.  0.
     999903    2    3    3    0    0 -0.89145675027E-01 -0.57535571082E-01 -0.69177509815E-01  0.12827229618E+00  0.20272167812E-01 0.  0.
         14    1    1    2    0    0 -0.17485252311E-01 -0.15445165568E-01  0.53431231997E-02  0.23933995766E-01  0.00000000000E+00 0. -1.
     999901    1    3    3    0    0  0.10663092734E+00  0.72980736651E-01  0.63834386615E-01  0.89172370805E+00  0.88000000000E+00 0.  1.
        -11    1    4    4    0    0 -0.42349878373E-01 -0.15754416777E-01 -0.31638731513E-01  0.55163251345E-01  0.51100000000E-03 0.  1.
         11    1    4    4    0    0 -0.46795796654E-01 -0.41781154305E-01 -0.37538778302E-01  0.73109044837E-01  0.51100000000E-03 0. -1.
</event>
<event>
 8    1  0.1126414E+005  0.1043930E+01  0.7957747E-01            NaN
         13   -1    0    0    0    0  0.00000000000E+00  0.00000000000E+00  0.74505805969E-08  0.10566000000E+00  0.10566000000E+00 0.  1.
     999900   -1    0    0    0    0 -0.00000000000E+00 -0.00000000000E+00 -0.74505805969E-08  0.93827000000E+00  0.93827000000E+00 0.  1.
     999902    2    1    2    0    0 -0.10774102606E-01  0.90006407017E-02 -0.18734164712E-01  0.10205192814E+01  0.10202507250E+01 0.  0.
     999903    2    3    3    0    0 -0.99921544741E-01  0.80608709645E-01  0.22640841553E-01  0.13215737699E+00  0.21699894323E-01 0.  0.
         14    1    1    2    0    0  0.10774102606E-01 -0.90006407017E-02  0.18734164712E-01  0.23410718645E-01  0.00000000000E+00 0.  1.
     999901    1    3    3    0    0  0.89147442135E-01 -0.71608068943E-01 -0.41375006265E-01  0.88836190436E+00  0.88000000000E+00 0.  1.
        -11    1    4    4    0    0 -0.61487234932E-01  0.55217026577E-01  0.48867770192E-02  0.82787328705E-01  0.51100000000E-03 0.  1.
         11    1    4    4    0    0 -0.38434309809E-01  0.25391683068E-01  0.17754064534E-01  0.49370048289E-01  0.51100000000E-03 0. -1.
</event>
<event>
 8    1  0.1126414E+005  0.1043930E+01  0.7957747E-01            NaN
         13   -1    0    0    0    0  0.00000000000E+00  0.00000000000E+00  0.74505805969E-08  0.10566000000E+00  0.10566000000E+00 0.  1.
     999900   -1    0    0    0    0 -0.00000000000E+00 -0.00000000000E+00 -0.74505805969E-08  0.93827000000E+00  0.93827000000E+00 0.  1.
     999902    2    1    2    0    0  0.27014531907E-02  0.23272059274E-01  0.34693927788E-02  0.10202461811E+01  0.10199712480E+01 0.  0.
     999903    2    3    3    0    0  0.79129946344E-01  0.81333136061E-01  0.65816676136E-01  0.13283444635E+00  0.20893248896E-01 0.  0.
         14    1    1    2    0    0 -0.27014531907E-02 -0.23272059274E-01 -0.34693927788E-02  0.23683818916E-01  0.00000000000E+00 0.  1.
     999901    1    3    3    0    0 -0.76428493153E-01 -0.58061076788E-01 -0.62347283357E-01  0.88741173474E+00  0.88000000000E+00 0.  1.
        -11    1    4    4    0    0  0.56937956583E-01  0.44683627084E-01  0.44648664650E-01  0.85043058537E-01  0.51100000000E-03 0.  1.
         11    1    4    4    0    0  0.22191989761E-01  0.36649508977E-01  0.21168011485E-01  0.47791387812E-01  0.51100000000E-03 0. -1.
</event>
<event>
 8    1  0.1126414E+005  0.1043930E+01  0.7957747E-01            NaN
         13   -1    0    0    0    0  0.00000000000E+00  0.00000000000E+00  0.74505805969E-08  0.10566000000E+00  0.10566000000E+00 0. -1.
     999900   -1    0    0    0    0 -0.00000000000E+00 -0.00000000000E+00 -0.74505805969E-08  0.93827000000E+00  0.93827000000E+00 0.  1.
     999902    2    1    2    0    0 -0.55583372277E-02  0.17682456720E-01  0.14868703015E-01  0.10201677880E+01  0.10198910104E+01 0.  0.
     999903    2    3    3    0    0 -0.11484058415E+00 -0.51099725515E-01 -0.25604420502E-01  0.12982421849E+00  0.19979981064E-01 0.  0.
         14    1    1    2    0    0  0.55583372277E-02 -0.17682456720E-01 -0.14868703015E-01  0.23762211970E-01  0.00000000000E+00 0.  1.
     999901    1    3    3    0    0  0.10928224692E+00  0.68782182235E-01  0.40473123517E-01  0.89034356953E+00  0.88000000000E+00 0. -1.
        -11    1    4    4    0    0 -0.22273004882E-01 -0.86368272394E-02 -0.13004882747E-01  0.27204220766E-01  0.51100000000E-03 0. -1.
         11    1    4    4    0    0 -0.92567579266E-01 -0.42462898276E-01 -0.12599537756E-01  0.10261999773E+00  0.51100000000E-03 0.  1.
</event>
<event>
 8    1  0.1126414E+005  0.1043930E+01  0.7957747E-01            NaN
         13   -1    0    0    0    0  0.00000000000E+00  0.00000000000E+00  0.74505805969E-08  0.10566000000E+00  0.10566000000E+00 0. -1.
     999900   -1    0    0    0    0 -0.00000000000E+00 -0.00000000000E+00 -0.74505805969E-08  0.93827000000E+00  0.93827000000E+00 0.  1.
     999902    2    1    2    0    0 -0.20614733584E-01  0.39546229165E-02 -0.26016614099E-01  0.10105014121E+01  0.10099483320E+01 0.  0.
     999903    2    3    3    0    0 -0.11479637811E+00 -0.90951405463E-02 -0.45041436781E-01  0.12517524483E+00  0.19472567425E-01 0.  0.
         14    1    1    2    0    0  0.20614733584E-01 -0.39546229165E-02  0.26016614099E-01  0.33428587950E-01  0.00000000000E+00 0. -1.
     999901    1    3    3    0    0  0.94181644524E-01  0.13049763463E-01  0.19024822682E-01  0.88532616722E+00  0.88000000000E+00 0.  1.
        -11    1    4    4    0    0 -0.90980607936E-01 -0.14290399335E-01 -0.31817443473E-01  0.97438685149E-01  0.51100000000E-03 0. -1.
         11    1    4    4    0    0 -0.23815770172E-01  0.51952587886E-02 -0.13223993308E-01  0.27736559678E-01  0.51100000000E-03 0.  1.
</event>
<event>
 8    1  0.1126414E+005  0.1043930E+01  0.7957747E-01            NaN
         13   -1    0    0    0    0  0.00000000000E+00  0.00000000000E+00  0.74505805969E-08  0.10566000000E+00  0.10566000000E+00 0. -1.
     999900   -1    0    0    0    0 -0.00000000000E+00 -0.00000000000E+00 -0.74505805969E-08  0.93827000000E+00  0.93827000000E+00 0. -1.
     999902    2    1    2    0    0 -0.14270778237E-01 -0.14602483428E-01  0.21982233729E-01  0.10139282295E+01  0.10134842615E+01 0.  0.
     999903    2    3    3    0    0 -0.78464000073E-01  0.94484668595E-01 -0.37720083389E-02  0.12449916687E+00  0.20046510826E-01 0.  0.
         14    1    1    2    0    0  0.14270778237E-01  0.14602483428E-01 -0.21982233729E-01  0.30001770505E-01  0.00000000000E+00 0.  1.
     999901    1    3    3    0    0  0.64193221836E-01 -0.10908715202E+00  0.25754242067E-01  0.88942906263E+00  0.88000000000E+00 0. -1.
        -11    1    4    4    0    0 -0.13436367056E-01  0.27930280401E-01  0.33388887554E-02  0.31177649399E-01  0.51100000000E-03 0.  1.
         11    1    4    4    0    0 -0.65027633018E-01  0.66554388194E-01 -0.71108970943E-02  0.93321517466E-01  0.51100000000E-03 0. -1.
</event>
<event>
 8    1  0.1126414E+005  0.1043930E+01  0.7957747E-01            NaN
         13   -1    0    0    0    0  0.00000000000E+00  0.00000000000E+00  0.74505805969E-08  0.10566000000E+00  0.10566000000E+00 0.  1.
     999900   -1    0    0    0    0 -0.00000000000E+00 -0.00000000000E+00 -0.74505805969E-08  0.93827000000E+00  0.93827000000E+00 0.  1.
     999902    2    1    2    0    0 -0.10584793405E-01  0.18460811242E-01 -0.90224417951E-02  0.10208162842E+01  0.10205545758E+01 0.  0.
     999903    2    3    3    0    0  0.88519655412E-01 -0.83317090748E-01  0.36029157688E-01  0.12828612798E+00  0.19538767185E-01 0.  0.
         14    1    1    2    0    0  0.10584793405E-01 -0.18460811242E-01  0.90224417951E-02  0.23113715822E-01  0.00000000000E+00 0.  1.
     999901    1    3    3    0    0 -0.99104448817E-01  0.10177790199E+00 -0.45051599483E-01  0.89253015620E+00  0.88000000000E+00 0. -1.
        -11    1    4    4    0    0  0.21449085261E-01 -0.22701064982E-01  0.18164179452E-01  0.36133089350E-01  0.51100000000E-03 0.  1.
         11    1    4    4    0    0  0.67070570151E-01 -0.60616025767E-01  0.17864978236E-01  0.92153038629E-01  0.51100000000E-03 0. -1.
</event>
<event>
 8    1  0.1126414E+005  0.1043930E+01  0.7957747E-01            NaN
         13   -1    0    0    0    0  0.00000000000E+00  0.00000000000E+00  0.74505805969E-08  0.10566000000E+00  0.10566000000E+00 0. -1.
     999900   -1    0    0    0    0 -0.00000000000E+00 -0.00000000000E+00 -0.74505805969E-08  0.93827000000E+00  0.93827000000E+00 0. -1.
     999902    2    1    2    0    0 -0.15048536571E-01  0.76629815826E-02  0.13968751103E-01  0.10220141211E+01  0.10217791141E+01 0.  0.
     999903    2    3    3    0    0  0.79625851370E-01 -0.58744907908E-01 -0.80926062740E-01  0.12938974703E+00  0.20035932611E-01 0.  0.
         14    1    1    2    0    0  0.15048536571E-01 -0.76629815826E-02 -0.13968751103E-01  0.21915878879E-01  0.00000000000E+00 0.  1.
     999901    1    3    3    0    0 -0.94674387941E-01  0.66407889490E-01  0.94894813843E-01  0.89262437409E+00  0.88000000000E+00 0.  1.
        -11    1    4    4    0    0  0.41008351481E-01 -0.27210333435E-01 -0.27778456509E-01  0.56515404129E-01  0.51100000000E-03 0. -1.
         11    1    4    4    0    0  0.38617499889E-01 -0.31534574473E-01 -0.53147606231E-01  0.72874342906E-01  0.51100000000E-03 0.  1.
</event>
<event>
 8    1  0.1126414E+005  0.1043930E+01  0.7957747E-01            NaN
         13   -1    0    0    0    0  0.00000000000E+00  0.00000000000E+00  0.74505805969E-08  0.10566000000E+00  0.10566000000E+00 0. -1.
     999900   -1    0    0    0    0 -0.00000000000E+00 -0.00000000000E+00 -0.74505805969E-08  0.93827000000E+00  0.93827000000E+00 0.  1.
     999902    2    1    2    0    0 -0.11274968012E-01  0.20965597692E-02 -0.21100163549E-01  0.10199146431E+01  0.10196318658E+01 0.  0.
     999903    2    3    3    0    0  0.11370571864E+00 -0.29594443476E-01 -0.51774833703E-01  0.12999024903E+00  0.20298027040E-01 0.  0.
         14    1    1    2    0    0  0.11274968012E-01 -0.20965597692E-02  0.21100163549E-01  0.24015356927E-01  0.00000000000E+00 0. -1.
     999901    1    3    3    0    0 -0.12498068665E+00  0.31691003245E-01  0.30674670154E-01  0.88992439404E+00  0.88000000000E+00 0.  1.
        -11    1    4    4    0    0  0.18644716283E-01 -0.12375157748E-01 -0.65700855575E-02  0.23328032917E-01  0.51100000000E-03 0. -1.
         11    1    4    4    0    0  0.95061002357E-01 -0.17219285728E-01 -0.45204748146E-01  0.10666221611E+00  0.51100000000E-03 0.  1.
</event>
<event>
 8    1  0.1126414E+005  0.1043930E+01  0.7957747E-01            NaN
         13   -1    0    0    0    0  0.00000000000E+00  0.00000000000E+00  0.74505805969E-08  0.10566000000E+00  0.10566000000E+00 0. -1.
     999900   -1    0    0    0    0 -0.00000000000E+00 -0.00000000000E+00 -0.74505805969E-08  0.93827000000E+00  0.93827000000E+00 0.  1.
     999902    2    1    2    0    0  0.71507786822E-02  0.46956051299E-02 -0.21873068620E-01  0.10204435470E+01  0.10201732300E+01 0.  0.
     999903    2    3    3    0    0  0.10010049371E+00 -0.75868844540E-01  0.28918169779E-01  0.13043791221E+00  0.20039909811E-01 0.  0.
         14    1    1    2    0    0 -0.71507786822E-02 -0.46956051299E-02  0.21873068620E-01  0.23486452992E-01  0.00000000000E+00 0. -1.
     999901    1    3    3    0    0 -0.92949715029E-01  0.80564449670E-01 -0.50791238399E-01  0.89000563480E+00  0.88000000000E+00 0.  1.
        -11    1    4    4    0    0  0.48178900627E-01 -0.26832027513E-01  0.62219073955E-02  0.55498985745E-01  0.51100000000E-03 0.  1.
         11    1    4    4    0    0  0.51921593085E-01 -0.49036817027E-01  0.22696262384E-01  0.74938926465E-01  0.51100000000E-03 0. -1.
</event>
<event>
 8    1  0.1126414E+005  0.1043930E+01  0.7957747E-01            NaN
         13   -1    0    0    0    0  0.00000000000E+00  0.00000000000E+00  0.74505805969E-08  0.10566000000E+00  0.10566000000E+00 0. -1.
     999900   -1    0    0    0    0 -0.00000000000E+00 -0.00000000000E+00 -0.74505805969E-08  0.93827000000E+00  0.93827000000E+00 0.  1.
     999902    2    1    2    0    0  0.12184442516E-01  0.79478550540E-02 -0.21885748138E-01  0.10176504450E+01  0.10173110700E+01 0.  0.
     999903    2    3    3    0    0  0.38243303260E-01  0.12215344918E+00  0.66814519580E-04  0.12961671987E+00  0.20407699911E-01 0.  0.
         14    1    1    2    0    0 -0.12184442516E-01 -0.79478550540E-02  0.21885748138E-01  0.26279554999E-01  0.00000000000E+00 0. -1.
     999901    1    3    3    0    0 -0.26058860744E-01 -0.11420559413E+00 -0.21952562658E-01  0.88803372513E+00  0.88000000000E+00 0.  1.
        -11    1    4    4    0    0  0.26680614109E-01  0.91927499704E-01 -0.86067637184E-02  0.96108573362E-01  0.51100000000E-03 0. -1.
         11    1    4    4    0    0  0.11562689151E-01  0.30225949478E-01  0.86735782380E-02  0.33508146513E-01  0.51100000000E-03 0.  1.
</event>
<event>
 8    1  0.1126414E+005  0.1043930E+01  0.7957747E-01            NaN
         13   -1    0    0    0    0  0.00000000000E+00  0.00000000000E+00  0.74505805969E-08  0.10566000000E+00  0.10566000000E+00 0.  1.
     999900   -1    0    0    0    0 -0.00000000000E+00 -0.00000000000E+00 -0.74505805969E-08  0.93827000000E+00  0.93827000000E+00 0.  1.
     999902    2    1    2    0    0  0.22057752289E-01  0.94354767412E-03 -0.90020875030E-02  0.10200873429E+01  0.10198086658E+01 0.  0.
     999903    2    3    3    0    0  0.25221397487E-01 -0.57377317083E-01  0.11204222724E+00  0.12988340107E+00  0.19696745459E-01 0.  0.
         14    1    1    2    0    0 -0.22057752289E-01 -0.94354767412E-03  0.90020875030E-02  0.23842657101E-01  0.00000000000E+00 0.  1.
     999901    1    3    3    0    0 -0.31636451986E-02  0.58320864757E-01 -0.12104431474E+00  0.89020394183E+00  0.88000000000E+00 0.  1.
        -11    1    4    4    0    0 -0.24470157130E-02 -0.14026138811E-01  0.22999242697E-01  0.27054514254E-01  0.51100000000E-03 0.  1.
         11    1    4    4    0    0  0.27668413200E-01 -0.43351178272E-01  0.89042984542E-01  0.10282888682E+00  0.51100000000E-03 0. -1.
</event>
<event>
 8    1  0.1126414E+005  0.1043930E+01  0.7957747E-01            NaN
         13   -1    0    0    0    0  0.00000000000E+00  0.00000000000E+00  0.74505805969E-08  0.10566000000E+00  0.10566000000E+00 0. -1.
     999900   -1    0    0    0    0 -0.00000000000E+00 -0.00000000000E+00 -0.74505805969E-08  0.93827000000E+00  0.93827000000E+00 0.  1.
     999902    2    1    2    0    0  0.53237484205E-03  0.62300147649E-02  0.22284880374E-01  0.10207845382E+01  0.10205221022E+01 0.  0.
     999903    2    3    3    0    0 -0.12459564512E+00  0.36005118068E-01  0.53360449506E-02  0.13127296373E+00  0.19587606355E-01 0.  0.
         14    1    1    2    0    0 -0.53237484205E-03 -0.62300147649E-02 -0.22284880374E-01  0.23145461763E-01  0.00000000000E+00 0. -1.
     999901    1    3    3    0    0  0.12512801996E+00 -0.29775103304E-01  0.16948835423E-01  0.88951157450E+00  0.88000000000E+00 0. -1.
        -11    1    4    4    0    0 -0.83569319015E-01  0.24919767401E-01  0.12738078261E-01  0.88132545899E-01  0.51100000000E-03 0.  1.
         11    1    4    4    0    0 -0.41026326101E-01  0.11085350667E-01 -0.74020333109E-02  0.43140417834E-01  0.51100000000E-03 0. -1.
</event>
<event>
 8    1  0.1126414E+005  0.1043930E+01  0.7957747E-01            NaN
         13   -1    0    0    0    0  0.00000000000E+00  0.00000000000E+00  0.74505805969E-08  0.10566000000E+00  0.10566000000E+00 0.  1.
     999900   -1    0    0    0    0 -0.00000000000E+00 -0.00000000000E+00 -0.74505805969E-08  0.93827000000E+00  0.93827000000E+00 0. -1.
     999902    2    1    2    0    0 -0.19940953562E-01 -0.11760332655E-01  0.60909952930E-02  0.10199915941E+01  0.10197106476E+01 0.  0.
     999903    2    3    3    0    0 -0.41519822152E-01  0.91072976196E-01  0.81487309256E-01  0.13053954866E+00  0.19550180844E-01 0.  0.
         14    1    1    2    0    0  0.19940953562E-01  0.11760332655E-01 -0.60909952930E-02  0.23938405895E-01  0.00000000000E+00 0. -1.
     999901    1    3    3    0    0  0.21578868590E-01 -0.10283330885E+00 -0.75396313963E-01  0.88945204544E+00  0.88000000000E+00 0. -1.
        -11    1    4    4    0    0 -0.88511766452E-02  0.10359378121E-01  0.18896989948E-01  0.23302733598E-01  0.51100000000E-03 0.  1.
         11    1    4    4    0    0 -0.32668645507E-01  0.80713598076E-01  0.62590319308E-01  0.10723681507E+00  0.51100000000E-03 0. -1.
</event>
<event>
 8    1  0.1126414E+005  0.1043930E+01  0.7957747E-01            NaN
         13   -1    0    0    0    0  0.00000000000E+00  0.00000000000E+00  0.74505805969E-08  0.10566000000E+00  0.10566000000E+00 0. -1.
     999900   -1    0    0    0    0 -0.00000000000E+00 -0.00000000000E+00 -0.74505805969E-08  0.93827000000E+00  0.93827000000E+00 0. -1.
     999902    2    1    2    0    0  0.20879173965E-02 -0.40355276469E-02 -0.23411588981E-01  0.10200815749E+01  0.10198027613E+01 0.  0.
     999903    2    3    3    0    0 -0.48064528835E-01  0.47321458126E-01 -0.11247324985E+00  0.13267817884E+00  0.20093478474E-01 0.  0.
         14    1    1    2    0    0 -0.20879173965E-02  0.40355276469E-02  0.23411588981E-01  0.23848425127E-01  0.00000000000E+00 0. -1.
     999901    1    3    3    0    0  0.50152446232E-01 -0.51356985773E-01  0.89061660871E-01  0.88740339603E+00  0.88000000000E+00 0.  1.
        -11    1    4    4    0    0 -0.21038445603E-01  0.26158273732E-01 -0.73095497664E-01  0.80436834707E-01  0.51100000000E-03 0. -1.
         11    1    4    4    0    0 -0.27026083232E-01  0.21163184395E-01 -0.39377752188E-01  0.52241344134E-01  0.51100000000E-03 0.  1.
</event>
<event>
 8    1  0.1126414E+005  0.1043930E+01  0.7957747E-01            NaN
         13   -1    0    0    0    0  0.00000000000E+00  0.00000000000E+00  0.74505805969E-08  0.10566000000E+00  0.10566000000E+00 0. -1.
     999900   -1    0    0    0    0 -0.00000000000E+00 -0.00000000000E+00 -0.74505805969E-08  0.93827000000E+00  0.93827000000E+00 0. -1.
     999902    2    1    2    0    0  0.94347733219E-02 -0.16868599207E-02 -0.16732911520E-01  0.10246465674E+01  0.10244650982E+01 0.  0.
     999903    2    3    3    0    0 -0.98507607171E-01  0.71152910696E-01 -0.53298422749E-01  0.13431279501E+00  0.20801914922E-01 0.  0.
         14    1    1    2    0    0 -0.94347733219E-02  0.16868599207E-02  0.16732911520E-01  0.19283432577E-01  0.00000000000E+00 0. -1.
     999901    1    3    3    0    0  0.10794238049E+00 -0.72839770616E-01  0.36565511230E-01  0.89033377241E+00  0.88000000000E+00 0.  1.
        -11    1    4    4    0    0 -0.32173856712E-01  0.34247896123E-01 -0.25550163902E-01  0.53489694717E-01  0.51100000000E-03 0.  1.
         11    1    4    4    0    0 -0.66333750459E-01  0.36905014573E-01 -0.27748258847E-01  0.80823100291E-01  0.51100000000E-03 0. -1.
</event>
<event>
 8    1  0.1126414E+005  0.1043930E+01  0.7957747E-01            NaN
         13   -1    0    0    0    0  0.00000000000E+00  0.00000000000E+00  0.74505805969E-08  0.10566000000E+00  0.10566000000E+00 0. -1.
     999900   -1    0    0    0    0 -0.00000000000E+00 -0.00000000000E+00 -0.74505805969E-08  0.93827000000E+00  0.93827000000E+00 0. -1.
     999902    2    1    2    0    0 -0.12514280065E-01  0.18588172559E-01 -0.10389112575E-01  0.10192305866E+01  0.10189312673E+01 0.  0.
     999903    2    3    3    0    0  0.59316589564E-01  0.55730070191E-01  0.97973182744E-01  0.12890391536E+00  0.19828674605E-01 0.  0.
         14    1    1    2    0    0  0.12514280065E-01 -0.18588172559E-01  0.10389112575E-01  0.24699413449E-01  0.00000000000E+00 0.  1.
     999901    1    3    3    0    0 -0.71830869629E-01 -0.37141897632E-01 -0.10836229532E+00  0.89032667119E+00  0.88000000000E+00 0. -1.
        -11    1    4    4    0    0  0.40065431287E-01  0.41386839119E-01  0.54827116401E-01  0.79525989779E-01  0.51100000000E-03 0. -1.
         11    1    4    4    0    0  0.19251158277E-01  0.14343231071E-01  0.43146066342E-01  0.49377925578E-01  0.51100000000E-03 0.  1.
</event>
<event>
 8    1  0.1126414E+005  0.1043930E+01  0.7957747E-01            NaN
         13   -1    0    0    0    0  0.00000000000E+00  0.00000000000E+00  0.74505805969E-08  0.10566000000E+00  0.10566000000E+00 0.  1.
     999900   -1    0    0    0    0 -0.00000000000E+00 -0.00000000000E+00 -0.74505805969E-08  0.93827000000E+00  0.93827000000E+00 0.  1.
     999902    2    1    2    0    0  0.14069078956E-01  0.15416436872E-01  0.17388161287E-01  0.10167646975E+01  0.10164017396E+01 0.  0.
     999903    2    3    3    0    0  0.69328271551E-01 -0.23443634576E-01  0.10530483416E+00  0.12980752551E+00  0.20121439893E-01 0.  0.
         14    1    1    2    0    0 -0.14069078956E-01 -0.15416436872E-01 -0.17388161287E-01  0.27165302528E-01  0.00000000000E+00 0. -1.
     999901    1    3    3    0    0 -0.55259192595E-01  0.38860071449E-01 -0.87916672875E-01  0.88695717196E+00  0.88000000000E+00 0.  1.
        -11    1    4    4    0    0  0.16243096031E-01 -0.11516414404E-01  0.17516149067E-01  0.26524376874E-01  0.51100000000E-03 0.  1.
         11    1    4    4    0    0  0.53085175520E-01 -0.11927220172E-01  0.87788685095E-01  0.10328314864E+00  0.51100000000E-03 0. -1.
</event>
<event>
 8    1  0.1126414E+005  0.1043930E+01  0.7957747E-01            NaN
         13   -1    0    0    0    0  0.00000000000E+00  0.00000000000E+00  0.74505805969E-08  0.10566000000E+00  0.10566000000E+00 0.  1.
     999900   -1    0    0    0    0 -0.00000000000E+00 -0.00000000000E+00 -0.74505805969E-08  0.93827000000E+00  0.93827000000E+00 0.  1.
     999902    2    1    2    0    0 -0.81579991505E-02  0.17943526819E-01 -0.12228922170E-01  0.10207336718E+01  0.10204700677E+01 0.  0.
     999903    2    3    3    0    0 -0.20089617809E-01 -0.11278523959E+00 -0.57477967496E-01  0.12984655774E+00  0.20792036836E-01 0.  0.
         14    1    1    2    0    0  0.81579991505E-02 -0.17943526819E-01  0.12228922170E-01  0.23196328207E-01  0.00000000000E+00 0. -1.
     999901    1    3    3    0    0  0.11931618658E-01  0.13072876641E+00  0.45249045326E-01  0.89088711406E+00  0.88000000000E+00 0. -1.
        -11    1    4    4    0    0 -0.61567807568E-02 -0.73265687154E-01 -0.44646132444E-01  0.86019213706E-01  0.51100000000E-03 0. -1.
         11    1    4    4    0    0 -0.13932837052E-01 -0.39519552434E-01 -0.12831835052E-01  0.43827344030E-01  0.51100000000E-03 0.  1.
</event>
<event>
 8    1  0.1126414E+005  0.1043930E+01  0.7957747E-01            NaN
         13   -1    0    0    0    0  0.00000000000E+00  0.00000000000E+00  0.74505805969E-08  0.10566000000E+00  0.10566000000E+00 0. -1.
     999900   -1    0    0    0    0 -0.00000000000E+00 -0.00000000000E+00 -0.74505805969E-08  0.93827000000E+00  0.93827000000E+00 0. -1.
     999902    2    1    2    0    0 -0.19269574248E-01  0.78390777799E-02  0.12368907875E-01  0.10197275721E+01  0.10194403189E+01 0.  0.
     999903    2    3    3    0    0 -0.95433967203E-02  0.53814280174E-01  0.11859642708E+00  0.13209442517E+00  0.19919123324E-01 0.  0.
         14    1    1    2    0    0  0.19269574248E-01 -0.78390777799E-02 -0.12368907875E-01  0.24202427857E-01  0.00000000000E+00 0. -1.
     999901    1    3    3    0    0 -0.97261775282E-02 -0.45975202394E-01 -0.10622751920E+00  0.88763314697E+00  0.88000000000E+00 0. -1.
        -11    1    4    4    0    0 -0.15134602135E-01  0.41623616740E-01  0.83521458056E-01  0.94539286696E-01  0.51100000000E-03 0. -1.
         11    1    4    4    0    0  0.55912054145E-02  0.12190663434E-01  0.35074969023E-01  0.37555138476E-01  0.51100000000E-03 0.  1.
</event>
<event>
 8    1  0.1126414E+005  0.1043930E+01  0.7957747E-01            NaN
         13   -1    0    0    0    0  0.00000000000E+00  0.00000000000E+00  0.74505805969E-08  0.10566000000E+00  0.10566000000E+00 0. -1.
     999900   -1    0    0    0    0 -0.00000000000E+00 -0.00000000000E+00 -0.74505805969E-08  0.93827000000E+00  0.93827000000E+00 0.  1.
     999902    2    1    2    0    0 -0.10974337803E-01  0.15147900563E-01 -0.17050061431E-01  0.10186199313E+01  0.10183054379E+01 0.  0.
     999903    2    3    3    0    0 -0.12795540971E+00  0.15726801235E-01 -0.99646780401E-02  0.13085019261E+00  0.20063871716E-01 0.  0.
         14    1    1    2    0    0  0.10974337803E-01 -0.15147900563E-01  0.17050061431E-01  0.25310068678E-01  0.00000000000E+00 0. -1.
     999901    1    3    3    0    0  0.11698107190E+00 -0.57890067245E-03 -0.70853833914E-02  0.88776973871E+00  0.88000000000E+00 0.  1.
        -11    1    4    4    0    0 -0.12199607496E+00  0.18319541960E-01 -0.12180769336E-01  0.12396483447E+00  0.51100000000E-03 0. -1.
         11    1    4    4    0    0 -0.59593347473E-02 -0.25927407254E-02  0.22160912960E-02  0.68853581411E-02  0.51100000000E-03 0.  1.
</event>
<event>
 8    1  0.1126414E+005  0.1043930E+01  0.7957747E-01            NaN
         13   -1    0    0    0    0  0.00000000000E+00  0.00000000000E+00  0.74505805969E-08  0.10566000000E+00  0.10566000000E+00 0. -1.
     999900   -1    0    0    0    0 -0.00000000000E+00 -0.00000000000E+00 -0.74505805969E-08  0.93827000000E+00  0.93827000000E+00 0.  1.
     999902    2    1    2    0    0  0.13683697863E-01 -0.13709943903E-01  0.84862009671E-02  0.10227823818E+01  0.10225637285E+01 0.  0.
     999903    2    3    3    0    0  0.11423785635E+00  0.60164098748E-01  0.28846089635E-01  0.13374749044E+00  0.19654203398E-01 0.  0.
         14    1    1    2    0    0 -0.13683697863E-01  0.13709943903E-01 -0.84862009671E-02  0.21147618208E-01  0.00000000000E+00 0.  1.
     999901    1    3    3    0    0 -0.10055415849E+00 -0.73874042650E-01 -0.20359888668E-01  0.88903489135E+00  0.88000000000E+00 0.  1.
        -11    1    4    4    0    0  0.41266231590E-01  0.24326528401E-01  0.20200990819E-01  0.51990604966E-01  0.51100000000E-03 0. -1.
         11    1    4    4    0    0  0.72971624761E-01  0.35837570347E-01  0.86450988166E-02  0.81756885478E-01  0.51100000000E-03 0.  1.
</event>
<event>
 8    1  0.1126414E+005  0.1043930E+01  0.7957747E-01            NaN
         13   -1    0    0    0    0  0.00000000000E+00  0.00000000000E+00  0.74505805969E-08  0.10566000000E+00  0.10566000000E+00 0. -1.
     999900   -1    0    0    0    0 -0.00000000000E+00 -0.00000000000E+00 -0.74505805969E-08  0.93827000000E+00  0.93827000000E+00 0. -1.
     999902    2    1    2    0    0 -0.71147569578E-02  0.12358907480E-01 -0.13759994604E-01  0.10241133451E+01  0.10239216004E+01 0.  0.
     999903    2    3    3    0    0  0.12465402635E+00  0.35871979942E-01  0.23405121256E-01  0.13321653699E+00  0.19324098882E-01 0.  0.
         14    1    1    2    0    0  0.71147569578E-02 -0.12358907480E-01  0.13759994604E-01  0.19816654919E-01  0.00000000000E+00 0. -1.
     999901    1    3    3    0    0 -0.13176878330E+00 -0.23513072462E-01 -0.37165115860E-01  0.89089680809E+00  0.88000000000E+00 0.  1.
        -11    1    4    4    0    0  0.46520604236E-02 -0.14223333920E-02 -0.14825278898E-02  0.51111357257E-02  0.51100000000E-03 0. -1.
         11    1    4    4    0    0  0.12000196592E+00  0.37294313334E-01  0.24887649146E-01  0.12810540126E+00  0.51100000000E-03 0.  1.
</event>
<event>
 8    1  0.1126414E+005  0.1043930E+01  0.7957747E-01            NaN
         13   -1    0    0    0    0  0.00000000000E+00  0.00000000000E+00  0.74505805969E-08  0.10566000000E+00  0.10566000000E+00 0.  1.
     999900   -1    0    0    0    0 -0.00000000000E+00 -0.00000000000E+00 -0.74505805969E-08  0.93827000000E+00  0.93827000000E+00 0. -1.
     999902    2    1    2    0    0  0.17343365260E-01 -0.45510187722E-02 -0.16634855640E-01  0.10194714123E+01  0.10191779717E+01 0.  0.
     999903    2    3    3    0    0  0.67605084288E-01  0.28786400937E-01 -0.10862281532E+00  0.13262339337E+00  0.19772307899E-01 0.  0.
         14    1    1    2    0    0 -0.17343365260E-01  0.45510187722E-02  0.16634855640E-01  0.24458587706E-01  0.00000000000E+00 0.  1.
     999901    1    3    3    0    0 -0.50261719028E-01 -0.33337419709E-01  0.91987959679E-01  0.88684801893E+00  0.88000000000E+00 0.  1.
        -11    1    4    4    0    0  0.57500286042E-01  0.29068043302E-01 -0.82999195523E-01  0.10507312508E+00  0.51100000000E-03 0.  1.
         11    1    4    4    0    0  0.10104798246E-01 -0.28164236494E-03 -0.25623619795E-01  0.27550268282E-01  0.51100000000E-03 0. -1.
</event>
<event>
 8    1  0.1126414E+005  0.1043930E+01  0.7957747E-01            NaN
         13   -1    0    0    0    0  0.00000000000E+00  0.00000000000E+00  0.74505805969E-08  0.10566000000E+00  0.10566000000E+00 0. -1.
     999900   -1    0    0    0    0 -0.00000000000E+00 -0.00000000000E+00 -0.74505805969E-08  0.93827000000E+00  0.93827000000E+00 0. -1.
     999902    2    1    2    0    0  0.63991340074E-02  0.19026046093E-01  0.12692267140E-01  0.10201806212E+01  0.10199041460E+01 0.  0.
     999903    2    3    3    0    0  0.38724279088E-01  0.12566020012E+00  0.41553528195E-02  0.13311318485E+00  0.20292790299E-01 0.  0.
         14    1    1    2    0    0 -0.63991340074E-02 -0.19026046093E-01 -0.12692267140E-01  0.23749378753E-01  0.00000000000E+00 0.  1.
     999901    1    3    3    0    0 -0.32325145081E-01 -0.10663415403E+00  0.85369143201E-02  0.88706743640E+00  0.88000000000E+00 0.  1.
        -11    1    4    4    0    0  0.21951994055E-01  0.46960449269E-01  0.84745419444E-02  0.52528590507E-01  0.51100000000E-03 0. -1.
         11    1    4    4    0    0  0.16772285033E-01  0.78699750854E-01 -0.43191891249E-02  0.80584594343E-01  0.51100000000E-03 0.  1.
</event>
<event>
 8    1  0.1126414E+005  0.1043930E+01  0.7957747E-01            NaN
         13   -1    0    0    0    0  0.00000000000E+00  0.00000000000E+00  0.74505805969E-08  0.10566000000E+00  0.10566000000E+00 0. -1.
     999900   -1    0    0    0    0 -0.00000000000E+00 -0.00000000000E+00 -0.74505805969E-08  0.93827000000E+00  0.93827000000E+00 0. -1.
     999902    2    1    2    0    0  0.16386752428E-01 -0.86906535048E-02 -0.16513609950E-01  0.10190954993E+01  0.10187928564E+01 0.  0.
     999903    2    3    3    0    0 -0.93731971256E-01 -0.85060033361E-01  0.11045329851E-01  0.12852382295E+00  0.19377359022E-01 0.  0.
         14    1    1    2    0    0 -0.16386752428E-01  0.86906535048E-02  0.16513609950E-01  0.24834500741E-01  0.00000000000E+00 0. -1.
     999901    1    3    3    0    0  0.11011872368E+00  0.76369379856E-01 -0.27558939801E-01  0.89057167631E+00  0.88000000000E+00 0. -1.
        -11    1    4    4    0    0 -0.44151722775E-01 -0.53039340294E-01  0.68164253513E-02  0.69348907839E-01  0.51100000000E-03 0. -1.
         11    1    4    4    0    0 -0.49580248480E-01 -0.32020693067E-01  0.42289044999E-02  0.59174915109E-01  0.51100000000E-03 0.  1.
</event>
<event>
 8    1  0.1126414E+005  0.1043930E+01  0.7957747E-01            NaN
         13   -1    0    0    0    0  0.00000000000E+00  0.00000000000E+00  0.74505805969E-08  0.10566000000E+00  0.10566000000E+00 0.  1.
     999900   -1    0    0    0    0 -0.00000000000E+00 -0.00000000000E+00 -0.74505805969E-08  0.93827000000E+00  0.93827000000E+00 0. -1.
     999902    2    1    2    0    0  0.21277582673E-01  0.64315199118E-02 -0.92749911224E-02  0.10198442068E+01  0.10195597485E+01 0.  0.
     999903    2    3    3    0    0  0.80395767783E-01  0.91878753107E-01  0.46073809124E-01  0.13200431182E+00  0.19928815842E-01 0.  0.
         14    1    1    2    0    0 -0.21277582673E-01 -0.64315199118E-02  0.92749911224E-02  0.24085793180E-01  0.00000000000E+00 0. -1.
     999901    1    3    3    0    0 -0.59118185110E-01 -0.85447233195E-01 -0.55348800247E-01  0.88783989500E+00  0.88000000000E+00 0.  1.
        -11    1    4    4    0    0  0.25796600061E-03  0.59139396465E-02  0.53950254349E-03  0.59660215046E-02  0.51100000000E-03 0.  1.
         11    1    4    4    0    0  0.80137801783E-01  0.85964813461E-01  0.45534306581E-01  0.12603829031E+00  0.51100000000E-03 0. -1.
</event>
<event>
 8    1  0.1126414E+005  0.1043930E+01  0.7957747E-01            NaN
         13   -1    0    0    0    0  0.00000000000E+00  0.00000000000E+00  0.74505805969E-08  0.10566000000E+00  0.10566000000E+00 0. -1.
     999900   -1    0    0    0    0 -0.00000000000E+00 -0.00000000000E+00 -0.74505805969E-08  0.93827000000E+00  0.93827000000E+00 0.  1.
     999902    2    1    2    0    0  0.11041191585E-01  0.11699156138E-01  0.18448402268E-01  0.10194530371E+01  0.10191591501E+01 0.  0.
     999903    2    3    3    0    0  0.52350250880E-01  0.12252267727E-01 -0.11484673224E+00  0.12845677607E+00  0.20511084289E-01 0.  0.
         14    1    1    2    0    0 -0.11041191585E-01 -0.11699156138E-01 -0.18448402268E-01  0.24476962888E-01  0.00000000000E+00 0.  1.
     999901    1    3    3    0    0 -0.41309059295E-01 -0.55311158872E-03  0.13329513451E+00  0.89099626105E+00  0.88000000000E+00 0. -1.
        -11    1    4    4    0    0  0.32112659263E-01  0.12536120731E-01 -0.51678418704E-01  0.62123242741E-01  0.51100000000E-03 0. -1.
         11    1    4    4    0    0  0.20237591617E-01 -0.28385300404E-03 -0.63168313540E-01  0.66333533326E-01  0.51100000000E-03 0.  1.
</event>
<event>
 8    1  0.1126414E+005  0.1043930E+01  0.7957747E-01            NaN
         13   -1    0    0    0    0  0.00000000000E+00  0.00000000000E+00  0.74505805969E-08  0.10566000000E+00  0.10566000000E+00 0.  1.
     999900   -1    0    0    0    0 -0.00000000000E+00 -0.00000000000E+00 -0.74505805969E-08  0.93827000000E+00  0.93827000000E+00 0. -1.
     999902    2    1    2    0    0 -0.24696430347E-01  0.28818525187E-02 -0.13898999290E-02  0.10190271775E+01  0.10187228465E+01 0.  0.
     999903    2    3    3    0    0 -0.75065620853E-01 -0.10454482150E+00  0.14081210047E-01  0.13092982875E+00  0.19490316647E-01 0.  0.
         14    1    1    2    0    0  0.24696430347E-01 -0.28818525187E-02  0.13898999290E-02  0.24902822483E-01  0.00000000000E+00 0. -1.
     999901    1    3    3    0    0  0.50369190506E-01  0.10742667402E+00 -0.15471109976E-01  0.88809734877E+00  0.88000000000E+00 0. -1.
        -11    1    4    4    0    0 -0.41933321984E-01 -0.60123567886E-01  0.17639820024E-01  0.75396759078E-01  0.51100000000E-03 0.  1.
         11    1    4    4    0    0 -0.33132298869E-01 -0.44421253616E-01 -0.35586099775E-02  0.55533069672E-01  0.51100000000E-03 0. -1.
</event>
<event>
 8    1  0.1126414E+005  0.1043930E+01  0.7957747E-01            NaN
         13   -1    0    0    0    0  0.00000000000E+00  0.00000000000E+00  0.74505805969E-08  0.10566000000E+00  0.10566000000E+00 0.  1.
     999900   -1    0    0    0    0 -0.00000000000E+00 -0.00000000000E+00 -0.74505805969E-08  0.93827000000E+00  0.93827000000E+00 0. -1.
     999902    2    1    2    0    0  0.78071660729E-02 -0.19930198272E-01  0.80071691805E-02  0.10210765669E+01  0.10208207855E+01 0.  0.
     999903    2    3    3    0    0  0.12026062287E+00  0.45956332158E-01 -0.15602481556E-01  0.13116408221E+00  0.19646301207E-01 0.  0.
         14    1    1    2    0    0 -0.78071660729E-02  0.19930198272E-01 -0.80071691805E-02  0.22853433080E-01  0.00000000000E+00 0.  1.
     999901    1    3    3    0    0 -0.11245345680E+00 -0.65886530430E-01  0.23609650736E-01  0.88991248471E+00  0.88000000000E+00 0.  1.
        -11    1    4    4    0    0  0.86052438637E-01  0.39519914678E-01 -0.17508239114E-01  0.96299768481E-01  0.51100000000E-03 0. -1.
         11    1    4    4    0    0  0.34208184237E-01  0.64364174799E-02  0.19057575580E-02  0.34864313727E-01  0.51100000000E-03 0.  1.
</event>
<event>
 8    1  0.1126414E+005  0.1043930E+01  0.7957747E-01            NaN
         13   -1    0    0    0    0  0.00000000000E+00  0.00000000000E+00  0.74505805969E-08  0.10566000000E+00  0.10566000000E+00 0.  1.
     999900   -1    0    0    0    0 -0.00000000000E+00 -0.00000000000E+00 -0.74505805969E-08  0.93827000000E+00  0.93827000000E+00 0.  1.
     999902    2    1    2    0    0  0.89877943402E-02  0.21110501953E-01 -0.44178492928E-02  0.10205644028E+01  0.10202968926E+01 0.  0.
     999903    2    3    3    0    0 -0.86033227025E-01  0.77956294913E-01 -0.59077958235E-01  0.13194290510E+00  0.20972004861E-01 0.  0.
         14    1    1    2    0    0 -0.89877943402E-02 -0.21110501953E-01  0.44178492928E-02  0.23365597193E-01  0.00000000000E+00 0.  1.
     999901    1    3    3    0    0  0.95021021365E-01 -0.56845792960E-01  0.54660108942E-01  0.88862149771E+00  0.88000000000E+00 0. -1.
        -11    1    4    4    0    0 -0.33382841733E-01  0.33275957016E-01 -0.35366080867E-01  0.58929824659E-01  0.51100000000E-03 0. -1.
         11    1    4    4    0    0 -0.52650385292E-01  0.44680337897E-01 -0.23711877368E-01  0.73013080440E-01  0.51100000000E-03 0.  1.
</event>
<event>
 8    1  0.1126414E+005  0.1043930E+01  0.7957747E-01            NaN
         13   -1    0    0    0    0  0.00000000000E+00  0.00000000000E+00  0.74505805969E-08  0.10566000000E+00  0.10566000000E+00 0.  1.
     999900   -1    0    0    0    0 -0.00000000000E+00 -0.00000000000E+00 -0.74505805969E-08  0.93827000000E+00  0.93827000000E+00 0. -1.
     999902    2    1    2    0    0  0.14878036620E-01  0.29483858071E-02  0.15690628472E-01  0.10221069669E+01  0.10218739682E+01 0.  0.
     999903    2    3    3    0    0 -0.12373860268E+00 -0.64729070632E-02  0.37656284074E-01  0.13093592636E+00  0.19315298654E-01 0.  0.
         14    1    1    2    0    0 -0.14878036620E-01 -0.29483858071E-02 -0.15690628472E-01  0.21823033116E-01  0.00000000000E+00 0. -1.
     999901    1    3    3    0    0  0.13861663930E+00  0.94212928703E-02 -0.21965655601E-01  0.89117104053E+00  0.88000000000E+00 0.  1.
        -11    1    4    4    0    0 -0.93505664779E-01 -0.53112754429E-02  0.19561369431E-01  0.95678771353E-01  0.51100000000E-03 0. -1.
         11    1    4    4    0    0 -0.30232937898E-01 -0.11616316203E-02  0.18094914643E-01  0.35257155003E-01  0.51100000000E-03 0.  1.
</event>
<event>
 8    1  0.1126414E+005  0.1043930E+01  0.7957747E-01            NaN
         13   -1    0    0    0    0  0.00000000000E+00  0.00000000000E+00  0.74505805969E-08  0.10566000000E+00  0.10566000000E+00 0. -1.
     999900   -1    0    0    0    0 -0.00000000000E+00 -0.00000000000E+00 -0.74505805969E-08  0.93827000000E+00  0.93827000000E+00 0. -1.
     999902    2    1    2    0    0 -0.15099350996E-01 -0.17541038423E-01 -0.43530744167E-02  0.10203794653E+01  0.10201076539E+01 0.  0.
     999903    2    3    3    0    0 -0.35416739099E-02 -0.10327251841E+00 -0.80947850663E-01  0.13282652244E+00  0.20311918276E-01 0.  0.
         14    1    1    2    0    0  0.15099350996E-01  0.17541038423E-01  0.43530744167E-02  0.23550534736E-01  0.00000000000E+00 0. -1.
     999901    1    3    3    0    0 -0.11557677086E-01  0.85731479991E-01  0.76594776246E-01  0.88755294282E+00  0.88000000000E+00 0.  1.
        -11    1    4    4    0    0  0.50014214900E-02 -0.80917609739E-01 -0.66577493183E-01  0.10490708986E+00  0.51100000000E-03 0. -1.
         11    1    4    4    0    0 -0.85430953999E-02 -0.22354908674E-01 -0.14370357480E-01  0.27919432586E-01  0.51100000000E-03 0.  1.
</event>
<event>
 8    1  0.1126414E+005  0.1043930E+01  0.7957747E-01            NaN
         13   -1    0    0    0    0  0.00000000000E+00  0.00000000000E+00  0.74505805969E-08  0.10566000000E+00  0.10566000000E+00 0.  1.
     999900   -1    0    0    0    0 -0.00000000000E+00 -0.00000000000E+00 -0.74505805969E-08  0.93827000000E+00  0.93827000000E+00 0.  1.
     999902    2    1    2    0    0  0.12284894662E-02  0.20992314819E-01 -0.12774359601E-01  0.10193257172E+01  0.10190287273E+01 0.  0.
     999903    2    3    3    0    0 -0.59682643990E-01 -0.10108389803E+00  0.43757615031E-01  0.12702048241E+00  0.20964294504E-01 0.  0.
         14    1    1    2    0    0 -0.12284894662E-02 -0.20992314819E-01  0.12774359601E-01  0.24604282778E-01  0.00000000000E+00 0. -1.
     999901    1    3    3    0    0  0.60911133457E-01  0.12207621284E+00 -0.56531974632E-01  0.89230523481E+00  0.88000000000E+00 0. -1.
        -11    1    4    4    0    0 -0.10803499667E-01 -0.29062537490E-01  0.37921677114E-02  0.31240812208E-01  0.51100000000E-03 0.  1.
         11    1    4    4    0    0 -0.48879144323E-01 -0.72021360535E-01  0.39965447320E-01  0.95779670200E-01  0.51100000000E-03 0. -1.
</event>
<event>
 8    1  0.1126414E+005  0.1043930E+01  0.7957747E-01            NaN
         13   -1    0    0    0    0  0.00000000000E+00  0.00000000000E+00  0.74505805969E-08  0.10566000000E+00  0.10566000000E+00 0. -1.
     999900   -1    0    0    0    0 -0.00000000000E+00 -0.00000000000E+00 -0.74505805969E-08  0.93827000000E+00  0.93827000000E+00 0.  1.
     999902    2    1    2    0    0 -0.11873927427E-01 -0.16967514145E-01  0.16467810732E-01  0.10174710605E+01  0.10171269751E+01 0.  0.
     999903    2    3    3    0    0  0.98716978301E-01 -0.60778676291E-01 -0.48180119041E-01  0.12711769179E+00  0.19962324495E-01 0.  0.
         14    1    1    2    0    0  0.11873927427E-01  0.16967514145E-01 -0.16467810732E-01  0.26458939493E-01  0.00000000000E+00 0.  1.
     999901    1    3    3    0    0 -0.11059090573E+00  0.43811162146E-01  0.64647929773E-01  0.89035336872E+00  0.88000000000E+00 0. -1.
        -11    1    4    4    0    0  0.44411629603E-01 -0.23880422332E-01 -0.31206431303E-01  0.59302359906E-01  0.51100000000E-03 0. -1.
         11    1    4    4    0    0  0.54305348698E-01 -0.36898253958E-01 -0.16973687738E-01  0.67815331886E-01  0.51100000000E-03 0.  1.
</event>
<event>
 8    1  0.1126414E+005  0.1043930E+01  0.7957747E-01            NaN
         13   -1    0    0    0    0  0.00000000000E+00  0.00000000000E+00  0.74505805969E-08  0.10566000000E+00  0.10566000000E+00 0. -1.
     999900   -1    0    0    0    0 -0.00000000000E+00 -0.00000000000E+00 -0.74505805969E-08  0.93827000000E+00  0.93827000000E+00 0.  1.
     999902    2    1    2    0    0 -0.13457585355E-01 -0.40259810942E-02  0.50326630254E-02  0.10290087794E+01  0.10289005906E+01 0.  0.
     999903    2    3    3    0    0 -0.90346888377E-01  0.20110936834E-01 -0.10211839966E+00  0.13885378954E+00  0.16887785523E-01 0.  0.
         14    1    1    2    0    0  0.13457585355E-01  0.40259810942E-02 -0.50326630254E-02  0.14921220610E-01  0.00000000000E+00 0.  1.
     999901    1    3    3    0    0  0.76889303022E-01 -0.24136917929E-01  0.10715106269E+00  0.89015498985E+00  0.88000000000E+00 0. -1.
        -11    1    4    4    0    0 -0.19756494199E-01 -0.25332123236E-02 -0.22987629851E-01  0.30420855920E-01  0.51100000000E-03 0.  1.
         11    1    4    4    0    0 -0.70590394177E-01  0.22644149158E-01 -0.79130769809E-01  0.10843293362E+00  0.51100000000E-03 0. -1.
</event>
<event>
 8    1  0.1126414E+005  0.1043930E+01  0.7957747E-01            NaN
         13   -1    0    0    0    0  0.00000000000E+00  0.00000000000E+00  0.74505805969E-08  0.10566000000E+00  0.10566000000E+00 0. -1.
     999900   -1    0    0    0    0 -0.00000000000E+00 -0.00000000000E+00 -0.74505805969E-08  0.93827000000E+00  0.93827000000E+00 0.  1.
     999902    2    1    2    0    0 -0.87947930040E-02  0.16884183411E-02 -0.21810854690E-01  0.10203522028E+01  0.10200797543E+01 0.  0.
     999903    2    3    3    0    0 -0.10119315562E+00  0.39280514444E-01 -0.74723309107E-01  0.13313726210E+00  0.18945819474E-01 0.  0.
         14    1    1    2    0    0  0.87947930040E-02 -0.16884183411E-02  0.21810854690E-01  0.23577797242E-01  0.00000000000E+00 0. -1.
     999901    1    3    3    0    0  0.92398362614E-01 -0.37592096103E-01  0.52912454417E-01  0.88721494066E+00  0.88000000000E+00 0. -1.
        -11    1    4    4    0    0 -0.18742726828E-02 -0.13826097470E-02 -0.38392407074E-02  0.45194466488E-02  0.51100000000E-03 0.  1.
         11    1    4    4    0    0 -0.99318882935E-01  0.40663124191E-01 -0.70884068399E-01  0.12861781545E+00  0.51100000000E-03 0. -1.
</event>
<event>
 8    1  0.1126414E+005  0.1043930E+01  0.7957747E-01            NaN
         13   -1    0    0    0    0  0.00000000000E+00  0.00000000000E+00  0.74505805969E-08  0.10566000000E+00  0.10566000000E+00 0.  1.
     999900   -1    0    0    0    0 -0.00000000000E+00 -0.00000000000E+00 -0.74505805969E-08  0.93827000000E+00  0.93827000000E+00 0.  1.
     999902    2    1    2    0    0  0.10660218766E-01 -0.78585056001E-02 -0.19534701257E-01  0.10203291329E+01  0.10200561448E+01 0.  0.
     999903    2    3    3    0    0  0.80606348222E-01  0.86043864687E-01 -0.55605418640E-01  0.13184097158E+00  0.19726864423E-01 0.  0.
         14    1    1    2    0    0 -0.10660218766E-01  0.78585056001E-02  0.19534701257E-01  0.23600867094E-01  0.00000000000E+00 0.  1.
     999901    1    3    3    0    0 -0.69946129457E-01 -0.93902370287E-01  0.36070717384E-01  0.88848816133E+00  0.88000000000E+00 0. -1.
        -11    1    4    4    0    0  0.23325263819E-01  0.34980212847E-01 -0.26864512172E-01  0.49896356162E-01  0.51100000000E-03 0.  1.
         11    1    4    4    0    0  0.57281084404E-01  0.51063651840E-01 -0.28740906468E-01  0.81944615414E-01  0.51100000000E-03 0. -1.
</event>
<event>
 8    1  0.1126414E+005  0.1043930E+01  0.7957747E-01            NaN
         13   -1    0    0    0    0  0.00000000000E+00  0.00000000000E+00  0.74505805969E-08  0.10566000000E+00  0.10566000000E+00 0.  1.
     999900   -1    0    0    0    0 -0.00000000000E+00 -0.00000000000E+00 -0.74505805969E-08  0.93827000000E+00  0.93827000000E+00 0.  1.
     999902    2    1    2    0    0  0.22577486258E-01 -0.10303480120E-01 -0.14762126082E-02  0.10190687090E+01  0.10187654047E+01 0.  0.
     999903    2    3    3    0    0  0.94198228520E-01 -0.47479498031E-01 -0.77303022831E-01  0.13212942571E+00  0.18836634787E-01 0.  0.
         14    1    1    2    0    0 -0.22577486258E-01  0.10303480120E-01  0.14762126082E-02  0.24861291036E-01  0.00000000000E+00 0.  1.
     999901    1    3    3    0    0 -0.71620742262E-01  0.37176017911E-01  0.75826810223E-01  0.88693928325E+00  0.88000000000E+00 0. -1.
        -11    1    4    4    0    0  0.63475157253E-01 -0.26473328887E-01 -0.59168603929E-01  0.90725506571E-01  0.51100000000E-03 0. -1.
         11    1    4    4    0    0  0.30723071267E-01 -0.21006169143E-01 -0.18134418903E-01  0.41403919139E-01  0.51100000000E-03 0.  1.
</event>
<event>
 8    1  0.1126414E+005  0.1043930E+01  0.7957747E-01            NaN
         13   -1    0    0    0    0  0.00000000000E+00  0.00000000000E+00  0.74505805969E-08  0.10566000000E+00  0.10566000000E+00 0.  1.
     999900   -1    0    0    0    0 -0.00000000000E+00 -0.00000000000E+00 -0.74505805969E-08  0.93827000000E+00  0.93827000000E+00 0.  1.
     999902    2    1    2    0    0  0.11406155893E-03 -0.15947430009E-01 -0.16977054868E-01  0.10206372130E+01  0.10203713866E+01 0.  0.
     999903    2    3    3    0    0  0.25548895008E-01 -0.90590299150E-01 -0.92874960446E-01  0.13385709328E+00  0.20799394415E-01 0.  0.
         14    1    1    2    0    0 -0.11406155893E-03  0.15947430009E-01  0.16977054868E-01  0.23292786993E-01  0.00000000000E+00 0. -1.
     999901    1    3    3    0    0 -0.25434833449E-01  0.74642869142E-01  0.75897905578E-01  0.88678011972E+00  0.88000000000E+00 0. -1.
        -11    1    4    4    0    0  0.27731262621E-01 -0.65813770283E-01 -0.66197946985E-01  0.97380206364E-01  0.51100000000E-03 0.  1.
         11    1    4    4    0    0 -0.21823676131E-02 -0.24776528867E-01 -0.26677013461E-01  0.36476886919E-01  0.51100000000E-03 0. -1.
</event>
<event>
 8    1  0.1126414E+005  0.1043930E+01  0.7957747E-01            NaN
         13   -1    0    0    0    0  0.00000000000E+00  0.00000000000E+00  0.74505805969E-08  0.10566000000E+00  0.10566000000E+00 0.  1.
     999900   -1    0    0    0    0 -0.00000000000E+00 -0.00000000000E+00 -0.74505805969E-08  0.93827000000E+00  0.93827000000E+00 0. -1.
     999902    2    1    2    0    0 -0.14912450637E-01  0.17511083226E-01 -0.56515850866E-02  0.10202454136E+01  0.10199704625E+01 0.  0.
     999903    2    3    3    0    0  0.38325494727E-01 -0.11735196949E+00 -0.28219942436E-01  0.12809539673E+00  0.19280488156E-01 0.  0.
         14    1    1    2    0    0  0.14912450637E-01 -0.17511083226E-01  0.56515850866E-02  0.23684586417E-01  0.00000000000E+00 0.  1.
     999901    1    3    3    0    0 -0.53237945363E-01  0.13486305272E+00  0.22568357349E-01  0.89215001685E+00  0.88000000000E+00 0.  1.
        -11    1    4    4    0    0  0.39973496146E-01 -0.10448340714E+00 -0.26790110718E-01  0.11503318615E+00  0.51100000000E-03 0. -1.
         11    1    4    4    0    0 -0.16480014192E-02 -0.12868562349E-01 -0.14298317183E-02  0.13062210585E-01  0.51100000000E-03 0.  1.
</event>
<event>
 8    1  0.1290953E+005  0.1043930E+01  0.7957747E-01            NaN
         13   -1    0    0    0    0  0.00000000000E+00  0.00000000000E+00  0.74505805969E-08  0.10566000000E+00  0.10566000000E+00 0.  1.
     999900   -1    0    0    0    0 -0.00000000000E+00 -0.00000000000E+00 -0.74505805969E-08  0.93827000000E+00  0.93827000000E+00 0. -1.
     999902    2    1    2    0    0 -0.16823770527E-01 -0.15367103658E-01 -0.15769715256E-02  0.10210898168E+01  0.10208343352E+01 0.  0.
     999903    2    3    3    0    0  0.70164091843E-01 -0.16835944850E-01  0.10661422915E+00  0.13020577182E+00  0.19506417752E-01 0.  0.
         14    1    1    2    0    0  0.16823770527E-01  0.15367103658E-01  0.15769715256E-02  0.22840183203E-01  0.00000000000E+00 0.  1.
     999901    1    3    3    0    0 -0.86987862369E-01  0.14688411926E-02 -0.10819120068E+00  0.89088404498E+00  0.88000000000E+00 0. -1.
        -11    1    4    4    0    0  0.27772842503E-01  0.29738292452E-02  0.38585230783E-01  0.47636704301E-01  0.51100000000E-03 0.  1.
         11    1    4    4    0    0  0.42391249340E-01 -0.19809774096E-01  0.68028998370E-01  0.82569067517E-01  0.51100000000E-03 0. -1.
</event>
<event>
 8    1  0.1178518E+005  0.1043930E+01  0.7957747E-01            NaN
         13   -1    0    0    0    0  0.00000000000E+00  0.00000000000E+00  0.74505805969E-08  0.10566000000E+00  0.10566000000E+00 0. -1.
     999900   -1    0    0    0    0 -0.00000000000E+00 -0.00000000000E+00 -0.74505805969E-08  0.93827000000E+00  0.93827000000E+00 0.  1.
     999902    2    1    2    0    0  0.63514126910E-02  0.20211431834E-01  0.10080113449E-01  0.10204683055E+01  0.10201985647E+01 0.  0.
     999903    2    3    3    0    0 -0.33387622506E-01 -0.12104699975E+00 -0.11341269657E-01  0.12806032089E+00  0.22443526987E-01 0.  0.
         14    1    1    2    0    0 -0.63514126910E-02 -0.20211431834E-01 -0.10080113449E-01  0.23461694463E-01  0.00000000000E+00 0. -1.
     999901    1    3    3    0    0  0.39739035197E-01  0.14125843158E+00  0.21421383106E-01  0.89240798465E+00  0.88000000000E+00 0. -1.
        -11    1    4    4    0    0 -0.21220650252E-01 -0.57393391300E-01  0.44552647847E-02  0.61354933521E-01  0.51100000000E-03 0. -1.
         11    1    4    4    0    0 -0.12166972254E-01 -0.63653608449E-01 -0.15796534442E-01  0.66705387367E-01  0.51100000000E-03 0.  1.
</event>
<event>
 8    1  0.1126414E+005  0.1043930E+01  0.7957747E-01            NaN
         13   -1    0    0    0    0  0.00000000000E+00  0.00000000000E+00  0.74505805969E-08  0.10566000000E+00  0.10566000000E+00 0.  1.
     999900   -1    0    0    0    0 -0.00000000000E+00 -0.00000000000E+00 -0.74505805969E-08  0.93827000000E+00  0.93827000000E+00 0.  1.
     999902    2    1    2    0    0  0.21751223841E-01 -0.48690863462E-02 -0.37253769521E-02  0.10213312794E+01  0.10210812309E+01 0.  0.
     999903    2    3    3    0    0  0.10446368845E-04  0.29372406414E-01 -0.12815884878E+00  0.13165221918E+00  0.66990990845E-02 0.  0.
         14    1    1    2    0    0 -0.21751223841E-01  0.48690863462E-02  0.37253769521E-02  0.22598720624E-01  0.00000000000E+00 0.  1.
     999901    1    3    3    0    0  0.21740777472E-01 -0.34241492760E-01  0.12443347183E+00  0.88967906019E+00  0.88000000000E+00 0. -1.
        -11    1    4    4    0    0  0.26090367130E-02  0.94339164050E-02 -0.34980277905E-01  0.36327493921E-01  0.51100000000E-03 0.  1.
         11    1    4    4    0    0 -0.25985903441E-02  0.19938490009E-01 -0.93178570873E-01  0.95324725264E-01  0.51100000000E-03 0. -1.
</event>
<event>
 8    1  0.1126414E+005  0.1043930E+01  0.7957747E-01            NaN
         13   -1    0    0    0    0  0.00000000000E+00  0.00000000000E+00  0.74505805969E-08  0.10566000000E+00  0.10566000000E+00 0.  1.
     999900   -1    0    0    0    0 -0.00000000000E+00 -0.00000000000E+00 -0.74505805969E-08  0.93827000000E+00  0.93827000000E+00 0.  1.
     999902    2    1    2    0    0 -0.40653246794E-02  0.16454177597E-01  0.16566429076E-01  0.10202295064E+01  0.10199541815E+01 0.  0.
     999903    2    3    3    0    0 -0.16320167685E-01  0.86050275500E-01  0.98736113536E-01  0.13358095422E+00  0.20592557560E-01 0.  0.
         14    1    1    2    0    0  0.40653246794E-02 -0.16454177597E-01 -0.16566429076E-01  0.23700493612E-01  0.00000000000E+00 0. -1.
     999901    1    3    3    0    0  0.12254843006E-01 -0.69596097903E-01 -0.82169684460E-01  0.88664855217E+00  0.88000000000E+00 0.  1.
        -11    1    4    4    0    0 -0.20804023551E-01  0.62192946506E-01  0.74934006690E-01  0.99579799511E-01  0.51100000000E-03 0.  1.
         11    1    4    4    0    0  0.44838558657E-02  0.23857328993E-01  0.23802106846E-01  0.34001154707E-01  0.51100000000E-03 0. -1.
</event>
<event>
 8    1  0.1126414E+005  0.1043930E+01  0.7957747E-01            NaN
         13   -1    0    0    0    0  0.00000000000E+00  0.00000000000E+00  0.74505805969E-08  0.10566000000E+00  0.10566000000E+00 0.  1.
     999900   -1    0    0    0    0 -0.00000000000E+00 -0.00000000000E+00 -0.74505805969E-08  0.93827000000E+00  0.93827000000E+00 0. -1.
     999902    2    1    2    0    0 -0.12375643940E-01 -0.17913462625E-01 -0.94451714743E-02  0.10201969014E+01  0.10199208095E+01 0.  0.
     999903    2    3    3    0    0 -0.12025288596E+00  0.22254292713E-01  0.42724628738E-01  0.13116786025E+00  0.20581631004E-01 0.  0.
         14    1    1    2    0    0  0.12375643940E-01  0.17913462625E-01  0.94451714743E-02  0.23733098624E-01  0.00000000000E+00 0.  1.
     999901    1    3    3    0    0  0.10787724202E+00 -0.40167755337E-01 -0.52169800212E-01  0.88902904113E+00  0.88000000000E+00 0.  1.
        -11    1    4    4    0    0 -0.47971651528E-01  0.19146734663E-01  0.16946633907E-01  0.54362913097E-01  0.51100000000E-03 0. -1.
         11    1    4    4    0    0 -0.72281234434E-01  0.31075580493E-02  0.25777994831E-01  0.76804947150E-01  0.51100000000E-03 0.  1.
</event>
<event>
 8    1  0.1126414E+005  0.1043930E+01  0.7957747E-01            NaN
         13   -1    0    0    0    0  0.00000000000E+00  0.00000000000E+00  0.74505805969E-08  0.10566000000E+00  0.10566000000E+00 0.  1.
     999900   -1    0    0    0    0 -0.00000000000E+00 -0.00000000000E+00 -0.74505805969E-08  0.93827000000E+00  0.93827000000E+00 0. -1.
     999902    2    1    2    0    0 -0.13296612586E-01 -0.19062495164E-01  0.14114670038E-02  0.10206454371E+01  0.10203798006E+01 0.  0.
     999903    2    3    3    0    0  0.57416996302E-01  0.33431662119E-01 -0.10916276068E+00  0.12936393792E+00  0.20103050013E-01 0.  0.
         14    1    1    2    0    0  0.13296612586E-01  0.19062495164E-01 -0.14114670038E-02  0.23284562852E-01  0.00000000000E+00 0. -1.
     999901    1    3    3    0    0 -0.70713608888E-01 -0.52494157283E-01  0.11057422768E+00  0.89128149922E+00  0.88000000000E+00 0.  1.
        -11    1    4    4    0    0  0.30120934599E-01  0.60342409020E-02 -0.49633476356E-01  0.58373160447E-01  0.51100000000E-03 0. -1.
         11    1    4    4    0    0  0.27296061704E-01  0.27397421217E-01 -0.59529284323E-01  0.70990777477E-01  0.51100000000E-03 0.  1.
</event>
<event>
 8    1  0.1126414E+005  0.1043930E+01  0.7957747E-01            NaN
         13   -1    0    0    0    0  0.00000000000E+00  0.00000000000E+00  0.74505805969E-08  0.10566000000E+00  0.10566000000E+00 0.  1.
     999900   -1    0    0    0    0 -0.00000000000E+00 -0.00000000000E+00 -0.74505805969E-08  0.93827000000E+00  0.93827000000E+00 0.  1.
     999902    2    1    2    0    0 -0.23346418210E-01 -0.37454284945E-02  0.35691958980E-02  0.10200171868E+01  0.10197368477E+01 0.  0.
     999903    2    3    3    0    0  0.57174389002E-01 -0.16815442056E-01 -0.11230383384E+00  0.12868055861E+00  0.19871215913E-01 0.  0.
         14    1    1    2    0    0  0.23346418210E-01  0.37454284945E-02 -0.35691958980E-02  0.23912813243E-01  0.00000000000E+00 0.  1.
     999901    1    3    3    0    0 -0.80520807211E-01  0.13070013561E-01  0.11587302973E+00  0.89133662814E+00  0.88000000000E+00 0. -1.
        -11    1    4    4    0    0  0.19789031362E-01 -0.10902013790E-01 -0.60008506480E-01  0.64122863612E-01  0.51100000000E-03 0.  1.
         11    1    4    4    0    0  0.37385357640E-01 -0.59134282660E-02 -0.52295327356E-01  0.64557695003E-01  0.51100000000E-03 0. -1.
</event>
<event>
 8    1  0.1126414E+005  0.1043930E+01  0.7957747E-01            NaN
         13   -1    0    0    0    0  0.00000000000E+00  0.00000000000E+00  0.74505805969E-08  0.10566000000E+00  0.10566000000E+00 0.  1.
     999900   -1    0    0    0    0 -0.00000000000E+00 -0.00000000000E+00 -0.74505805969E-08  0.93827000000E+00  0.93827000000E+00 0. -1.
     999902    2    1    2    0    0 -0.19497763847E-01 -0.10661757986E-01 -0.77587046154E-02  0.10203920864E+01  0.10201205697E+01 0.  0.
     999903    2    3    3    0    0  0.51064294846E-01  0.56656478637E-01 -0.10350424703E+00  0.12984284129E+00  0.18124996571E-01 0.  0.
         14    1    1    2    0    0  0.19497763847E-01  0.10661757986E-01  0.77587046154E-02  0.23537913580E-01  0.00000000000E+00 0.  1.
     999901    1    3    3    0    0 -0.70562058693E-01 -0.67318236622E-01  0.95745542418E-01  0.89054924513E+00  0.88000000000E+00 0. -1.
        -11    1    4    4    0    0  0.32864805504E-01  0.34020378430E-01 -0.77806454840E-01  0.91058152437E-01  0.51100000000E-03 0. -1.
         11    1    4    4    0    0  0.18199489342E-01  0.22636100206E-01 -0.25697792193E-01  0.38784688854E-01  0.51100000000E-03 0.  1.
</event>
<event>
 8    1  0.1126414E+005  0.1043930E+01  0.7957747E-01            NaN
         13   -1    0    0    0    0  0.00000000000E+00  0.00000000000E+00  0.74505805969E-08  0.10566000000E+00  0.10566000000E+00 0. -1.
     999900   -1    0    0    0    0 -0.00000000000E+00 -0.00000000000E+00 -0.74505805969E-08  0.93827000000E+00  0.93827000000E+00 0. -1.
     999902    2    1    2    0    0 -0.20722675074E-01 -0.10998882067E-01 -0.32131290350E-02  0.10202502857E+01  0.10199754491E+01 0.  0.
     999903    2    3    3    0    0  0.75538006080E-01  0.69004341856E-02 -0.10245935957E+00  0.12927535987E+00  0.21461406096E-01 0.  0.
         14    1    1    2    0    0  0.20722675074E-01  0.10998882067E-01  0.32131290350E-02  0.23679714253E-01  0.00000000000E+00 0.  1.
     999901    1    3    3    0    0 -0.96260681154E-01 -0.17899316252E-01  0.99246230539E-01  0.89097492587E+00  0.88000000000E+00 0.  1.
        -11    1    4    4    0    0  0.34012004232E-01  0.94784938300E-02 -0.61331203749E-01  0.70770304164E-01  0.51100000000E-03 0.  1.
         11    1    4    4    0    0  0.41526001848E-01 -0.25780596444E-02 -0.41128155825E-01  0.58505055710E-01  0.51100000000E-03 0. -1.
</event>
<event>
 8    1  0.1126414E+005  0.1043930E+01  0.7957747E-01            NaN
         13   -1    0    0    0    0  0.00000000000E+00  0.00000000000E+00  0.74505805969E-08  0.10566000000E+00  0.10566000000E+00 0.  1.
     999900   -1    0    0    0    0 -0.00000000000E+00 -0.00000000000E+00 -0.74505805969E-08  0.93827000000E+00  0.93827000000E+00 0. -1.
     999902    2    1    2    0    0  0.10780886574E-01  0.80776363033E-02 -0.19266981294E-01  0.10204205914E+01  0.10201497395E+01 0.  0.
     999903    2    3    3    0    0 -0.84379082752E-01  0.78979371778E-02 -0.98860533599E-01  0.13171896229E+00  0.19856306427E-01 0.  0.
         14    1    1    2    0    0 -0.10780886574E-01 -0.80776363033E-02  0.19266981294E-01  0.23509408580E-01  0.00000000000E+00 0.  1.
     999901    1    3    3    0    0  0.95159969326E-01  0.17969912551E-03  0.79593552305E-01  0.88870162913E+00  0.88000000000E+00 0. -1.
        -11    1    4    4    0    0 -0.49617910511E-01  0.82481073687E-02 -0.44326372674E-01  0.67045184421E-01  0.51100000000E-03 0.  1.
         11    1    4    4    0    0 -0.34761172242E-01 -0.35017019093E-03 -0.54534160926E-01  0.64673777867E-01  0.51100000000E-03 0. -1.
</event>
<event>
 8    1  0.1126414E+005  0.1043930E+01  0.7957747E-01            NaN
         13   -1    0    0    0    0  0.00000000000E+00  0.00000000000E+00  0.74505805969E-08  0.10566000000E+00  0.10566000000E+00 0. -1.
     999900   -1    0    0    0    0 -0.00000000000E+00 -0.00000000000E+00 -0.74505805969E-08  0.93827000000E+00  0.93827000000E+00 0.  1.
     999902    2    1    2    0    0  0.24600787929E-02 -0.12205602822E-01  0.20141229051E-01  0.10202509410E+01  0.10199761197E+01 0.  0.
     999903    2    3    3    0    0 -0.74234431160E-01  0.10352930785E+00  0.48502435979E-02  0.12923442507E+00  0.21188284651E-01 0.  0.
         14    1    1    2    0    0 -0.24600787929E-02  0.12205602822E-01 -0.20141229051E-01  0.23679059010E-01  0.00000000000E+00 0.  1.
     999901    1    3    3    0    0  0.76694509953E-01 -0.11573491067E+00  0.15290985453E-01  0.89101651592E+00  0.88000000000E+00 0.  1.
        -11    1    4    4    0    0 -0.31986611811E-01  0.28866539083E-01 -0.22844663324E-02  0.43149743003E-01  0.51100000000E-03 0.  1.
         11    1    4    4    0    0 -0.42247819349E-01  0.74662768768E-01  0.71347099303E-02  0.86084682067E-01  0.51100000000E-03 0. -1.
</event>
<event>
 8    1  0.1126414E+005  0.1043930E+01  0.7957747E-01            NaN
         13   -1    0    0    0    0  0.00000000000E+00  0.00000000000E+00  0.74505805969E-08  0.10566000000E+00  0.10566000000E+00 0. -1.
     999900   -1    0    0    0    0 -0.00000000000E+00 -0.00000000000E+00 -0.74505805969E-08  0.93827000000E+00  0.93827000000E+00 0.  1.
     999902    2    1    2    0    0  0.12279503881E-01 -0.13790967498E-01  0.14044759588E-01  0.10207301666E+01  0.10204664819E+01 0.  0.
     999903    2    3    3    0    0  0.45914338447E-01  0.61314626963E-01  0.10615105661E+00  0.13210441723E+00  0.17774146267E-01 0.  0.
         14    1    1    2    0    0 -0.12279503881E-01  0.13790967498E-01 -0.14044759588E-01  0.23199833448E-01  0.00000000000E+00 0.  1.
     999901    1    3    3    0    0 -0.33634834566E-01 -0.75105594462E-01 -0.92106297026E-01  0.88862574933E+00  0.88000000000E+00 0.  1.
        -11    1    4    4    0    0  0.36961310775E-01  0.36809650341E-01  0.76664559478E-01  0.92729739854E-01  0.51100000000E-03 0.  1.
         11    1    4    4    0    0  0.89530276723E-02  0.24504976622E-01  0.29486497136E-01  0.39374677371E-01  0.51100000000E-03 0. -1.
</event>
<event>
 8    1  0.1126414E+005  0.1043930E+01  0.7957747E-01            NaN
         13   -1    0    0    0    0  0.00000000000E+00  0.00000000000E+00  0.74505805969E-08  0.10566000000E+00  0.10566000000E+00 0. -1.
     999900   -1    0    0    0    0 -0.00000000000E+00 -0.00000000000E+00 -0.74505805969E-08  0.93827000000E+00  0.93827000000E+00 0.  1.
     999902    2    1    2    0    0  0.23411853088E-01  0.31956379447E-02 -0.79120206111E-02  0.10190115924E+01  0.10187068756E+01 0.  0.
     999903    2    3    3    0    0  0.91656994917E-01 -0.42693959722E-01  0.80643907023E-01  0.13075182923E+00  0.19204744032E-01 0.  0.
         14    1    1    2    0    0 -0.23411853088E-01 -0.31956379447E-02  0.79120206111E-02  0.24918407594E-01  0.00000000000E+00 0.  1.
     999901    1    3    3    0    0 -0.68245141829E-01  0.45889597667E-01 -0.88555927634E-01  0.88825976318E+00  0.88000000000E+00 0.  1.
        -11    1    4    4    0    0  0.19224539173E-01 -0.16222052484E-01  0.13803467445E-01  0.28697294780E-01  0.51100000000E-03 0. -1.
         11    1    4    4    0    0  0.72432455743E-01 -0.26471907238E-01  0.66840439578E-01  0.10205453445E+00  0.51100000000E-03 0.  1.
</event>
<event>
 8    1  0.1231735E+005  0.1043930E+01  0.7957747E-01            NaN
         13   -1    0    0    0    0  0.00000000000E+00  0.00000000000E+00  0.74505805969E-08  0.10566000000E+00  0.10566000000E+00 0. -1.
     999900   -1    0    0    0    0 -0.00000000000E+00 -0.00000000000E+00 -0.74505805969E-08  0.93827000000E+00  0.93827000000E+00 0. -1.
     999902    2    1    2    0    0  0.21171166254E-01 -0.50581325377E-02 -0.86053666761E-02  0.10205236906E+01  0.10202552365E+01 0.  0.
     999903    2    3    3    0    0 -0.95014323568E-01 -0.30741039107E-01 -0.80178009847E-01  0.12963574982E+00  0.20104258238E-01 0.  0.
         14    1    1    2    0    0 -0.21171166254E-01  0.50581325377E-02  0.86053666761E-02  0.23406309426E-01  0.00000000000E+00 0.  1.
     999901    1    3    3    0    0  0.11618548982E+00  0.25682906569E-01  0.71572643171E-01  0.89088794076E+00  0.88000000000E+00 0.  1.
        -11    1    4    4    0    0 -0.42683559792E-01 -0.10372344536E-01 -0.23380345006E-01  0.49763173746E-01  0.51100000000E-03 0.  1.
         11    1    4    4    0    0 -0.52330763776E-01 -0.20368694571E-01 -0.56797664841E-01  0.79872576072E-01  0.51100000000E-03 0. -1.
</event>
<event>
 8    1  0.1126414E+005  0.1043930E+01  0.7957747E-01            NaN
         13   -1    0    0    0    0  0.00000000000E+00  0.00000000000E+00  0.74505805969E-08  0.10566000000E+00  0.10566000000E+00 0.  1.
     999900   -1    0    0    0    0 -0.00000000000E+00 -0.00000000000E+00 -0.74505805969E-08  0.93827000000E+00  0.93827000000E+00 0.  1.
     999902    2    1    2    0    0 -0.29518780173E-02  0.19764562837E-01  0.14122728037E-01  0.10194595489E+01  0.10191658201E+01 0.  0.
     999903    2    3    3    0    0  0.79152134807E-01 -0.61787155101E-01 -0.75824478366E-01  0.12733721901E+00  0.19562792371E-01 0.  0.
         14    1    1    2    0    0  0.29518780173E-02 -0.19764562837E-01 -0.14122728037E-01  0.24470451062E-01  0.00000000000E+00 0. -1.
     999901    1    3    3    0    0 -0.82104012825E-01  0.81551717937E-01  0.89947206402E-01  0.89212232993E+00  0.88000000000E+00 0. -1.
        -11    1    4    4    0    0  0.32824792115E-01 -0.31468713190E-01 -0.23642478629E-01  0.51254022320E-01  0.51100000000E-03 0. -1.
         11    1    4    4    0    0  0.46327342693E-01 -0.30318441910E-01 -0.52181999737E-01  0.76083196688E-01  0.51100000000E-03 0.  1.
</event>
<event>
 8    1  0.1126414E+005  0.1043930E+01  0.7957747E-01            NaN
         13   -1    0    0    0    0  0.00000000000E+00  0.00000000000E+00  0.74505805969E-08  0.10566000000E+00  0.10566000000E+00 0.  1.
     999900   -1    0    0    0    0 -0.00000000000E+00 -0.00000000000E+00 -0.74505805969E-08  0.93827000000E+00  0.93827000000E+00 0.  1.
     999902    2    1    2    0    0  0.49069181779E-02 -0.20490664921E-01  0.10491503177E-01  0.10203924378E+01  0.10201209293E+01 0.  0.
     999903    2    3    3    0    0 -0.79098724764E-01 -0.85466610399E-02 -0.10002083434E+00  0.12943083144E+00  0.20457740646E-01 0.  0.
         14    1    1    2    0    0 -0.49069181779E-02  0.20490664921E-01 -0.10491503177E-01  0.23537562189E-01  0.00000000000E+00 0.  1.
     999901    1    3    3    0    0  0.84005642941E-01 -0.11944003881E-01  0.11051233752E+00  0.89096160637E+00  0.88000000000E+00 0. -1.
        -11    1    4    4    0    0 -0.38326333018E-01 -0.96551456123E-02 -0.62838661502E-01  0.74236703454E-01  0.51100000000E-03 0. -1.
         11    1    4    4    0    0 -0.40772391746E-01  0.11084845723E-02 -0.37182172838E-01  0.55194127991E-01  0.51100000000E-03 0.  1.
</event>
<event>
 8    1  0.1126414E+005  0.1043930E+01  0.7957747E-01            NaN
         13   -1    0    0    0    0  0.00000000000E+00  0.00000000000E+00  0.74505805969E-08  0.10566000000E+00  0.10566000000E+00 0. -1.
     999900   -1    0    0    0    0 -0.00000000000E+00 -0.00000000000E+00 -0.74505805969E-08  0.93827000000E+00  0.93827000000E+00 0. -1.
     999902    2    1    2    0    0 -0.23205723028E-01  0.15133500126E-02 -0.73691895902E-02  0.10195353128E+01  0.10192434220E+01 0.  0.
     999903    2    3    3    0    0 -0.12711555818E+00 -0.12241700878E-02  0.31592247488E-01  0.13256138901E+00  0.20361434947E-01 0.  0.
         14    1    1    2    0    0  0.23205723028E-01 -0.15133500126E-02  0.73691895902E-02  0.24394687224E-01  0.00000000000E+00 0. -1.
     999901    1    3    3    0    0  0.10390983515E+00  0.27375201005E-02 -0.38961437078E-01  0.88697392376E+00  0.88000000000E+00 0. -1.
        -11    1    4    4    0    0 -0.40781686406E-01 -0.26412130718E-02  0.19796559706E-01  0.45412408544E-01  0.51100000000E-03 0. -1.
         11    1    4    4    0    0 -0.86333871770E-01  0.14170429840E-02  0.11795687783E-01  0.87148980469E-01  0.51100000000E-03 0.  1.
</event>
<event>
 8    1  0.1126414E+005  0.1043930E+01  0.7957747E-01            NaN
         13   -1    0    0    0    0  0.00000000000E+00  0.00000000000E+00  0.74505805969E-08  0.10566000000E+00  0.10566000000E+00 0. -1.
     999900   -1    0    0    0    0 -0.00000000000E+00 -0.00000000000E+00 -0.74505805969E-08  0.93827000000E+00  0.93827000000E+00 0. -1.
     999902    2    1    2    0    0 -0.24757228919E-01 -0.81465133137E-03  0.66845412486E-02  0.10182732829E+01  0.10179500044E+01 0.  0.
     999903    2    3    3    0    0 -0.81864912245E-01  0.47311887327E-01  0.88399423149E-01  0.13133767467E+00  0.22245184567E-01 0.  0.
         14    1    1    2    0    0  0.24757228919E-01  0.81465133137E-03 -0.66845412486E-02  0.25656717098E-01  0.00000000000E+00 0.  1.
     999901    1    3    3    0    0  0.57107683326E-01 -0.48126538659E-01 -0.81714881900E-01  0.88693560823E+00  0.88000000000E+00 0. -1.
        -11    1    4    4    0    0 -0.33730912462E-01  0.31997799899E-01  0.45693396643E-01  0.65190346461E-01  0.51100000000E-03 0.  1.
         11    1    4    4    0    0 -0.48133999783E-01  0.15314087428E-01  0.42706026505E-01  0.66147328213E-01  0.51100000000E-03 0. -1.
</event>
<event>
 8    1  0.1126414E+005  0.1043930E+01  0.7957747E-01            NaN
         13   -1    0    0    0    0  0.00000000000E+00  0.00000000000E+00  0.74505805969E-08  0.10566000000E+00  0.10566000000E+00 0. -1.
     999900   -1    0    0    0    0 -0.00000000000E+00 -0.00000000000E+00 -0.74505805969E-08  0.93827000000E+00  0.93827000000E+00 0.  1.
     999902    2    1    2    0    0  0.21531842863E-01  0.54239952479E-02 -0.76727142338E-02  0.10204372240E+01  0.10201667597E+01 0.  0.
     999903    2    3    3    0    0  0.78347261528E-01  0.29537329906E-01 -0.10174875468E+00  0.13327334617E+00  0.19955662675E-01 0.  0.
         14    1    1    2    0    0 -0.21531842863E-01 -0.54239952479E-02  0.76727142338E-02  0.23492776022E-01  0.00000000000E+00 0.  1.
     999901    1    3    3    0    0 -0.56815418665E-01 -0.24113334658E-01  0.94076040446E-01  0.88716387781E+00  0.88000000000E+00 0. -1.
        -11    1    4    4    0    0  0.58506194650E-01  0.13172830968E-01 -0.65302040611E-01  0.88662934290E-01  0.51100000000E-03 0.  1.
         11    1    4    4    0    0  0.19841066878E-01  0.16364498938E-01 -0.36446714069E-01  0.44610411876E-01  0.51100000000E-03 0. -1.
</event>
<event>
 8    1  0.1126414E+005  0.1043930E+01  0.7957747E-01            NaN
         13   -1    0    0    0    0  0.00000000000E+00  0.00000000000E+00  0.74505805969E-08  0.10566000000E+00  0.10566000000E+00 0. -1.
     999900   -1    0    0    0    0 -0.00000000000E+00 -0.00000000000E+00 -0.74505805969E-08  0.93827000000E+00  0.93827000000E+00 0.  1.
     999902    2    1    2    0    0  0.23941026740E-02  0.21937445530E-01  0.10700336156E-01  0.10194049019E+01  0.10191098437E+01 0.  0.
     999903    2    3    3    0    0  0.79258275389E-01  0.10026300020E+00 -0.22544290716E-01  0.13196577789E+00  0.23920243805E-01 0.  0.
         14    1    1    2    0    0 -0.23941026740E-02 -0.21937445530E-01 -0.10700336156E-01  0.24525098121E-01  0.00000000000E+00 0. -1.
     999901    1    3    3    0    0 -0.76864172715E-01 -0.78325554675E-01  0.33244626872E-01  0.88743912398E+00  0.88000000000E+00 0.  1.
        -11    1    4    4    0    0  0.17728225140E-02  0.12501758711E-01 -0.49738282295E-02  0.13580756930E-01  0.51100000000E-03 0.  1.
         11    1    4    4    0    0  0.77485452875E-01  0.87761241493E-01 -0.17570462486E-01  0.11838502096E+00  0.51100000000E-03 0. -1.
</event>
<event>
 8    1  0.1126414E+005  0.1043930E+01  0.7957747E-01            NaN
         13   -1    0    0    0    0  0.00000000000E+00  0.00000000000E+00  0.74505805969E-08  0.10566000000E+00  0.10566000000E+00 0.  1.
     999900   -1    0    0    0    0 -0.00000000000E+00 -0.00000000000E+00 -0.74505805969E-08  0.93827000000E+00  0.93827000000E+00 0. -1.
     999902    2    1    2    0    0 -0.50512705067E-02 -0.22634134712E-01  0.38484536004E-02  0.10204219166E+01  0.10201510957E+01 0.  0.
     999903    2    3    3    0    0 -0.11077894181E+00 -0.68259450403E-01 -0.16231666998E-01  0.13269266673E+00  0.20311333573E-01 0.  0.
         14    1    1    2    0    0  0.50512705067E-02  0.22634134712E-01 -0.38484536004E-02  0.23508083355E-01  0.00000000000E+00 0. -1.
     999901    1    3    3    0    0  0.10572767131E+00  0.45625315691E-01  0.20080120598E-01  0.88772924992E+00  0.88000000000E+00 0.  1.
        -11    1    4    4    0    0 -0.37116967812E-01 -0.33087864147E-01 -0.10776990784E-01  0.50881044651E-01  0.51100000000E-03 0. -1.
         11    1    4    4    0    0 -0.73661974002E-01 -0.35171586257E-01 -0.54546762136E-02  0.81811622079E-01  0.51100000000E-03 0.  1.
</event>
<event>
 8    1  0.1126414E+005  0.1043930E+01  0.7957747E-01            NaN
         13   -1    0    0    0    0  0.00000000000E+00  0.00000000000E+00  0.74505805969E-08  0.10566000000E+00  0.10566000000E+00 0. -1.
     999900   -1    0    0    0    0 -0.00000000000E+00 -0.00000000000E+00 -0.74505805969E-08  0.93827000000E+00  0.93827000000E+00 0.  1.
     999902    2    1    2    0    0 -0.21132389793E-01 -0.30340092594E-02 -0.39780634728E-02  0.10222134602E+01  0.10219827543E+01 0.  0.
     999903    2    3    3    0    0  0.34105597449E-01 -0.12188763030E+00  0.31775715013E-01  0.13178898216E+00  0.18407975374E-01 0.  0.
         14    1    1    2    0    0  0.21132389793E-01  0.30340092594E-02  0.39780634728E-02  0.21716539769E-01  0.00000000000E+00 0. -1.
     999901    1    3    3    0    0 -0.55237987242E-01  0.11885362104E+00 -0.35753778486E-01  0.89042447807E+00  0.88000000000E+00 0.  1.
        -11    1    4    4    0    0  0.27856653891E-01 -0.10749537688E+00  0.33514010218E-01  0.11599439305E+00  0.51100000000E-03 0. -1.
         11    1    4    4    0    0  0.62489435583E-02 -0.14392253420E-01 -0.17382952046E-02  0.15794589116E-01  0.51100000000E-03 0.  1.
</event>
<event>
 8    1  0.1126414E+005  0.1043930E+01  0.7957747E-01            NaN
         13   -1    0    0    0    0  0.00000000000E+00  0.00000000000E+00  0.74505805969E-08  0.10566000000E+00  0.10566000000E+00 0.  1.
     999900   -1    0    0    0    0 -0.00000000000E+00 -0.00000000000E+00 -0.74505805969E-08  0.93827000000E+00  0.93827000000E+00 0.  1.
     999902    2    1    2    0    0  0.14892067935E-01 -0.95023625500E-02 -0.12970424815E-01  0.10220142408E+01  0.10217792364E+01 0.  0.
     999903    2    3    3    0    0 -0.41354543914E-01 -0.11955317871E+00  0.33013463399E-01  0.13218876271E+00  0.19514594007E-01 0.  0.
         14    1    1    2    0    0 -0.14892067935E-01  0.95023625500E-02  0.12970424815E-01  0.21915759200E-01  0.00000000000E+00 0. -1.
     999901    1    3    3    0    0  0.56246611849E-01  0.11005081616E+00 -0.45983888215E-01  0.88982547809E+00  0.88000000000E+00 0. -1.
        -11    1    4    4    0    0 -0.23197554137E-01 -0.69306062827E-01  0.90982126458E-02  0.73651174172E-01  0.51100000000E-03 0. -1.
         11    1    4    4    0    0 -0.18156989776E-01 -0.50247115884E-01  0.23915250753E-01  0.58537588539E-01  0.51100000000E-03 0.  1.
</event>
<event>
 8    1  0.1126414E+005  0.1043930E+01  0.7957747E-01            NaN
         13   -1    0    0    0    0  0.00000000000E+00  0.00000000000E+00  0.74505805969E-08  0.10566000000E+00  0.10566000000E+00 0. -1.
     999900   -1    0    0    0    0 -0.00000000000E+00 -0.00000000000E+00 -0.74505805969E-08  0.93827000000E+00  0.93827000000E+00 0. -1.
     999902    2    1    2    0    0 -0.21117239553E-01 -0.11914450724E-01  0.52229776819E-03  0.10196778921E+01  0.10193894442E+01 0.  0.
     999903    2    3    3    0    0 -0.38857740702E-01 -0.11929354238E+00 -0.36531495642E-01  0.13219945388E+00  0.20031778947E-01 0.  0.
         14    1    1    2    0    0  0.21117239553E-01  0.11914450724E-01 -0.52229776819E-03  0.24252107895E-01  0.00000000000E+00 0.  1.
     999901    1    3    3    0    0  0.17740501150E-01  0.10737909165E+00  0.37053793411E-01  0.88747843822E+00  0.88000000000E+00 0. -1.
        -11    1    4    4    0    0 -0.14656279092E-01 -0.66177021742E-01 -0.27427559678E-01  0.73121384521E-01  0.51100000000E-03 0.  1.
         11    1    4    4    0    0 -0.24201461610E-01 -0.53116520634E-01 -0.91039359647E-02  0.59078069361E-01  0.51100000000E-03 0. -1.
</event>
<event>
 8    1  0.1126414E+005  0.1043930E+01  0.7957747E-01            NaN
         13   -1    0    0    0    0  0.00000000000E+00  0.00000000000E+00  0.74505805969E-08  0.10566000000E+00  0.10566000000E+00 0.  1.
     999900   -1    0    0    0    0 -0.00000000000E+00 -0.00000000000E+00 -0.74505805969E-08  0.93827000000E+00  0.93827000000E+00 0.  1.
     999902    2    1    2    0    0 -0.21414057033E-01  0.77926672843E-03  0.95880901326E-02  0.10204544687E+01  0.10201844060E+01 0.  0.
     999903    2    3    3    0    0  0.78103267951E-01 -0.10065178959E+00 -0.37211674693E-02  0.12895623908E+00  0.19620430632E-01 0.  0.
         14    1    1    2    0    0  0.21414057033E-01 -0.77926672843E-03 -0.95880901326E-02  0.23475531254E-01  0.00000000000E+00 0. -1.
     999901    1    3    3    0    0 -0.99517324985E-01  0.10143105632E+00  0.13309257602E-01  0.89149822967E+00  0.88000000000E+00 0.  1.
        -11    1    4    4    0    0  0.52367256822E-01 -0.62259541954E-01  0.65037305364E-02  0.81615805965E-01  0.51100000000E-03 0.  1.
         11    1    4    4    0    0  0.25736011129E-01 -0.38392247636E-01 -0.10224898006E-01  0.47340433116E-01  0.51100000000E-03 0. -1.
</event>
<event>
 8    1  0.1126414E+005  0.1043930E+01  0.7957747E-01            NaN
         13   -1    0    0    0    0  0.00000000000E+00  0.00000000000E+00  0.74505805969E-08  0.10566000000E+00  0.10566000000E+00 0.  1.
     999900   -1    0    0    0    0 -0.00000000000E+00 -0.00000000000E+00 -0.74505805969E-08  0.93827000000E+00  0.93827000000E+00 0. -1.
     999902    2    1    2    0    0 -0.21687778814E-01 -0.24022040172E-02 -0.12873832633E-01  0.10185949275E+01  0.10182798045E+01 0.  0.
     999903    2    3    3    0    0  0.38702121770E-01 -0.87666447783E-01  0.81428132124E-01  0.12741043931E+00  0.20484605139E-01 0.  0.
         14    1    1    2    0    0  0.21687778814E-01  0.24022040172E-02  0.12873832633E-01  0.25335072542E-01  0.00000000000E+00 0.  1.
     999901    1    3    3    0    0 -0.60389900584E-01  0.85264243765E-01 -0.94301964758E-01  0.89118448815E+00  0.88000000000E+00 0. -1.
        -11    1    4    4    0    0  0.78281394002E-03 -0.10331853122E-02  0.68000306100E-02  0.69413116089E-02  0.51100000000E-03 0. -1.
         11    1    4    4    0    0  0.37919307830E-01 -0.86633262470E-01  0.74628101514E-01  0.12046912770E+00  0.51100000000E-03 0.  1.
</event>
<event>
 8    1  0.1126414E+005  0.1043930E+01  0.7957747E-01            NaN
         13   -1    0    0    0    0  0.00000000000E+00  0.00000000000E+00  0.74505805969E-08  0.10566000000E+00  0.10566000000E+00 0.  1.
     999900   -1    0    0    0    0 -0.00000000000E+00 -0.00000000000E+00 -0.74505805969E-08  0.93827000000E+00  0.93827000000E+00 0. -1.
     999902    2    1    2    0    0  0.15662148628E-01 -0.18022549724E-01 -0.58649826581E-02  0.10193431495E+01  0.10190465854E+01 0.  0.
     999903    2    3    3    0    0 -0.91691634478E-01 -0.71174566482E-01 -0.55610852824E-01  0.12983507010E+00  0.17070551524E-01 0.  0.
         14    1    1    2    0    0 -0.15662148628E-01  0.18022549724E-01  0.58649826581E-02  0.24586850547E-01  0.00000000000E+00 0.  1.
     999901    1    3    3    0    0  0.10735378311E+00  0.53152016758E-01  0.49745870166E-01  0.88950807935E+00  0.88000000000E+00 0. -1.
        -11    1    4    4    0    0 -0.88394521477E-01 -0.63172681184E-01 -0.51771871190E-01  0.12035350781E+00  0.51100000000E-03 0.  1.
         11    1    4    4    0    0 -0.32971130007E-02 -0.80018852983E-02 -0.38389816342E-02  0.94815622898E-02  0.51100000000E-03 0. -1.
</event>
<event>
 8    1  0.1126414E+005  0.1043930E+01  0.7957747E-01            NaN
         13   -1    0    0    0    0  0.00000000000E+00  0.00000000000E+00  0.74505805969E-08  0.10566000000E+00  0.10566000000E+00 0. -1.
     999900   -1    0    0    0    0 -0.00000000000E+00 -0.00000000000E+00 -0.74505805969E-08  0.93827000000E+00  0.93827000000E+00 0. -1.
     999902    2    1    2    0    0 -0.21350986673E-01  0.44385971297E-02 -0.10445147233E-01  0.10197501142E+01  0.10194634023E+01 0.  0.
     999903    2    3    3    0    0  0.82467842057E-01 -0.43344988551E-01  0.81388010730E-01  0.12762066779E+00  0.31357511864E-01 0.  0.
         14    1    1    2    0    0  0.21350986673E-01 -0.44385971297E-02  0.10445147233E-01  0.24179885796E-01  0.00000000000E+00 0.  1.
     999901    1    3    3    0    0 -0.10381882873E+00  0.47783585680E-01 -0.91833157963E-01  0.89212944642E+00  0.88000000000E+00 0. -1.
        -11    1    4    4    0    0  0.51483119479E-01 -0.14408670755E-01  0.59195952870E-01  0.79765552348E-01  0.51100000000E-03 0. -1.
         11    1    4    4    0    0  0.30984722578E-01 -0.28936317795E-01  0.22192057860E-01  0.47855115441E-01  0.51100000000E-03 0.  1.
</event>
<event>
 8    1  0.1126414E+005  0.1043930E+01  0.7957747E-01            NaN
         13   -1    0    0    0    0  0.00000000000E+00  0.00000000000E+00  0.74505805969E-08  0.10566000000E+00  0.10566000000E+00 0. -1.
     999900   -1    0    0    0    0 -0.00000000000E+00 -0.00000000000E+00 -0.74505805969E-08  0.93827000000E+00  0.93827000000E+00 0. -1.
     999902    2    1    2    0    0 -0.16368951961E-01 -0.14514975614E-01  0.87754499188E-02  0.10203580755E+01  0.10200857643E+01 0.  0.
     999903    2    3    3    0    0 -0.77819140765E-01  0.98472259396E-01 -0.27908015386E-01  0.13025251003E+00  0.20838774103E-01 0.  0.
         14    1    1    2    0    0  0.16368951961E-01  0.14514975614E-01 -0.87754499188E-02  0.23571924543E-01  0.00000000000E+00 0. -1.
     999901    1    3    3    0    0  0.61450188804E-01 -0.11298723501E+00  0.36683465304E-01  0.89010556543E+00  0.88000000000E+00 0.  1.
        -11    1    4    4    0    0 -0.22263572484E-01  0.14635783886E-01 -0.63025788922E-02  0.27383506923E-01  0.51100000000E-03 0.  1.
         11    1    4    4    0    0 -0.55555568281E-01  0.83836475509E-01 -0.21605436493E-01  0.10286900311E+00  0.51100000000E-03 0. -1.
</event>
<event>
 8    1  0.1126414E+005  0.1043930E+01  0.7957747E-01            NaN
         13   -1    0    0    0    0  0.00000000000E+00  0.00000000000E+00  0.74505805969E-08  0.10566000000E+00  0.10566000000E+00 0.  1.
     999900   -1    0    0    0    0 -0.00000000000E+00 -0.00000000000E+00 -0.74505805969E-08  0.93827000000E+00  0.93827000000E+00 0. -1.
     999902    2    1    2    0    0  0.29511725589E-02  0.23012513734E-01 -0.72626305903E-02  0.10196188706E+01  0.10193290001E+01 0.  0.
     999903    2    3    3    0    0 -0.76660970012E-01 -0.94680738617E-01  0.31023316955E-01  0.12739938605E+00  0.20659399391E-01 0.  0.
         14    1    1    2    0    0 -0.29511725589E-02 -0.23012513734E-01  0.72626305903E-02  0.24311129363E-01  0.00000000000E+00 0. -1.
     999901    1    3    3    0    0  0.79612142571E-01  0.11769325235E+00 -0.38285947546E-01  0.89221948459E+00  0.88000000000E+00 0. -1.
        -11    1    4    4    0    0 -0.38853987697E-01 -0.37117020083E-01  0.57720506975E-02  0.54045196179E-01  0.51100000000E-03 0.  1.
         11    1    4    4    0    0 -0.37806982315E-01 -0.57563718534E-01  0.25251266258E-01  0.73354189872E-01  0.51100000000E-03 0. -1.
</event>
<event>
 8    1  0.1126414E+005  0.1043930E+01  0.7957747E-01            NaN
         13   -1    0    0    0    0  0.00000000000E+00  0.00000000000E+00  0.74505805969E-08  0.10566000000E+00  0.10566000000E+00 0. -1.
     999900   -1    0    0    0    0 -0.00000000000E+00 -0.00000000000E+00 -0.74505805969E-08  0.93827000000E+00  0.93827000000E+00 0. -1.
     999902    2    1    2    0    0 -0.23866820143E-01  0.52849662836E-02 -0.30270816086E-02  0.10192983294E+01  0.10190006699E+01 0.  0.
     999903    2    3    3    0    0 -0.40452958618E-01 -0.74381553856E-01 -0.97037141500E-01  0.13055779036E+00  0.21449297822E-01 0.  0.
         14    1    1    2    0    0  0.23866820143E-01 -0.52849662836E-02  0.30270816086E-02  0.24631670577E-01  0.00000000000E+00 0.  1.
     999901    1    3    3    0    0  0.16586138475E-01  0.79666520140E-01  0.94010059891E-01  0.88874053907E+00  0.88000000000E+00 0.  1.
        -11    1    4    4    0    0 -0.27098909424E-02 -0.11947073010E-01 -0.25916340705E-01  0.28670435974E-01  0.51100000000E-03 0.  1.
         11    1    4    4    0    0 -0.37743067676E-01 -0.62434480847E-01 -0.71120800795E-01  0.10188735438E+00  0.51100000000E-03 0. -1.
</event>
<event>
 8    1  0.1126414E+005  0.1043930E+01  0.7957747E-01            NaN
         13   -1    0    0    0    0  0.00000000000E+00  0.00000000000E+00  0.74505805969E-08  0.10566000000E+00  0.10566000000E+00 0.  1.
     999900   -1    0    0    0    0 -0.00000000000E+00 -0.00000000000E+00 -0.74505805969E-08  0.93827000000E+00  0.93827000000E+00 0.  1.
     999902    2    1    2    0    0  0.62018948000E-02  0.44328628753E-02  0.15331732834E-01  0.10268076227E+01  0.10266648520E+01 0.  0.
     999903    2    3    3    0    0  0.12635814609E+00  0.31472711845E-01  0.40684881093E-01  0.13786923323E+00  0.19893547941E-01 0.  0.
         14    1    1    2    0    0 -0.62018948000E-02 -0.44328628753E-02 -0.15331732834E-01  0.17122377291E-01  0.00000000000E+00 0. -1.
     999901    1    3    3    0    0 -0.12015625129E+00 -0.27039848969E-01 -0.25353148259E-01  0.88893838947E+00  0.88000000000E+00 0. -1.
        -11    1    4    4    0    0  0.11347375839E+00  0.24587147244E-01  0.41310301116E-01  0.12323807752E+00  0.51100000000E-03 0.  1.
         11    1    4    4    0    0  0.12884387701E-01  0.68855646003E-02 -0.62542002277E-03  0.14631155713E-01  0.51100000000E-03 0. -1.
</event>
<event>
 7    1  0.1402950E+005  0.1043930E+01  0.7957747E-01            NaN
         13   -1    0    0    0    0  0.00000000000E+00  0.00000000000E+00  0.74505805969E-08  0.10566000000E+00  0.10566000000E+00 0.  1.
     999900   -1    0    0    0    0 -0.00000000000E+00 -0.00000000000E+00 -0.74505805969E-08  0.93827000000E+00  0.93827000000E+00 0.  1.
     999903    2    1    2    0    0  0.69557604056E-01 -0.44698285349E-01  0.75169604491E-01  0.11349145447E+00  0.19840458761E-01 0.  0.
         14    1    1    2    0    0  0.15981128203E-01  0.35613548461E-01  0.14651089112E-01  0.41693832935E-01  0.00000000000E+00 0.  1.
     999901    1    1    2    0    0 -0.85538732259E-01  0.90847368874E-02 -0.89820693604E-01  0.88874471259E+00  0.88000000000E+00 0.  1.
        -11    1    3    3    0    0  0.33003478609E-01 -0.22276910815E-01  0.49427525995E-01  0.63473079355E-01  0.51100000000E-03 0.  1.
         11    1    3    3    0    0  0.36554125446E-01 -0.22421374534E-01  0.25742078496E-01  0.50018375118E-01  0.51100000000E-03 0. -1.
</event>
<event>
 8    1  0.1126414E+005  0.1043930E+01  0.7957747E-01            NaN
         13   -1    0    0    0    0  0.00000000000E+00  0.00000000000E+00  0.74505805969E-08  0.10566000000E+00  0.10566000000E+00 0.  1.
     999900   -1    0    0    0    0 -0.00000000000E+00 -0.00000000000E+00 -0.74505805969E-08  0.93827000000E+00  0.93827000000E+00 0. -1.
     999902    2    1    2    0    0 -0.35994658780E-02 -0.18548928880E-01  0.19373367253E-01  0.10168681029E+01  0.10165079401E+01 0.  0.
     999903    2    3    3    0    0 -0.13018813453E-01  0.12299505262E+00  0.52702849604E-02  0.12539610683E+00  0.19978369059E-01 0.  0.
         14    1    1    2    0    0  0.35994658780E-02  0.18548928880E-01 -0.19373367253E-01  0.27061897123E-01  0.00000000000E+00 0. -1.
     999901    1    3    3    0    0  0.94193475749E-02 -0.14154398150E+00  0.14103082292E-01  0.89147199605E+00  0.88000000000E+00 0.  1.
        -11    1    4    4    0    0  0.45940834705E-02  0.47873702057E-01  0.33313370875E-02  0.48211574123E-01  0.51100000000E-03 0.  1.
         11    1    4    4    0    0 -0.17612896923E-01  0.75121350567E-01  0.19389478729E-02  0.77184532705E-01  0.51100000000E-03 0. -1.
</event>
<event>
 8    1  0.1126414E+005  0.1043930E+01  0.7957747E-01            NaN
         13   -1    0    0    0    0  0.00000000000E+00  0.00000000000E+00  0.74505805969E-08  0.10566000000E+00  0.10566000000E+00 0. -1.
     999900   -1    0    0    0    0 -0.00000000000E+00 -0.00000000000E+00 -0.74505805969E-08  0.93827000000E+00  0.93827000000E+00 0. -1.
     999902    2    1    2    0    0 -0.10123640330E-01  0.15928432559E-02  0.20253513237E-01  0.10212313207E+01  0.10209790303E+01 0.  0.
     999903    2    3    3    0    0 -0.45221733262E-01  0.33953465411E-02 -0.11906365733E+00  0.12957869824E+00  0.23620986502E-01 0.  0.
         14    1    1    2    0    0  0.10123640330E-01 -0.15928432559E-02 -0.20253513237E-01  0.22698679292E-01  0.00000000000E+00 0.  1.
     999901    1    3    3    0    0  0.35098092932E-01 -0.18025032852E-02  0.13931717056E+00  0.89165262247E+00  0.88000000000E+00 0.  1.
        -11    1    4    4    0    0 -0.28829767560E-01 -0.47768558690E-02 -0.48064825788E-01  0.56253554986E-01  0.51100000000E-03 0. -1.
         11    1    4    4    0    0 -0.16391965702E-01  0.81722024101E-02 -0.70998831540E-01  0.73325143251E-01  0.51100000000E-03 0.  1.
</event>
<event>
 8    1  0.1126414E+005  0.1043930E+01  0.7957747E-01            NaN
         13   -1    0    0    0    0  0.00000000000E+00  0.00000000000E+00  0.74505805969E-08  0.10566000000E+00  0.10566000000E+00 0. -1.
     999900   -1    0    0    0    0 -0.00000000000E+00 -0.00000000000E+00 -0.74505805969E-08  0.93827000000E+00  0.93827000000E+00 0. -1.
     999902    2    1    2    0    0 -0.49990797996E-02  0.15536850413E-01  0.17393821414E-01  0.10200777560E+01  0.10197988521E+01 0.  0.
     999903    2    3    3    0    0  0.89486820575E-02 -0.97061876760E-01 -0.80044982346E-01  0.12745950957E+00  0.18374997933E-01 0.  0.
         14    1    1    2    0    0  0.49990797996E-02 -0.15536850413E-01 -0.17393821414E-01  0.23852243982E-01  0.00000000000E+00 0.  1.
     999901    1    3    3    0    0 -0.13947761857E-01  0.11259872717E+00  0.97438803760E-01  0.89261824645E+00  0.88000000000E+00 0.  1.
        -11    1    4    4    0    0 -0.53383148285E-02 -0.16147107797E-01 -0.13124453693E-01  0.21488115347E-01  0.51100000000E-03 0. -1.
         11    1    4    4    0    0  0.14286996886E-01 -0.80914768963E-01 -0.66920528653E-01  0.10597139422E+00  0.51100000000E-03 0.  1.
</event>
<event>
 8    1  0.1126414E+005  0.1043930E+01  0.7957747E-01            NaN
         13   -1    0    0    0    0  0.00000000000E+00  0.00000000000E+00  0.74505805969E-08  0.10566000000E+00  0.10566000000E+00 0. -1.
     999900   -1    0    0    0    0 -0.00000000000E+00 -0.00000000000E+00 -0.74505805969E-08  0.93827000000E+00  0.93827000000E+00 0.  1.
     999902    2    1    2    0    0 -0.85527617968E-02 -0.85969300265E-02  0.18625011839E-01  0.10217050589E+01  0.10214633030E+01 0.  0.
     999903    2    3    3    0    0 -0.28613770475E-01  0.91485611419E-01  0.89959860791E-01  0.13293758660E+00  0.19780303832E-01 0.  0.
         14    1    1    2    0    0  0.85527617968E-02  0.85969300265E-02 -0.18625011839E-01  0.22224941085E-01  0.00000000000E+00 0.  1.
     999901    1    3    3    0    0  0.20061008678E-01 -0.10008254145E+00 -0.71334848952E-01  0.88876747232E+00  0.88000000000E+00 0.  1.
        -11    1    4    4    0    0 -0.24861465238E-01  0.47180348374E-01  0.51666111131E-01  0.74254467117E-01  0.51100000000E-03 0. -1.
         11    1    4    4    0    0 -0.37523052372E-02  0.44305263045E-01  0.38293749660E-01  0.58683119482E-01  0.51100000000E-03 0.  1.
</event>
<event>
 8    1  0.1126414E+005  0.1043930E+01  0.7957747E-01            NaN
         13   -1    0    0    0    0  0.00000000000E+00  0.00000000000E+00  0.74505805969E-08  0.10566000000E+00  0.10566000000E+00 0. -1.
     999900   -1    0    0    0    0 -0.00000000000E+00 -0.00000000000E+00 -0.74505805969E-08  0.93827000000E+00  0.93827000000E+00 0. -1.
     999902    2    1    2    0    0  0.15090271892E-01 -0.84693338495E-02  0.18164867770E-01  0.10188419881E+01  0.10185330571E+01 0.  0.
     999903    2    3    3    0    0 -0.85480217606E-01  0.70215542412E-01  0.62476902830E-01  0.12852221992E+00  0.19429555498E-01 0.  0.
         14    1    1    2    0    0 -0.15090271892E-01  0.84693338495E-02 -0.18164867770E-01  0.25088011933E-01  0.00000000000E+00 0.  1.
     999901    1    3    3    0    0  0.10057048950E+00 -0.78684876262E-01 -0.44312035060E-01  0.89031976815E+00  0.88000000000E+00 0. -1.
        -11    1    4    4    0    0 -0.30968351873E-01  0.13996334532E-01  0.19936234018E-01  0.39403689496E-01  0.51100000000E-03 0.  1.
         11    1    4    4    0    0 -0.54511865732E-01  0.56219207880E-01  0.42540668812E-01  0.89118530420E-01  0.51100000000E-03 0. -1.
</event>
<event>
 8    1  0.1126414E+005  0.1043930E+01  0.7957747E-01            NaN
         13   -1    0    0    0    0  0.00000000000E+00  0.00000000000E+00  0.74505805969E-08  0.10566000000E+00  0.10566000000E+00 0.  1.
     999900   -1    0    0    0    0 -0.00000000000E+00 -0.00000000000E+00 -0.74505805969E-08  0.93827000000E+00  0.93827000000E+00 0. -1.
     999902    2    1    2    0    0  0.21065147379E-01 -0.10163552783E-01 -0.34801195279E-02  0.10202836584E+01  0.10200096049E+01 0.  0.
     999903    2    3    3    0    0 -0.77500785569E-01 -0.50719812934E-01 -0.88629291568E-01  0.12977232502E+00  0.20170122194E-01 0.  0.
         14    1    1    2    0    0 -0.21065147379E-01  0.10163552783E-01  0.34801195279E-02  0.23646341602E-01  0.00000000000E+00 0. -1.
     999901    1    3    3    0    0  0.98565932948E-01  0.40556260151E-01  0.85149172040E-01  0.89051133338E+00  0.88000000000E+00 0.  1.
        -11    1    4    4    0    0 -0.40568468889E-01 -0.36707753936E-01 -0.58428051783E-01  0.80045975684E-01  0.51100000000E-03 0. -1.
         11    1    4    4    0    0 -0.36932316680E-01 -0.14012058998E-01 -0.30201239785E-01  0.49726349336E-01  0.51100000000E-03 0.  1.
</event>
<event>
 8    1  0.1126414E+005  0.1043930E+01  0.7957747E-01            NaN
         13   -1    0    0    0    0  0.00000000000E+00  0.00000000000E+00  0.74505805969E-08  0.10566000000E+00  0.10566000000E+00 0.  1.
     999900   -1    0    0    0    0 -0.00000000000E+00 -0.00000000000E+00 -0.74505805969E-08  0.93827000000E+00  0.93827000000E+00 0. -1.
     999902    2    1    2    0    0 -0.19000375675E-01 -0.49725202048E-02  0.11221472161E-01  0.10213100603E+01  0.10210595368E+01 0.  0.
     999903    2    3    3    0    0 -0.11527717923E+00  0.40265579956E-01  0.51466081289E-01  0.13399087471E+00  0.19865850187E-01 0.  0.
         14    1    1    2    0    0  0.19000375675E-01  0.49725202048E-02 -0.11221472161E-01  0.22619939665E-01  0.00000000000E+00 0.  1.
     999901    1    3    3    0    0  0.96276803551E-01 -0.45238100161E-01 -0.40244609128E-01  0.88731918562E+00  0.88000000000E+00 0. -1.
        -11    1    4    4    0    0 -0.46462897599E-01  0.10700623152E-01  0.28945853277E-01  0.55780173288E-01  0.51100000000E-03 0.  1.
         11    1    4    4    0    0 -0.68814281628E-01  0.29564956804E-01  0.22520228012E-01  0.78210701426E-01  0.51100000000E-03 0. -1.
</event>
<event>
 8    1  0.1126414E+005  0.1043930E+01  0.7957747E-01            NaN
         13   -1    0    0    0    0  0.00000000000E+00  0.00000000000E+00  0.74505805969E-08  0.10566000000E+00  0.10566000000E+00 0. -1.
     999900   -1    0    0    0    0 -0.00000000000E+00 -0.00000000000E+00 -0.74505805969E-08  0.93827000000E+00  0.93827000000E+00 0.  1.
     999902    2    1    2    0    0 -0.60886007604E-02  0.34406747493E-02  0.22661456276E-01  0.10202139526E+01  0.10199382620E+01 0.  0.
     999903    2    3    3    0    0  0.31483716058E-01 -0.12141277328E+00  0.30884484980E-01  0.13056925913E+00  0.19031398397E-01 0.  0.
         14    1    1    2    0    0  0.60886007604E-02 -0.34406747493E-02 -0.22661456276E-01  0.23716047363E-01  0.00000000000E+00 0.  1.
     999901    1    3    3    0    0 -0.37572316818E-01  0.12485344803E+00 -0.82230287033E-02  0.88964469350E+00  0.88000000000E+00 0.  1.
        -11    1    4    4    0    0  0.32200837075E-02 -0.35206182577E-01  0.15265393530E-01  0.38511525435E-01  0.51100000000E-03 0.  1.
         11    1    4    4    0    0  0.28263632350E-01 -0.86206590707E-01  0.15619091450E-01  0.92057733699E-01  0.51100000000E-03 0. -1.
</event>
<event>
 8    1  0.1126414E+005  0.1043930E+01  0.7957747E-01            NaN
         13   -1    0    0    0    0  0.00000000000E+00  0.00000000000E+00  0.74505805969E-08  0.10566000000E+00  0.10566000000E+00 0. -1.
     999900   -1    0    0    0    0 -0.00000000000E+00 -0.00000000000E+00 -0.74505805969E-08  0.93827000000E+00  0.93827000000E+00 0. -1.
     999902    2    1    2    0    0  0.98242485355E-02 -0.23860508452E-01  0.74212195076E-02  0.10170801542E+01  0.10167256885E+01 0.  0.
     999903    2    3    3    0    0  0.93454794780E-01  0.11686243065E-01  0.85592045305E-01  0.12895385806E+00  0.20802219720E-01 0.  0.
         14    1    1    2    0    0 -0.98242485355E-02  0.23860508452E-01 -0.74212195076E-02  0.26849845844E-01  0.00000000000E+00 0.  1.
     999901    1    3    3    0    0 -0.83630546244E-01 -0.35546751517E-01 -0.78170825797E-01  0.88812629609E+00  0.88000000000E+00 0. -1.
        -11    1    4    4    0    0  0.54832108883E-01  0.13069428535E-01  0.61419607417E-01  0.83366656543E-01  0.51100000000E-03 0.  1.
         11    1    4    4    0    0  0.38622685897E-01 -0.13831854703E-02  0.24172437887E-01  0.45587201519E-01  0.51100000000E-03 0. -1.
</event>
<event>
 8    1  0.1126414E+005  0.1043930E+01  0.7957747E-01            NaN
         13   -1    0    0    0    0  0.00000000000E+00  0.00000000000E+00  0.74505805969E-08  0.10566000000E+00  0.10566000000E+00 0. -1.
     999900   -1    0    0    0    0 -0.00000000000E+00 -0.00000000000E+00 -0.74505805969E-08  0.93827000000E+00  0.93827000000E+00 0. -1.
     999902    2    1    2    0    0 -0.14542146711E-02 -0.17871635151E-01 -0.16063915300E-01  0.10198559588E+01  0.10195717813E+01 0.  0.
     999903    2    3    3    0    0  0.11485624568E+00  0.17155377955E-01  0.52247768701E-01  0.12888934835E+00  0.19909058693E-01 0.  0.
         14    1    1    2    0    0  0.14542146711E-02  0.17871635151E-01  0.16063915300E-01  0.24074041166E-01  0.00000000000E+00 0. -1.
     999901    1    3    3    0    0 -0.11631046035E+00 -0.35027013106E-01 -0.68311684001E-01  0.89096661049E+00  0.88000000000E+00 0. -1.
        -11    1    4    4    0    0  0.62633855320E-01  0.17584890618E-01  0.35083897745E-01  0.73914607571E-01  0.51100000000E-03 0.  1.
         11    1    4    4    0    0  0.52222390360E-01 -0.42951266258E-03  0.17163870956E-01  0.54974740775E-01  0.51100000000E-03 0. -1.
</event>
<event>
 8    1  0.1126414E+005  0.1043930E+01  0.7957747E-01            NaN
         13   -1    0    0    0    0  0.00000000000E+00  0.00000000000E+00  0.74505805969E-08  0.10566000000E+00  0.10566000000E+00 0.  1.
     999900   -1    0    0    0    0 -0.00000000000E+00 -0.00000000000E+00 -0.74505805969E-08  0.93827000000E+00  0.93827000000E+00 0.  1.
     999902    2    1    2    0    0 -0.38828939153E-02  0.15859535323E-01  0.17357015717E-01  0.10201000247E+01  0.10198216475E+01 0.  0.
     999903    2    3    3    0    0  0.89275372916E-01 -0.84283787652E-01 -0.31013136654E-01  0.12822177103E+00  0.20128558100E-01 0.  0.
         14    1    1    2    0    0  0.38828939153E-02 -0.15859535323E-01 -0.17357015717E-01  0.23829975250E-01  0.00000000000E+00 0. -1.
     999901    1    3    3    0    0 -0.93158266831E-01  0.10014332297E+00  0.48370152371E-01  0.89187825372E+00  0.88000000000E+00 0. -1.
        -11    1    4    4    0    0  0.49106362959E-01 -0.58715096702E-01 -0.23059614675E-01  0.79943132374E-01  0.51100000000E-03 0.  1.
         11    1    4    4    0    0  0.40169009956E-01 -0.25568690950E-01 -0.79535219787E-02  0.48278638658E-01  0.51100000000E-03 0. -1.
</event>
<event>
 8    1  0.1126414E+005  0.1043930E+01  0.7957747E-01            NaN
         13   -1    0    0    0    0  0.00000000000E+00  0.00000000000E+00  0.74505805969E-08  0.10566000000E+00  0.10566000000E+00 0.  1.
     999900   -1    0    0    0    0 -0.00000000000E+00 -0.00000000000E+00 -0.74505805969E-08  0.93827000000E+00  0.93827000000E+00 0.  1.
     999902    2    1    2    0    0 -0.19569790320E-01 -0.14179934792E-01 -0.57788729707E-03  0.10197560223E+01  0.10194694521E+01 0.  0.
     999903    2    3    3    0    0  0.11337885178E+00 -0.57505301765E-01 -0.56164031871E-03  0.12871593952E+00  0.20145815573E-01 0.  0.
         14    1    1    2    0    0  0.19569790320E-01  0.14179934792E-01  0.57788729707E-03  0.24173977695E-01  0.00000000000E+00 0. -1.
     999901    1    3    3    0    0 -0.13294864210E+00  0.43325366973E-01 -0.16246978366E-04  0.89104008278E+00  0.88000000000E+00 0. -1.
        -11    1    4    4    0    0  0.71353408872E-01 -0.25407270915E-01  0.20029464718E-02  0.75770121345E-01  0.51100000000E-03 0. -1.
         11    1    4    4    0    0  0.42025442909E-01 -0.32098030850E-01 -0.25645867905E-02  0.52945818178E-01  0.51100000000E-03 0.  1.
</event>
<event>
 8    1  0.1126414E+005  0.1043930E+01  0.7957747E-01            NaN
         13   -1    0    0    0    0  0.00000000000E+00  0.00000000000E+00  0.74505805969E-08  0.10566000000E+00  0.10566000000E+00 0. -1.
     999900   -1    0    0    0    0 -0.00000000000E+00 -0.00000000000E+00 -0.74505805969E-08  0.93827000000E+00  0.93827000000E+00 0.  1.
     999902    2    1    2    0    0 -0.23626480850E-01 -0.17293290367E-02 -0.39752948301E-03  0.10202369798E+01  0.10199618305E+01 0.  0.
     999903    2    3    3    0    0 -0.22653641973E-01  0.10254749230E+00  0.75101482931E-01  0.13086939396E+00  0.21386674947E-01 0.  0.
         14    1    1    2    0    0  0.23626480850E-01  0.17293290367E-02  0.39752948301E-03  0.23693020195E-01  0.00000000000E+00 0.  1.
     999901    1    3    3    0    0 -0.97283887714E-03 -0.10427682133E+00 -0.75499012414E-01  0.88936758585E+00  0.88000000000E+00 0. -1.
        -11    1    4    4    0    0 -0.88925544005E-02  0.80341012269E-01  0.53137292057E-01  0.96734630327E-01  0.51100000000E-03 0. -1.
         11    1    4    4    0    0 -0.13761087572E-01  0.22206480027E-01  0.21964190874E-01  0.34134763630E-01  0.51100000000E-03 0.  1.
</event>
<event>
 8    1  0.1126414E+005  0.1043930E+01  0.7957747E-01            NaN
         13   -1    0    0    0    0  0.00000000000E+00  0.00000000000E+00  0.74505805969E-08  0.10566000000E+00  0.10566000000E+00 0.  1.
     999900   -1    0    0    0    0 -0.00000000000E+00 -0.00000000000E+00 -0.74505805969E-08  0.93827000000E+00  0.93827000000E+00 0.  1.
     999902    2    1    2    0    0  0.10589536171E-01 -0.22028299746E-01  0.18555964267E-01  0.10132427376E+01  0.10127779308E+01 0.  0.
     999903    2    3    3    0    0  0.11577624299E+00  0.40905210060E-01 -0.47090349649E-02  0.12444234932E+00  0.19655753434E-01 0.  0.
         14    1    1    2    0    0 -0.10589536171E-01  0.22028299746E-01 -0.18555964267E-01  0.30687262437E-01  0.00000000000E+00 0. -1.
     999901    1    3    3    0    0 -0.10518670682E+00 -0.62933509806E-01  0.23264999232E-01  0.88880038824E+00  0.88000000000E+00 0.  1.
        -11    1    4    4    0    0  0.55293151466E-01  0.17671649130E-01 -0.11876482985E-01  0.59253115961E-01  0.51100000000E-03 0. -1.
         11    1    4    4    0    0  0.60483091526E-01  0.23233560930E-01  0.71674480202E-02  0.65189233361E-01  0.51100000000E-03 0.  1.
</event>
<event>
 8    1  0.1126414E+005  0.1043930E+01  0.7957747E-01            NaN
         13   -1    0    0    0    0  0.00000000000E+00  0.00000000000E+00  0.74505805969E-08  0.10566000000E+00  0.10566000000E+00 0.  1.
     999900   -1    0    0    0    0 -0.00000000000E+00 -0.00000000000E+00 -0.74505805969E-08  0.93827000000E+00  0.93827000000E+00 0. -1.
     999902    2    1    2    0    0  0.21800828747E-01  0.45532507953E-02  0.24919267577E-02  0.10215197808E+01  0.10212739322E+01 0.  0.
     999903    2    3    3    0    0 -0.98723538078E-01  0.12852597479E-01 -0.80329373450E-01  0.12941307756E+00  0.19580862372E-01 0.  0.
         14    1    1    2    0    0 -0.21800828747E-01 -0.45532507953E-02 -0.24919267577E-02  0.22410219228E-01  0.00000000000E+00 0.  1.
     999901    1    3    3    0    0  0.12052436683E+00 -0.82993466840E-02  0.82821300207E-01  0.89210670322E+00  0.88000000000E+00 0.  1.
        -11    1    4    4    0    0 -0.32530537065E-01 -0.19226053348E-02 -0.35063961846E-01  0.47871440278E-01  0.51100000000E-03 0. -1.
         11    1    4    4    0    0 -0.66193001013E-01  0.14775202814E-01 -0.45265411604E-01  0.81541637278E-01  0.51100000000E-03 0.  1.
</event>
<event>
 8    1  0.1126414E+005  0.1043930E+01  0.7957747E-01            NaN
         13   -1    0    0    0    0  0.00000000000E+00  0.00000000000E+00  0.74505805969E-08  0.10566000000E+00  0.10566000000E+00 0. -1.
     999900   -1    0    0    0    0 -0.00000000000E+00 -0.00000000000E+00 -0.74505805969E-08  0.93827000000E+00  0.93827000000E+00 0. -1.
     999902    2    1    2    0    0 -0.76352415366E-02 -0.28748973600E-02  0.22200333003E-01  0.10202780078E+01  0.10200038218E+01 0.  0.
     999903    2    3    3    0    0 -0.12449850024E-01 -0.67696995308E-01 -0.10674861323E+00  0.12850846609E+00  0.19526328128E-01 0.  0.
         14    1    1    2    0    0  0.76352415366E-02  0.28748973600E-02 -0.22200333003E-01  0.23651992170E-01  0.00000000000E+00 0.  1.
     999901    1    3    3    0    0  0.48146084869E-02  0.64822097948E-01  0.12894894624E+00  0.89176954174E+00  0.88000000000E+00 0.  1.
        -11    1    4    4    0    0 -0.41924503157E-02 -0.57103535522E-01 -0.93470208997E-01  0.10961446757E+00  0.51100000000E-03 0. -1.
         11    1    4    4    0    0 -0.82573997079E-02 -0.10593459786E-01 -0.13278404238E-01  0.18893998526E-01  0.51100000000E-03 0.  1.
</event>
<event>
 8    1  0.1126414E+005  0.1043930E+01  0.7957747E-01            NaN
         13   -1    0    0    0    0  0.00000000000E+00  0.00000000000E+00  0.74505805969E-08  0.10566000000E+00  0.10566000000E+00 0. -1.
     999900   -1    0    0    0    0 -0.00000000000E+00 -0.00000000000E+00 -0.74505805969E-08  0.93827000000E+00  0.93827000000E+00 0.  1.
     999902    2    1    2    0    0 -0.16918534402E-01 -0.53726974323E-02  0.15475578539E-01  0.10203801334E+01  0.10201083376E+01 0.  0.
     999903    2    3    3    0    0 -0.90979230825E-01  0.44434406251E-01 -0.80104576851E-01  0.13071654509E+00  0.20455684456E-01 0.  0.
         14    1    1    2    0    0  0.16918534402E-01  0.53726974323E-02 -0.15475578539E-01  0.23549866563E-01  0.00000000000E+00 0.  1.
     999901    1    3    3    0    0  0.74060696424E-01 -0.49807103683E-01  0.95580155390E-01  0.88966358835E+00  0.88000000000E+00 0. -1.
        -11    1    4    4    0    0 -0.61131104326E-01  0.18832225252E-01 -0.49410973808E-01  0.80829264983E-01  0.51100000000E-03 0. -1.
         11    1    4    4    0    0 -0.29848126500E-01  0.25602180999E-01 -0.30693603043E-01  0.49887280104E-01  0.51100000000E-03 0.  1.
</event>
<event>
 8    1  0.1126414E+005  0.1043930E+01  0.7957747E-01            NaN
         13   -1    0    0    0    0  0.00000000000E+00  0.00000000000E+00  0.74505805969E-08  0.10566000000E+00  0.10566000000E+00 0. -1.
     999900   -1    0    0    0    0 -0.00000000000E+00 -0.00000000000E+00 -0.74505805969E-08  0.93827000000E+00  0.93827000000E+00 0.  1.
     999902    2    1    2    0    0  0.13661578238E-01  0.76192357247E-02  0.17544172692E-01  0.10204249055E+01  0.10201541542E+01 0.  0.
     999903    2    3    3    0    0 -0.21821403317E-01 -0.10325308864E+00  0.74656360145E-01  0.13092306948E+00  0.20734127818E-01 0.  0.
         14    1    1    2    0    0 -0.13661578238E-01 -0.76192357247E-02 -0.17544172692E-01  0.23505094520E-01  0.00000000000E+00 0.  1.
     999901    1    3    3    0    0  0.35482981555E-01  0.11087232436E+00 -0.57112187454E-01  0.88950183600E+00  0.88000000000E+00 0.  1.
        -11    1    4    4    0    0 -0.57046542894E-02 -0.50531412955E-01  0.24751287876E-01  0.56558413595E-01  0.51100000000E-03 0. -1.
         11    1    4    4    0    0 -0.16116749028E-01 -0.52721675682E-01  0.49905072269E-01  0.74364655886E-01  0.51100000000E-03 0.  1.
</event>
<event>
 8    1  0.1126414E+005  0.1043930E+01  0.7957747E-01            NaN
         13   -1    0    0    0    0  0.00000000000E+00  0.00000000000E+00  0.74505805969E-08  0.10566000000E+00  0.10566000000E+00 0. -1.
     999900   -1    0    0    0    0 -0.00000000000E+00 -0.00000000000E+00 -0.74505805969E-08  0.93827000000E+00  0.93827000000E+00 0. -1.
     999902    2    1    2    0    0  0.17679276895E-01 -0.95276515848E-02  0.11957892237E-01  0.10205564217E+01  0.10202887266E+01 0.  0.
     999903    2    3    3    0    0 -0.11184092036E-01  0.81856054567E-01  0.99826051200E-01  0.13100322532E+00  0.19264136667E-01 0.  0.
         14    1    1    2    0    0 -0.17679276895E-01  0.95276515848E-02 -0.11957892237E-01  0.23373578310E-01  0.00000000000E+00 0.  1.
     999901    1    3    3    0    0  0.28863368932E-01 -0.91383706152E-01 -0.87868158963E-01  0.88955319637E+00  0.88000000000E+00 0. -1.
        -11    1    4    4    0    0 -0.77134799021E-02  0.88970185487E-02  0.13477603228E-01  0.17904234724E-01  0.51100000000E-03 0. -1.
         11    1    4    4    0    0 -0.34706121343E-02  0.72959036019E-01  0.86348447972E-01  0.11309899059E+00  0.51100000000E-03 0.  1.
</event>
<event>
 8    1  0.1126414E+005  0.1043930E+01  0.7957747E-01            NaN
         13   -1    0    0    0    0  0.00000000000E+00  0.00000000000E+00  0.74505805969E-08  0.10566000000E+00  0.10566000000E+00 0. -1.
     999900   -1    0    0    0    0 -0.00000000000E+00 -0.00000000000E+00 -0.74505805969E-08  0.93827000000E+00  0.93827000000E+00 0. -1.
     999902    2    1    2    0    0 -0.66211183384E-02  0.11861735606E-01  0.22249778495E-01  0.10178610027E+01  0.10175271142E+01 0.  0.
     999903    2    3    3    0    0  0.50904258989E-01  0.98371492209E-02 -0.11289276162E+00  0.12568569805E+00  0.19081561280E-01 0.  0.
         14    1    1    2    0    0  0.66211183384E-02 -0.11861735606E-01 -0.22249778495E-01  0.26068997348E-01  0.00000000000E+00 0.  1.
     999901    1    3    3    0    0 -0.57525377327E-01  0.20245863850E-02  0.13514254012E+00  0.89217530460E+00  0.88000000000E+00 0.  1.
        -11    1    4    4    0    0  0.17465959282E-02 -0.18758528302E-02 -0.80928068207E-03  0.27359600508E-02  0.51100000000E-03 0.  1.
         11    1    4    4    0    0  0.49157663061E-01  0.11713002051E-01 -0.11208348094E+00  0.12294973800E+00  0.51100000000E-03 0. -1.
</event>
<event>
 8    1  0.1126414E+005  0.1043930E+01  0.7957747E-01            NaN
         13   -1    0    0    0    0  0.00000000000E+00  0.00000000000E+00  0.74505805969E-08  0.10566000000E+00  0.10566000000E+00 0. -1.
     999900   -1    0    0    0    0 -0.00000000000E+00 -0.00000000000E+00 -0.74505805969E-08  0.93827000000E+00  0.93827000000E+00 0. -1.
     999902    2    1    2    0    0  0.51467765871E-02 -0.21241329020E-01  0.12088152530E-02  0.10220406281E+01  0.10218061954E+01 0.  0.
     999903    2    3    3    0    0  0.90912280353E-01 -0.50061790815E-01 -0.81349380009E-01  0.13355754089E+00  0.21181819628E-01 0.  0.
         14    1    1    2    0    0 -0.51467765871E-02  0.21241329020E-01 -0.12088152530E-02  0.21889371898E-01  0.00000000000E+00 0. -1.
     999901    1    3    3    0    0 -0.85765503765E-01  0.28820461796E-01  0.82558195262E-01  0.88848308721E+00  0.88000000000E+00 0.  1.
        -11    1    4    4    0    0  0.66808129709E-01 -0.38039272536E-01 -0.47794309249E-01  0.90525518877E-01  0.51100000000E-03 0. -1.
         11    1    4    4    0    0  0.24104150643E-01 -0.12022518279E-01 -0.33555070760E-01  0.43032022015E-01  0.51100000000E-03 0.  1.
</event>
<event>
 8    1  0.1126414E+005  0.1043930E+01  0.7957747E-01            NaN
         13   -1    0    0    0    0  0.00000000000E+00  0.00000000000E+00  0.74505805969E-08  0.10566000000E+00  0.10566000000E+00 0. -1.
     999900   -1    0    0    0    0 -0.00000000000E+00 -0.00000000000E+00 -0.74505805969E-08  0.93827000000E+00  0.93827000000E+00 0. -1.
     999902    2    1    2    0    0  0.18103937585E-01 -0.15952482720E-01  0.81747764860E-02  0.10184533198E+01  0.10181346195E+01 0.  0.
     999903    2    3    3    0    0  0.56119325969E-01 -0.62108515825E-01 -0.97618252793E-01  0.13010219884E+00  0.19758855740E-01 0.  0.
         14    1    1    2    0    0 -0.18103937585E-01  0.15952482720E-01 -0.81747764860E-02  0.25476680153E-01  0.00000000000E+00 0.  1.
     999901    1    3    3    0    0 -0.38015388384E-01  0.46156033105E-01  0.10579302928E+00  0.88835112100E+00  0.88000000000E+00 0.  1.
        -11    1    4    4    0    0  0.88267642669E-02 -0.10934443092E-01 -0.67676915995E-02  0.15605658709E-01  0.51100000000E-03 0.  1.
         11    1    4    4    0    0  0.47292561702E-01 -0.51174072733E-01 -0.90850561194E-01  0.11449654013E+00  0.51100000000E-03 0. -1.
</event>
<event>
 8    1  0.1126414E+005  0.1043930E+01  0.7957747E-01            NaN
         13   -1    0    0    0    0  0.00000000000E+00  0.00000000000E+00  0.74505805969E-08  0.10566000000E+00  0.10566000000E+00 0.  1.
     999900   -1    0    0    0    0 -0.00000000000E+00 -0.00000000000E+00 -0.74505805969E-08  0.93827000000E+00  0.93827000000E+00 0.  1.
     999902    2    1    2    0    0 -0.24725014391E-01 -0.14189316730E-01  0.10304425224E-02  0.10154041370E+01  0.10150033678E+01 0.  0.
     999903    2    3    3    0    0  0.11348988276E+00 -0.45295677178E-01 -0.61658016988E-03  0.12407160866E+00  0.21487951178E-01 0.  0.
         14    1    1    2    0    0  0.24725014391E-01  0.14189316730E-01 -0.10304425224E-02  0.28525862962E-01  0.00000000000E+00 0.  1.
     999901    1    3    3    0    0 -0.13821489715E+00  0.31106360447E-01  0.16470226923E-02  0.89133252837E+00  0.88000000000E+00 0.  1.
        -11    1    4    4    0    0  0.22948741676E-01 -0.15226374004E-01 -0.71025646835E-02  0.28446348727E-01  0.51100000000E-03 0.  1.
         11    1    4    4    0    0  0.90541141082E-01 -0.30069303173E-01  0.64859845136E-02  0.95625259937E-01  0.51100000000E-03 0. -1.
</event>
<event>
 8    1  0.1126414E+005  0.1043930E+01  0.7957747E-01            NaN
         13   -1    0    0    0    0  0.00000000000E+00  0.00000000000E+00  0.74505805969E-08  0.10566000000E+00  0.10566000000E+00 0. -1.
     999900   -1    0    0    0    0 -0.00000000000E+00 -0.00000000000E+00 -0.74505805969E-08  0.93827000000E+00  0.93827000000E+00 0.  1.
     999902    2    1    2    0    0 -0.68006197701E-02  0.74134784270E-02  0.21662265704E-01  0.10200456569E+01  0.10197659929E+01 0.  0.
     999903    2    3    3    0    0  0.48578669926E-01  0.11358047784E+00  0.40802815518E-01  0.13173002707E+00  0.20676512280E-01 0.  0.
         14    1    1    2    0    0  0.68006197701E-02 -0.74134784270E-02 -0.21662265704E-01  0.23884343137E-01  0.00000000000E+00 0.  1.
     999901    1    3    3    0    0 -0.55379289696E-01 -0.10616699941E+00 -0.19140549814E-01  0.88831562979E+00  0.88000000000E+00 0.  1.
        -11    1    4    4    0    0  0.31175816979E-01  0.72256264121E-01  0.15389213247E-01  0.80187207673E-01  0.51100000000E-03 0. -1.
         11    1    4    4    0    0  0.17402852947E-01  0.41324213715E-01  0.25413602271E-01  0.51542819396E-01  0.51100000000E-03 0.  1.
</event>
<event>
 8    1  0.1126414E+005  0.1043930E+01  0.7957747E-01            NaN
         13   -1    0    0    0    0  0.00000000000E+00  0.00000000000E+00  0.74505805969E-08  0.10566000000E+00  0.10566000000E+00 0. -1.
     999900   -1    0    0    0    0 -0.00000000000E+00 -0.00000000000E+00 -0.74505805969E-08  0.93827000000E+00  0.93827000000E+00 0. -1.
     999902    2    1    2    0    0  0.93987380694E-02 -0.54839941776E-02 -0.21620865396E-01  0.10197252011E+01  0.10194378909E+01 0.  0.
     999903    2    3    3    0    0  0.77920561016E-01  0.83580055179E-01  0.56717748372E-01  0.12912732129E+00  0.19993065563E-01 0.  0.
         14    1    1    2    0    0 -0.93987380694E-02  0.54839941776E-02  0.21620865396E-01  0.24204798903E-01  0.00000000000E+00 0. -1.
     999901    1    3    3    0    0 -0.68521822947E-01 -0.89064049357E-01 -0.78338613768E-01  0.89059787981E+00  0.88000000000E+00 0. -1.
        -11    1    4    4    0    0  0.88153235067E-02  0.18564018970E-01  0.53967823411E-02  0.21253684609E-01  0.51100000000E-03 0.  1.
         11    1    4    4    0    0  0.69105237510E-01  0.65016036210E-01  0.51320966031E-01  0.10787363668E+00  0.51100000000E-03 0. -1.
</event>
<event>
 8    1  0.1126414E+005  0.1043930E+01  0.7957747E-01            NaN
         13   -1    0    0    0    0  0.00000000000E+00  0.00000000000E+00  0.74505805969E-08  0.10566000000E+00  0.10566000000E+00 0. -1.
     999900   -1    0    0    0    0 -0.00000000000E+00 -0.00000000000E+00 -0.74505805969E-08  0.93827000000E+00  0.93827000000E+00 0.  1.
     999902    2    1    2    0    0  0.98663351550E-02  0.17435686773E-01  0.10446646371E-01  0.10213361919E+01  0.10210862534E+01 0.  0.
     999903    2    3    3    0    0 -0.54772205804E-01  0.35086133188E-01  0.11402797923E+00  0.13273123372E+00  0.19600231832E-01 0.  0.
         14    1    1    2    0    0 -0.98663351550E-02 -0.17435686773E-01 -0.10446646371E-01  0.22593808068E-01  0.00000000000E+00 0.  1.
     999901    1    3    3    0    0  0.64638540959E-01 -0.17650446415E-01 -0.10358133286E+00  0.88860495821E+00  0.88000000000E+00 0.  1.
        -11    1    4    4    0    0 -0.50995896566E-01  0.26048798698E-01  0.88799170142E-01  0.10566302626E+00  0.51100000000E-03 0. -1.
         11    1    4    4    0    0 -0.37763092380E-02  0.90373344906E-02  0.25228809087E-01  0.27068207460E-01  0.51100000000E-03 0.  1.
</event>
<event>
 8    1  0.1126414E+005  0.1043930E+01  0.7957747E-01            NaN
         13   -1    0    0    0    0  0.00000000000E+00  0.00000000000E+00  0.74505805969E-08  0.10566000000E+00  0.10566000000E+00 0.  1.
     999900   -1    0    0    0    0 -0.00000000000E+00 -0.00000000000E+00 -0.74505805969E-08  0.93827000000E+00  0.93827000000E+00 0.  1.
     999902    2    1    2    0    0 -0.90922320610E-02 -0.17706333570E-01  0.10990276567E-01  0.10211930452E+01  0.10209398937E+01 0.  0.
     999903    2    3    3    0    0  0.98940437349E-01 -0.84110690470E-01 -0.70222263645E-02  0.13192084477E+00  0.22135474436E-01 0.  0.
         14    1    1    2    0    0  0.90922320610E-02  0.17706333570E-01 -0.10990276567E-01  0.22736954751E-01  0.00000000000E+00 0. -1.
     999901    1    3    3    0    0 -0.10803266941E+00  0.66404356900E-01  0.18012502932E-01  0.88927220047E+00  0.88000000000E+00 0.  1.
        -11    1    4    4    0    0  0.85282201909E-01 -0.75528337285E-01  0.94099064743E-03  0.11392423043E+00  0.51100000000E-03 0. -1.
         11    1    4    4    0    0  0.13658235440E-01 -0.85823531855E-02 -0.79632170119E-02  0.17996614341E-01  0.51100000000E-03 0.  1.
</event>
<event>
 8    1  0.1126414E+005  0.1043930E+01  0.7957747E-01            NaN
         13   -1    0    0    0    0  0.00000000000E+00  0.00000000000E+00  0.74505805969E-08  0.10566000000E+00  0.10566000000E+00 0. -1.
     999900   -1    0    0    0    0 -0.00000000000E+00 -0.00000000000E+00 -0.74505805969E-08  0.93827000000E+00  0.93827000000E+00 0.  1.
     999902    2    1    2    0    0  0.50379865955E-03  0.42650430689E-02  0.23870541423E-01  0.10196761930E+01  0.10193877042E+01 0.  0.
     999903    2    3    3    0    0  0.94692027620E-01  0.81038022195E-01  0.35146743439E-01  0.13125474712E+00  0.21419008622E-01 0.  0.
         14    1    1    2    0    0 -0.50379865955E-03 -0.42650430689E-02 -0.23870541423E-01  0.24253806985E-01  0.00000000000E+00 0.  1.
     999901    1    3    3    0    0 -0.94188228960E-01 -0.76772979126E-01 -0.11276202017E-01  0.88842144590E+00  0.88000000000E+00 0.  1.
        -11    1    4    4    0    0  0.32131356924E-01  0.36304372408E-01  0.21946938810E-01  0.53219928578E-01  0.51100000000E-03 0.  1.
         11    1    4    4    0    0  0.62560670696E-01  0.44733649787E-01  0.13199804629E-01  0.78034818539E-01  0.51100000000E-03 0. -1.
</event>
<event>
 8    1  0.1126414E+005  0.1043930E+01  0.7957747E-01            NaN
         13   -1    0    0    0    0  0.00000000000E+00  0.00000000000E+00  0.74505805969E-08  0.10566000000E+00  0.10566000000E+00 0. -1.
     999900   -1    0    0    0    0 -0.00000000000E+00 -0.00000000000E+00 -0.74505805969E-08  0.93827000000E+00  0.93827000000E+00 0. -1.
     999902    2    1    2    0    0  0.11837042778E-01  0.19919958150E-01 -0.36200324680E-02  0.10204773893E+01  0.10202078597E+01 0.  0.
     999903    2    3    3    0    0  0.98778627726E-01 -0.79139970844E-01  0.23399797357E-01  0.13025169884E+00  0.19939966219E-01 0.  0.
         14    1    1    2    0    0 -0.11837042778E-01 -0.19919958150E-01  0.36200324680E-02  0.23452610718E-01  0.00000000000E+00 0.  1.
     999901    1    3    3    0    0 -0.86941584948E-01  0.99059928994E-01 -0.27019829825E-01  0.89022569045E+00  0.88000000000E+00 0.  1.
        -11    1    4    4    0    0  0.55329176237E-01 -0.42474833834E-01  0.22825750490E-01  0.73394177281E-01  0.51100000000E-03 0. -1.
         11    1    4    4    0    0  0.43449451489E-01 -0.36665137011E-01  0.57404686702E-03  0.56857521556E-01  0.51100000000E-03 0.  1.
</event>
<event>
 8    1  0.1126414E+005  0.1043930E+01  0.7957747E-01            NaN
         13   -1    0    0    0    0  0.00000000000E+00  0.00000000000E+00  0.74505805969E-08  0.10566000000E+00  0.10566000000E+00 0.  1.
     999900   -1    0    0    0    0 -0.00000000000E+00 -0.00000000000E+00 -0.74505805969E-08  0.93827000000E+00  0.93827000000E+00 0.  1.
     999902    2    1    2    0    0  0.53771983612E-02 -0.22635896929E-01  0.27449793495E-02  0.10205028149E+01  0.10202338762E+01 0.  0.
     999903    2    3    3    0    0  0.79940756210E-01 -0.74462849371E-01  0.73369287292E-01  0.13301560367E+00  0.19361251537E-01 0.  0.
         14    1    1    2    0    0 -0.53771983612E-02  0.22635896929E-01 -0.27449793495E-02  0.23427185140E-01  0.00000000000E+00 0. -1.
     999901    1    3    3    0    0 -0.74563557849E-01  0.51826952443E-01 -0.70624307942E-01  0.88748721119E+00  0.88000000000E+00 0. -1.
        -11    1    4    4    0    0  0.21334410938E-01 -0.27766045667E-01  0.15315695075E-01  0.38222271239E-01  0.51100000000E-03 0. -1.
         11    1    4    4    0    0  0.58606345273E-01 -0.46696803704E-01  0.58053592217E-01  0.94793332428E-01  0.51100000000E-03 0.  1.
</event>
<event>
 8    1  0.1126414E+005  0.1043930E+01  0.7957747E-01            NaN
         13   -1    0    0    0    0  0.00000000000E+00  0.00000000000E+00  0.74505805969E-08  0.10566000000E+00  0.10566000000E+00 0. -1.
     999900   -1    0    0    0    0 -0.00000000000E+00 -0.00000000000E+00 -0.74505805969E-08  0.93827000000E+00  0.93827000000E+00 0. -1.
     999902    2    1    2    0    0 -0.24511796817E-01 -0.23595994177E-02  0.26738430714E-02  0.10191601528E+01  0.10188591030E+01 0.  0.
     999903    2    3    3    0    0  0.58958070554E-01  0.10929616969E+00 -0.22440857104E-01  0.12783250392E+00  0.20392405363E-01 0.  0.
         14    1    1    2    0    0  0.24511796817E-01  0.23595994177E-02 -0.26738430714E-02  0.24769847181E-01  0.00000000000E+00 0. -1.
     999901    1    3    3    0    0 -0.83469867370E-01 -0.11165576911E+00  0.25114700176E-01  0.89132764890E+00  0.88000000000E+00 0. -1.
        -11    1    4    4    0    0  0.22794667817E-01  0.31965984690E-01  0.10889007131E-02  0.39279356968E-01  0.51100000000E-03 0. -1.
         11    1    4    4    0    0  0.36163402736E-01  0.77330185005E-01 -0.23529757817E-01  0.88553146947E-01  0.51100000000E-03 0.  1.
</event>
<event>
 8    1  0.1126414E+005  0.1043930E+01  0.7957747E-01            NaN
         13   -1    0    0    0    0  0.00000000000E+00  0.00000000000E+00  0.74505805969E-08  0.10566000000E+00  0.10566000000E+00 0.  1.
     999900   -1    0    0    0    0 -0.00000000000E+00 -0.00000000000E+00 -0.74505805969E-08  0.93827000000E+00  0.93827000000E+00 0.  1.
     999902    2    1    2    0    0  0.11672120464E-01 -0.82702085749E-02 -0.18131941536E-01  0.10208345015E+01  0.10205732102E+01 0.  0.
     999903    2    3    3    0    0 -0.12325459550E+00  0.20702259778E-01 -0.29742627834E-01  0.13000374844E+00  0.19901553388E-01 0.  0.
         14    1    1    2    0    0 -0.11672120464E-01  0.82702085749E-02  0.18131941536E-01  0.23095498476E-01  0.00000000000E+00 0.  1.
     999901    1    3    3    0    0  0.13492671596E+00 -0.28972468353E-01  0.11610686298E-01  0.89083075308E+00  0.88000000000E+00 0.  1.
        -11    1    4    4    0    0 -0.26139287160E-01 -0.14227295935E-02 -0.12118902211E-01  0.28851610086E-01  0.51100000000E-03 0.  1.
         11    1    4    4    0    0 -0.97115308336E-01  0.22124989371E-01 -0.17623725623E-01  0.10115213835E+00  0.51100000000E-03 0. -1.
</event>
<event>
 8    1  0.1126414E+005  0.1043930E+01  0.7957747E-01            NaN
         13   -1    0    0    0    0  0.00000000000E+00  0.00000000000E+00  0.74505805969E-08  0.10566000000E+00  0.10566000000E+00 0.  1.
     999900   -1    0    0    0    0 -0.00000000000E+00 -0.00000000000E+00 -0.74505805969E-08  0.93827000000E+00  0.93827000000E+00 0. -1.
     999902    2    1    2    0    0  0.81130728522E-06 -0.19880522843E-01  0.12231638856E-01  0.10205880168E+01  0.10203210534E+01 0.  0.
     999903    2    3    3    0    0 -0.38660385079E-01 -0.12354660521E+00 -0.22701564892E-01  0.13297229285E+00  0.20196053629E-01 0.  0.
         14    1    1    2    0    0 -0.81130728522E-06  0.19880522843E-01 -0.12231638856E-01  0.23341983170E-01  0.00000000000E+00 0. -1.
     999901    1    3    3    0    0  0.38661196386E-01  0.10366608237E+00  0.34933203748E-01  0.88761572398E+00  0.88000000000E+00 0. -1.
        -11    1    4    4    0    0 -0.61446370735E-02 -0.52694813222E-01 -0.84998812794E-02  0.53730894353E-01  0.51100000000E-03 0.  1.
         11    1    4    4    0    0 -0.32515748005E-01 -0.70851791991E-01 -0.14201683612E-01  0.79241398493E-01  0.51100000000E-03 0. -1.
</event>
<event>
 8    1  0.1126414E+005  0.1043930E+01  0.7957747E-01            NaN
         13   -1    0    0    0    0  0.00000000000E+00  0.00000000000E+00  0.74505805969E-08  0.10566000000E+00  0.10566000000E+00 0. -1.
     999900   -1    0    0    0    0 -0.00000000000E+00 -0.00000000000E+00 -0.74505805969E-08  0.93827000000E+00  0.93827000000E+00 0. -1.
     999902    2    1    2    0    0  0.62048883938E-02  0.20464919118E-01 -0.99978584687E-02  0.10203234177E+01  0.10200502958E+01 0.  0.
     999903    2    3    3    0    0 -0.75838289966E-01  0.72840080263E-01  0.75356081243E-01  0.13085192537E+00  0.19661227719E-01 0.  0.
         14    1    1    2    0    0 -0.62048883938E-02 -0.20464919118E-01  0.99978584687E-02  0.23606582312E-01  0.00000000000E+00 0. -1.
     999901    1    3    3    0    0  0.82043178359E-01 -0.52375161145E-01 -0.85353939712E-01  0.88947149232E+00  0.88000000000E+00 0. -1.
        -11    1    4    4    0    0 -0.30443177295E-01  0.38025012342E-01  0.25592469254E-01  0.55026577315E-01  0.51100000000E-03 0.  1.
         11    1    4    4    0    0 -0.45395112670E-01  0.34815067920E-01  0.49763611989E-01  0.75825348056E-01  0.51100000000E-03 0. -1.
</event>
<event>
 8    1  0.1126414E+005  0.1043930E+01  0.7957747E-01            NaN
         13   -1    0    0    0    0  0.00000000000E+00  0.00000000000E+00  0.74505805969E-08  0.10566000000E+00  0.10566000000E+00 0. -1.
     999900   -1    0    0    0    0 -0.00000000000E+00 -0.00000000000E+00 -0.74505805969E-08  0.93827000000E+00  0.93827000000E+00 0.  1.
     999902    2    1    2    0    0  0.55575216019E-02 -0.23826410131E-01  0.51647618527E-02  0.10189248279E+01  0.10186179590E+01 0.  0.
     999903    2    3    3    0    0 -0.83938740679E-01  0.62242158500E-01  0.70830572949E-01  0.12778545710E+00  0.19807940336E-01 0.  0.
         14    1    1    2    0    0 -0.55575216019E-02  0.23826410131E-01 -0.51647618527E-02  0.25005172086E-01  0.00000000000E+00 0.  1.
     999901    1    3    3    0    0  0.89496262281E-01 -0.86068568631E-01 -0.65665811096E-01  0.89113937081E+00  0.88000000000E+00 0. -1.
        -11    1    4    4    0    0 -0.37336160300E-01  0.39640859974E-01  0.33472331901E-01  0.63922177445E-01  0.51100000000E-03 0. -1.
         11    1    4    4    0    0 -0.46602580379E-01  0.22601298526E-01  0.37358241047E-01  0.63863279654E-01  0.51100000000E-03 0.  1.
</event>
<event>
 8    1  0.1126414E+005  0.1043930E+01  0.7957747E-01            NaN
         13   -1    0    0    0    0  0.00000000000E+00  0.00000000000E+00  0.74505805969E-08  0.10566000000E+00  0.10566000000E+00 0. -1.
     999900   -1    0    0    0    0 -0.00000000000E+00 -0.00000000000E+00 -0.74505805969E-08  0.93827000000E+00  0.93827000000E+00 0. -1.
     999902    2    1    2    0    0  0.84598674352E-02 -0.93536122249E-02  0.18310075376E-01  0.10216967304E+01  0.10214547912E+01 0.  0.
     999903    2    3    3    0    0 -0.62801828138E-01 -0.11439287605E+00 -0.67709802241E-02  0.13223591866E+00  0.20265544712E-01 0.  0.
         14    1    1    2    0    0 -0.84598674352E-02  0.93536122249E-02 -0.18310075376E-01  0.22233269642E-01  0.00000000000E+00 0.  1.
     999901    1    3    3    0    0  0.71261695573E-01  0.10503926382E+00  0.25081055600E-01  0.88946081170E+00  0.88000000000E+00 0. -1.
        -11    1    4    4    0    0 -0.38984758915E-01 -0.83338250761E-01 -0.11853814415E-01  0.92767718010E-01  0.51100000000E-03 0.  1.
         11    1    4    4    0    0 -0.23817069223E-01 -0.31054625286E-01  0.50828341912E-02  0.39468200649E-01  0.51100000000E-03 0. -1.
</event>
<event>
 8    1  0.1126414E+005  0.1043930E+01  0.7957747E-01            NaN
         13   -1    0    0    0    0  0.00000000000E+00  0.00000000000E+00  0.74505805969E-08  0.10566000000E+00  0.10566000000E+00 0. -1.
     999900   -1    0    0    0    0 -0.00000000000E+00 -0.00000000000E+00 -0.74505805969E-08  0.93827000000E+00  0.93827000000E+00 0.  1.
     999902    2    1    2    0    0  0.15813946185E-01  0.10055088930E-01  0.13566117346E-01  0.10207950644E+01  0.10205328697E+01 0.  0.
     999903    2    3    3    0    0  0.65184881717E-01 -0.89677157484E-01  0.69101312402E-01  0.13204978694E+00  0.19263786629E-01 0.  0.
         14    1    1    2    0    0 -0.15813946185E-01 -0.10055088930E-01 -0.13566117346E-01  0.23134935642E-01  0.00000000000E+00 0.  1.
     999901    1    3    3    0    0 -0.49370935532E-01  0.99732246414E-01 -0.55535195056E-01  0.88874527742E+00  0.88000000000E+00 0.  1.
        -11    1    4    4    0    0  0.17740666601E-01 -0.24384566560E-01  0.29337528695E-01  0.42074814898E-01  0.51100000000E-03 0.  1.
         11    1    4    4    0    0  0.47444215116E-01 -0.65292590923E-01  0.39763783707E-01  0.89974972037E-01  0.51100000000E-03 0. -1.
</event>
<event>
 8    1  0.1126414E+005  0.1043930E+01  0.7957747E-01            NaN
         13   -1    0    0    0    0  0.00000000000E+00  0.00000000000E+00  0.74505805969E-08  0.10566000000E+00  0.10566000000E+00 0. -1.
     999900   -1    0    0    0    0 -0.00000000000E+00 -0.00000000000E+00 -0.74505805969E-08  0.93827000000E+00  0.93827000000E+00 0.  1.
     999902    2    1    2    0    0  0.14495137950E-01 -0.17880544896E-01 -0.27872979061E-02  0.10207439710E+01  0.10204806037E+01 0.  0.
     999903    2    3    3    0    0 -0.26013375982E-01 -0.42556945677E-01 -0.12017018465E+00  0.13168345196E+00  0.20294553162E-01 0.  0.
         14    1    1    2    0    0 -0.14495137950E-01  0.17880544896E-01  0.27872979061E-02  0.23186028974E-01  0.00000000000E+00 0.  1.
     999901    1    3    3    0    0  0.40508513931E-01  0.24676400781E-01  0.11738288674E+00  0.88906051906E+00  0.88000000000E+00 0. -1.
        -11    1    4    4    0    0 -0.13243630813E-01 -0.28403129303E-01 -0.50374087759E-01  0.59329093621E-01  0.51100000000E-03 0. -1.
         11    1    4    4    0    0 -0.12769745169E-01 -0.14153816374E-01 -0.69796096886E-01  0.72354358343E-01  0.51100000000E-03 0.  1.
</event>
<event>
 8    1  0.1126414E+005  0.1043930E+01  0.7957747E-01            NaN
         13   -1    0    0    0    0  0.00000000000E+00  0.00000000000E+00  0.74505805969E-08  0.10566000000E+00  0.10566000000E+00 0.  1.
     999900   -1    0    0    0    0 -0.00000000000E+00 -0.00000000000E+00 -0.74505805969E-08  0.93827000000E+00  0.93827000000E+00 0. -1.
     999902    2    1    2    0    0  0.13329299685E-01 -0.13538170480E-01 -0.14822291860E-01  0.10198332652E+01  0.10195485453E+01 0.  0.
     999903    2    3    3    0    0  0.12524428748E+00  0.34063777511E-01 -0.85512254629E-02  0.13144695500E+00  0.18939536338E-01 0.  0.
         14    1    1    2    0    0 -0.13329299685E-01  0.13538170480E-01  0.14822291860E-01  0.24096734758E-01  0.00000000000E+00 0.  1.
     999901    1    3    3    0    0 -0.11191498780E+00 -0.47601947992E-01 -0.62710663969E-02  0.88838631024E+00  0.88000000000E+00 0.  1.
        -11    1    4    4    0    0  0.34031053387E-01  0.84108045295E-03 -0.37588154585E-02  0.34252150672E-01  0.51100000000E-03 0.  1.
         11    1    4    4    0    0  0.91213234097E-01  0.33222697059E-01 -0.47924100043E-02  0.97194804331E-01  0.51100000000E-03 0. -1.
</event>
<event>
 8    1  0.1126414E+005  0.1043930E+01  0.7957747E-01            NaN
         13   -1    0    0    0    0  0.00000000000E+00  0.00000000000E+00  0.74505805969E-08  0.10566000000E+00  0.10566000000E+00 0. -1.
     999900   -1    0    0    0    0 -0.00000000000E+00 -0.00000000000E+00 -0.74505805969E-08  0.93827000000E+00  0.93827000000E+00 0. -1.
     999902    2    1    2    0    0 -0.38953359457E-02 -0.24254585483E-01  0.67253896479E-03  0.10193554020E+01  0.10190591370E+01 0.  0.
     999903    2    3    3    0    0 -0.10418536407E+00  0.44957013080E-01  0.58076202559E-01  0.12910627072E+00  0.20490503300E-01 0.  0.
         14    1    1    2    0    0  0.38953359457E-02  0.24254585483E-01 -0.67253896479E-03  0.24574598017E-01  0.00000000000E+00 0. -1.
     999901    1    3    3    0    0  0.10029002812E+00 -0.69211598562E-01 -0.57403663594E-01  0.89024913126E+00  0.88000000000E+00 0. -1.
        -11    1    4    4    0    0 -0.71572563940E-01  0.38910114535E-01  0.34835174354E-01  0.88602366872E-01  0.51100000000E-03 0.  1.
         11    1    4    4    0    0 -0.32612800126E-01  0.60468985449E-02  0.23241028205E-01  0.40503903850E-01  0.51100000000E-03 0. -1.
</event>
<event>
 8    1  0.1126414E+005  0.1043930E+01  0.7957747E-01            NaN
         13   -1    0    0    0    0  0.00000000000E+00  0.00000000000E+00  0.74505805969E-08  0.10566000000E+00  0.10566000000E+00 0.  1.
     999900   -1    0    0    0    0 -0.00000000000E+00 -0.00000000000E+00 -0.74505805969E-08  0.93827000000E+00  0.93827000000E+00 0.  1.
     999902    2    1    2    0    0 -0.21577899420E-01 -0.62423881896E-02 -0.14565077233E-02  0.10214201229E+01  0.10211720584E+01 0.  0.
     999903    2    3    3    0    0 -0.95778079561E-01 -0.79714383272E-01 -0.48747445505E-01  0.13398548663E+00  0.69263092898E-02 0.  0.
         14    1    1    2    0    0  0.21577899420E-01  0.62423881896E-02  0.14565077233E-02  0.22509877131E-01  0.00000000000E+00 0. -1.
     999901    1    3    3    0    0  0.74200180140E-01  0.73471995082E-01  0.47290937782E-01  0.88743463624E+00  0.88000000000E+00 0. -1.
        -11    1    4    4    0    0 -0.64862909604E-01 -0.57606921296E-01 -0.35462389009E-01  0.93720843887E-01  0.51100000000E-03 0. -1.
         11    1    4    4    0    0 -0.30915169956E-01 -0.22107461976E-01 -0.13285056496E-01  0.40264642747E-01  0.51100000000E-03 0.  1.
</event>
<event>
 8    1  0.1126414E+005  0.1043930E+01  0.7957747E-01            NaN
         13   -1    0    0    0    0  0.00000000000E+00  0.00000000000E+00  0.74505805969E-08  0.10566000000E+00  0.10566000000E+00 0. -1.
     999900   -1    0    0    0    0 -0.00000000000E+00 -0.00000000000E+00 -0.74505805969E-08  0.93827000000E+00  0.93827000000E+00 0.  1.
     999902    2    1    2    0    0  0.10095790437E-01  0.21414101774E-01 -0.97901726804E-05  0.10202553546E+01  0.10199806369E+01 0.  0.
     999903    2    3    3    0    0  0.86863926157E-01  0.78705571513E-01  0.59696707622E-01  0.13304595144E+00  0.19940402165E-01 0.  0.
         14    1    1    2    0    0 -0.10095790437E-01 -0.21414101774E-01  0.97901726804E-05  0.23674645408E-01  0.00000000000E+00 0. -1.
     999901    1    3    3    0    0 -0.76768135720E-01 -0.57291469738E-01 -0.59706497795E-01  0.88720940315E+00  0.88000000000E+00 0.  1.
        -11    1    4    4    0    0  0.61663056414E-01  0.64588953167E-01  0.38659517684E-01  0.97308195061E-01  0.51100000000E-03 0.  1.
         11    1    4    4    0    0  0.25200869743E-01  0.14116618345E-01  0.21037189938E-01  0.35737756376E-01  0.51100000000E-03 0. -1.
</event>
<event>
 8    1  0.1126414E+005  0.1043930E+01  0.7957747E-01            NaN
         13   -1    0    0    0    0  0.00000000000E+00  0.00000000000E+00  0.74505805969E-08  0.10566000000E+00  0.10566000000E+00 0.  1.
     999900   -1    0    0    0    0 -0.00000000000E+00 -0.00000000000E+00 -0.74505805969E-08  0.93827000000E+00  0.93827000000E+00 0.  1.
     999902    2    1    2    0    0 -0.10525409218E-01  0.21068609179E-01 -0.41501860842E-02  0.10200156826E+01  0.10197353079E+01 0.  0.
     999903    2    3    3    0    0  0.79458319073E-01 -0.96578597727E-01 -0.16842618129E-01  0.12754773669E+00  0.18539183935E-01 0.  0.
         14    1    1    2    0    0  0.10525409218E-01 -0.21068609179E-01  0.41501860842E-02  0.23914317396E-01  0.00000000000E+00 0. -1.
     999901    1    3    3    0    0 -0.89983728292E-01  0.11764720691E+00  0.12692432044E-01  0.89246794591E+00  0.88000000000E+00 0.  1.
        -11    1    4    4    0    0  0.26710734679E-01 -0.20486935372E-01 -0.15227149045E-02  0.33701003690E-01  0.51100000000E-03 0.  1.
         11    1    4    4    0    0  0.52747584394E-01 -0.76091662354E-01 -0.15319903224E-01  0.93846733001E-01  0.51100000000E-03 0. -1.
</event>
<event>
 8    1  0.1126414E+005  0.1043930E+01  0.7957747E-01            NaN
         13   -1    0    0    0    0  0.00000000000E+00  0.00000000000E+00  0.74505805969E-08  0.10566000000E+00  0.10566000000E+00 0. -1.
     999900   -1    0    0    0    0 -0.00000000000E+00 -0.00000000000E+00 -0.74505805969E-08  0.93827000000E+00  0.93827000000E+00 0.  1.
     999902    2    1    2    0    0 -0.22368392481E-01  0.39010698679E-02 -0.64655202487E-02  0.10203213939E+01  0.10200482247E+01 0.  0.
     999903    2    3    3    0    0 -0.90856899655E-01 -0.83466564885E-02 -0.94775500030E-01  0.13316901979E+00  0.20662757245E-01 0.  0.
         14    1    1    2    0    0  0.22368392481E-01 -0.39010698679E-02  0.64655202487E-02  0.23608606066E-01  0.00000000000E+00 0. -1.
     999901    1    3    3    0    0  0.68488507174E-01  0.12247726356E-01  0.88309979781E-01  0.88715237414E+00  0.88000000000E+00 0. -1.
        -11    1    4    4    0    0 -0.52688598784E-01  0.52412585800E-02 -0.50938179010E-01  0.73474610820E-01  0.51100000000E-03 0. -1.
         11    1    4    4    0    0 -0.38168300872E-01 -0.13587915068E-01 -0.43837321020E-01  0.59694408972E-01  0.51100000000E-03 0.  1.
</event>
<event>
 8    1  0.1126414E+005  0.1043930E+01  0.7957747E-01            NaN
         13   -1    0    0    0    0  0.00000000000E+00  0.00000000000E+00  0.74505805969E-08  0.10566000000E+00  0.10566000000E+00 0. -1.
     999900   -1    0    0    0    0 -0.00000000000E+00 -0.00000000000E+00 -0.74505805969E-08  0.93827000000E+00  0.93827000000E+00 0. -1.
     999902    2    1    2    0    0  0.66236759330E-02 -0.12316657012E-02  0.22420300994E-01  0.10205193191E+01  0.10202507636E+01 0.  0.
     999903    2    3    3    0    0  0.10249933583E+00  0.79380807244E-01  0.13108644573E-01  0.13160018898E+00  0.18421367279E-01 0.  0.
         14    1    1    2    0    0 -0.66236759330E-02  0.12316657012E-02 -0.22420300994E-01  0.23410680894E-01  0.00000000000E+00 0.  1.
     999901    1    3    3    0    0 -0.95875659900E-01 -0.80612472945E-01  0.93116564210E-02  0.88891913012E+00  0.88000000000E+00 0. -1.
        -11    1    4    4    0    0  0.70836276429E-01  0.49739461470E-01  0.98443163209E-03  0.86562245306E-01  0.51100000000E-03 0.  1.
         11    1    4    4    0    0  0.31663059404E-01  0.29641345774E-01  0.12124212941E-01  0.45037943676E-01  0.51100000000E-03 0. -1.
</event>
<event>
 8    1  0.1126414E+005  0.1043930E+01  0.7957747E-01            NaN
         13   -1    0    0    0    0  0.00000000000E+00  0.00000000000E+00  0.74505805969E-08  0.10566000000E+00  0.10566000000E+00 0. -1.
     999900   -1    0    0    0    0 -0.00000000000E+00 -0.00000000000E+00 -0.74505805969E-08  0.93827000000E+00  0.93827000000E+00 0.  1.
     999902    2    1    2    0    0  0.10584474116E-01 -0.92013149196E-02  0.18911012254E-01  0.10203859631E+01  0.10201143034E+01 0.  0.
     999903    2    3    3    0    0 -0.91968749871E-01  0.43572055672E-01 -0.74788696708E-01  0.12792765716E+00  0.20380415201E-01 0.  0.
         14    1    1    2    0    0 -0.10584474116E-01  0.92013149196E-02 -0.18911012254E-01  0.23544036889E-01  0.00000000000E+00 0.  1.
     999901    1    3    3    0    0  0.10255322399E+00 -0.52773370592E-01  0.93699708963E-01  0.89245830595E+00  0.88000000000E+00 0. -1.
        -11    1    4    4    0    0 -0.55613604088E-01  0.37082712933E-01 -0.49042957646E-01  0.82906413346E-01  0.51100000000E-03 0. -1.
         11    1    4    4    0    0 -0.36355145783E-01  0.64893427390E-02 -0.25745739062E-01  0.45021243818E-01  0.51100000000E-03 0.  1.
</event>
<event>
 8    1  0.1126414E+005  0.1043930E+01  0.7957747E-01            NaN
         13   -1    0    0    0    0  0.00000000000E+00  0.00000000000E+00  0.74505805969E-08  0.10566000000E+00  0.10566000000E+00 0.  1.
     999900   -1    0    0    0    0 -0.00000000000E+00 -0.00000000000E+00 -0.74505805969E-08  0.93827000000E+00  0.93827000000E+00 0.  1.
     999902    2    1    2    0    0 -0.19391804806E-01 -0.13033500565E-01 -0.14060093128E-02  0.10205229264E+01  0.10202544547E+01 0.  0.
     999903    2    3    3    0    0 -0.77752293464E-01 -0.30909122091E-01  0.10041283664E+00  0.13255188982E+00  0.22056127593E-01 0.  0.
         14    1    1    2    0    0  0.19391804806E-01  0.13033500565E-01  0.14060093128E-02  0.23407073563E-01  0.00000000000E+00 0.  1.
     999901    1    3    3    0    0  0.58360488659E-01  0.17875621526E-01 -0.10181884596E+00  0.88797103662E+00  0.88000000000E+00 0.  1.
        -11    1    4    4    0    0 -0.24994045464E-02 -0.71829357596E-02  0.87533599761E-02  0.11607067721E-01  0.51100000000E-03 0. -1.
         11    1    4    4    0    0 -0.75252888918E-01 -0.23726186332E-01  0.91659476667E-01  0.12094482210E+00  0.51100000000E-03 0.  1.
</event>
<event>
 8    1  0.1126414E+005  0.1043930E+01  0.7957747E-01            NaN
         13   -1    0    0    0    0  0.00000000000E+00  0.00000000000E+00  0.74505805969E-08  0.10566000000E+00  0.10566000000E+00 0.  1.
     999900   -1    0    0    0    0 -0.00000000000E+00 -0.00000000000E+00 -0.74505805969E-08  0.93827000000E+00  0.93827000000E+00 0. -1.
     999902    2    1    2    0    0  0.11956478112E-01  0.21668109392E-01 -0.99689967372E-02  0.10172495722E+01  0.10168996248E+01 0.  0.
     999903    2    3    3    0    0 -0.11752901842E+00  0.43882239169E-01  0.62219187891E-02  0.12734951760E+00  0.20987288406E-01 0.  0.
         14    1    1    2    0    0 -0.11956478112E-01 -0.21668109392E-01  0.99689967372E-02  0.26680427834E-01  0.00000000000E+00 0.  1.
     999901    1    3    3    0    0  0.12948549653E+00 -0.22214129777E-01 -0.16190915526E-01  0.88990005457E+00  0.88000000000E+00 0. -1.
        -11    1    4    4    0    0 -0.10093797494E-01  0.10384440307E-01 -0.13751482416E-02  0.14555875172E-01  0.51100000000E-03 0.  1.
         11    1    4    4    0    0 -0.10743522092E+00  0.33497798862E-01  0.75970670307E-02  0.11279364243E+00  0.51100000000E-03 0. -1.
</event>
<event>
 8    1  0.1126414E+005  0.1043930E+01  0.7957747E-01            NaN
         13   -1    0    0    0    0  0.00000000000E+00  0.00000000000E+00  0.74505805969E-08  0.10566000000E+00  0.10566000000E+00 0. -1.
     999900   -1    0    0    0    0 -0.00000000000E+00 -0.00000000000E+00 -0.74505805969E-08  0.93827000000E+00  0.93827000000E+00 0. -1.
     999902    2    1    2    0    0 -0.12100052311E-01  0.99532141247E-02  0.96726112289E-02  0.10255170387E+01  0.10253517247E+01 0.  0.
     999903    2    3    3    0    0 -0.10743220756E+00  0.31435525770E-01 -0.75903279986E-01  0.13598179894E+00  0.14137546789E-01 0.  0.
         14    1    1    2    0    0  0.12100052311E-01 -0.99532141247E-02 -0.96726112289E-02  0.18412961340E-01  0.00000000000E+00 0.  1.
     999901    1    3    3    0    0  0.95332155252E-01 -0.21482311645E-01  0.85575891215E-01  0.88953523972E+00  0.88000000000E+00 0.  1.
        -11    1    4    4    0    0 -0.64103253741E-01  0.15536688139E-01 -0.52060346276E-01  0.84030688406E-01  0.51100000000E-03 0.  1.
         11    1    4    4    0    0 -0.43328953822E-01  0.15898837631E-01 -0.23842933710E-01  0.51951110538E-01  0.51100000000E-03 0. -1.
</event>
<event>
 8    1  0.1126414E+005  0.1043930E+01  0.7957747E-01            NaN
         13   -1    0    0    0    0  0.00000000000E+00  0.00000000000E+00  0.74505805969E-08  0.10566000000E+00  0.10566000000E+00 0.  1.
     999900   -1    0    0    0    0 -0.00000000000E+00 -0.00000000000E+00 -0.74505805969E-08  0.93827000000E+00  0.93827000000E+00 0. -1.
     999902    2    1    2    0    0 -0.16866094170E-01 -0.12014001625E-01 -0.88824405944E-02  0.10213978204E+01  0.10211492586E+01 0.  0.
     999903    2    3    3    0    0 -0.72446224238E-01 -0.11083651677E+00  0.60319300855E-02  0.13399854226E+00  0.19647806269E-01 0.  0.
         14    1    1    2    0    0  0.16866094170E-01  0.12014001625E-01  0.88824405944E-02  0.22532179622E-01  0.00000000000E+00 0.  1.
     999901    1    3    3    0    0  0.55580130067E-01  0.98822515142E-01 -0.14914370680E-01  0.88739927812E+00  0.88000000000E+00 0.  1.
        -11    1    4    4    0    0 -0.59161816476E-01 -0.74282189937E-01  0.45807785693E-02  0.95074754398E-01  0.51100000000E-03 0.  1.
         11    1    4    4    0    0 -0.13284407762E-01 -0.36554326830E-01  0.14511515162E-02  0.38923787859E-01  0.51100000000E-03 0. -1.
</event>
<event>
 8    1  0.1126414E+005  0.1043930E+01  0.7957747E-01            NaN
         13   -1    0    0    0    0  0.00000000000E+00  0.00000000000E+00  0.74505805969E-08  0.10566000000E+00  0.10566000000E+00 0.  1.
     999900   -1    0    0    0    0 -0.00000000000E+00 -0.00000000000E+00 -0.74505805969E-08  0.93827000000E+00  0.93827000000E+00 0.  1.
     999902    2    1    2    0    0 -0.19198091092E-01  0.29723385324E-02  0.84131108809E-02  0.10227596922E+01  0.10225405645E+01 0.  0.
     999903    2    3    3    0    0  0.37949217703E-01 -0.11659508619E+00 -0.42750908769E-01  0.13136755578E+00  0.19880574989E-01 0.  0.
         14    1    1    2    0    0  0.19198091092E-01 -0.29723385324E-02 -0.84131108809E-02  0.21170307806E-01  0.00000000000E+00 0. -1.
     999901    1    3    3    0    0 -0.57147308795E-01  0.11956742472E+00  0.51164019650E-01  0.89139213642E+00  0.88000000000E+00 0.  1.
        -11    1    4    4    0    0  0.27445116873E-01 -0.10459956338E+00 -0.35268555787E-01  0.11374724281E+00  0.51100000000E-03 0.  1.
         11    1    4    4    0    0  0.10504100831E-01 -0.11995522814E-01 -0.74823529820E-02  0.17620312965E-01  0.51100000000E-03 0. -1.
</event>
<event>
 8    1  0.1126414E+005  0.1043930E+01  0.7957747E-01            NaN
         13   -1    0    0    0    0  0.00000000000E+00  0.00000000000E+00  0.74505805969E-08  0.10566000000E+00  0.10566000000E+00 0. -1.
     999900   -1    0    0    0    0 -0.00000000000E+00 -0.00000000000E+00 -0.74505805969E-08  0.93827000000E+00  0.93827000000E+00 0.  1.
     999902    2    1    2    0    0  0.32891816027E-02 -0.69544377880E-02  0.21443924242E-01  0.10211478840E+01  0.10208937145E+01 0.  0.
     999903    2    3    3    0    0  0.86852374162E-01  0.17181249047E-01  0.97931787678E-01  0.13355803970E+00  0.20213478524E-01 0.  0.
         14    1    1    2    0    0 -0.32891816027E-02  0.69544377880E-02 -0.21443924242E-01  0.22782115957E-01  0.00000000000E+00 0.  1.
     999901    1    3    3    0    0 -0.83563192559E-01 -0.24135686835E-01 -0.76487863436E-01  0.88758984434E+00  0.88000000000E+00 0. -1.
        -11    1    4    4    0    0  0.55833543252E-01  0.16050685360E-01  0.51104706152E-01  0.77375455827E-01  0.51100000000E-03 0. -1.
         11    1    4    4    0    0  0.31018830910E-01  0.11305636876E-02  0.46827081526E-01  0.56182583872E-01  0.51100000000E-03 0.  1.
</event>
<event>
 8    1  0.1126414E+005  0.1043930E+01  0.7957747E-01            NaN
         13   -1    0    0    0    0  0.00000000000E+00  0.00000000000E+00  0.74505805969E-08  0.10566000000E+00  0.10566000000E+00 0. -1.
     999900   -1    0    0    0    0 -0.00000000000E+00 -0.00000000000E+00 -0.74505805969E-08  0.93827000000E+00  0.93827000000E+00 0.  1.
     999902    2    1    2    0    0  0.79010926467E-02 -0.20755333545E-01 -0.85716693112E-02  0.10201248608E+01  0.10198470704E+01 0.  0.
     999903    2    3    3    0    0  0.11301442810E+00  0.45095223882E-01 -0.43608603219E-01  0.13073591559E+00  0.19604315208E-01 0.  0.
         14    1    1    2    0    0 -0.79010926467E-02  0.20755333545E-01  0.85716693112E-02  0.23805139158E-01  0.00000000000E+00 0. -1.
     999901    1    3    3    0    0 -0.10511333545E+00 -0.65850557427E-01  0.35036933908E-01  0.88938894525E+00  0.88000000000E+00 0.  1.
        -11    1    4    4    0    0  0.27569995891E-01  0.37108000972E-02 -0.51196048567E-02  0.28290390342E-01  0.51100000000E-03 0.  1.
         11    1    4    4    0    0  0.85444432205E-01  0.41384423785E-01 -0.38488998363E-01  0.10244552525E+00  0.51100000000E-03 0. -1.
</event>
<event>
 8    1  0.1126414E+005  0.1043930E+01  0.7957747E-01            NaN
         13   -1    0    0    0    0  0.00000000000E+00  0.00000000000E+00  0.74505805969E-08  0.10566000000E+00  0.10566000000E+00 0. -1.
     999900   -1    0    0    0    0 -0.00000000000E+00 -0.00000000000E+00 -0.74505805969E-08  0.93827000000E+00  0.93827000000E+00 0.  1.
     999902    2    1    2    0    0 -0.10679699476E-01  0.94610997764E-03 -0.20621111299E-01  0.10206881985E+01  0.10204235480E+01 0.  0.
     999903    2    3    3    0    0  0.10874819258E-01 -0.82611642272E-01 -0.10226206183E+00  0.13270636309E+00  0.14508769166E-01 0.  0.
         14    1    1    2    0    0  0.10679699476E-01 -0.94610997764E-03  0.20621111299E-01  0.23241801484E-01  0.00000000000E+00 0. -1.
     999901    1    3    3    0    0 -0.21554518734E-01  0.83557752250E-01  0.81640950531E-01  0.88798183542E+00  0.88000000000E+00 0.  1.
        -11    1    4    4    0    0  0.25531763256E-04 -0.40909090146E-01 -0.42119624586E-01  0.58718635924E-01  0.51100000000E-03 0. -1.
         11    1    4    4    0    0  0.10849287494E-01 -0.41702552126E-01 -0.60142437244E-01  0.73987727169E-01  0.51100000000E-03 0.  1.
</event>
<event>
 8    1  0.1126414E+005  0.1043930E+01  0.7957747E-01            NaN
         13   -1    0    0    0    0  0.00000000000E+00  0.00000000000E+00  0.74505805969E-08  0.10566000000E+00  0.10566000000E+00 0.  1.
     999900   -1    0    0    0    0 -0.00000000000E+00 -0.00000000000E+00 -0.74505805969E-08  0.93827000000E+00  0.93827000000E+00 0. -1.
     999902    2    1    2    0    0  0.13198317442E-01  0.75604879590E-02 -0.17652179983E-01  0.10206285833E+01  0.10203625577E+01 0.  0.
     999903    2    3    3    0    0 -0.61222587539E-02 -0.85025436614E-01  0.94087812214E-01  0.12853483042E+00  0.20046927456E-01 0.  0.
         14    1    1    2    0    0 -0.13198317442E-01 -0.75604879590E-02  0.17652179983E-01  0.23301416687E-01  0.00000000000E+00 0.  1.
     999901    1    3    3    0    0  0.19320576196E-01  0.92585924573E-01 -0.11173999220E+00  0.89209375289E+00  0.88000000000E+00 0. -1.
        -11    1    4    4    0    0 -0.75467390874E-02 -0.13384657289E-01  0.22455064369E-01  0.27213844977E-01  0.51100000000E-03 0. -1.
         11    1    4    4    0    0  0.14244803334E-02 -0.71640779325E-01  0.71632747845E-01  0.10132098544E+00  0.51100000000E-03 0.  1.
</event>
<event>
 8    1  0.1126414E+005  0.1043930E+01  0.7957747E-01            NaN
         13   -1    0    0    0    0  0.00000000000E+00  0.00000000000E+00  0.74505805969E-08  0.10566000000E+00  0.10566000000E+00 0.  1.
     999900   -1    0    0    0    0 -0.00000000000E+00 -0.00000000000E+00 -0.74505805969E-08  0.93827000000E+00  0.93827000000E+00 0.  1.
     999902    2    1    2    0    0 -0.11890785042E-01  0.20760911228E-01  0.30968286070E-02  0.10198053953E+01  0.10195200085E+01 0.  0.
     999903    2    3    3    0    0  0.60748207984E-01 -0.42077787104E-01  0.10357820346E+00  0.12889483189E+00  0.20604575113E-01 0.  0.
         14    1    1    2    0    0  0.11890785042E-01 -0.20760911228E-01 -0.30968286070E-02  0.24124604688E-01  0.00000000000E+00 0.  1.
     999901    1    3    3    0    0 -0.72638993027E-01  0.62838698332E-01 -0.10048137486E+00  0.89091056342E+00  0.88000000000E+00 0.  1.
        -11    1    4    4    0    0  0.85667357228E-02 -0.16495455242E-01  0.25734408466E-01  0.31749171716E-01  0.51100000000E-03 0. -1.
         11    1    4    4    0    0  0.52181472262E-01 -0.25582331863E-01  0.77843794997E-01  0.97145660178E-01  0.51100000000E-03 0.  1.
</event>
<event>
 7    1  0.1126414E+005  0.1043930E+01  0.7957747E-01            NaN
         13   -1    0    0    0    0  0.00000000000E+00  0.00000000000E+00  0.74505805969E-08  0.10566000000E+00  0.10566000000E+00 0. -1.
     999900   -1    0    0    0    0 -0.00000000000E+00 -0.00000000000E+00 -0.74505805969E-08  0.93827000000E+00  0.93827000000E+00 0.  1.
     999902    2    1    2    0    0  0.85717992143E-02  0.20582535648E-01  0.60682979407E-02  0.10208228419E+01  0.10205612837E+01 0.  0.
         14    1    1    2    0    0 -0.85717992143E-02 -0.20582535648E-01 -0.60682979407E-02  0.23107158098E-01  0.00000000000E+00 0. -1.
     999901    1    3    3    0    0  0.10408414479E+00  0.88200568406E-01 -0.35296436545E-01  0.89121192087E+00  0.88000000000E+00 0. -1.
        -11    1    3    3    0    0 -0.63719273058E-01 -0.37961228636E-01  0.76010796802E-02  0.74560298899E-01  0.51100000000E-03 0. -1.
         11    1    3    3    0    0 -0.31793072516E-01 -0.29656804122E-01  0.33763654805E-01  0.55050622136E-01  0.51100000000E-03 0.  1.
</event>
<event>
 8    1  0.1126414E+005  0.1043930E+01  0.7957747E-01            NaN
         13   -1    0    0    0    0  0.00000000000E+00  0.00000000000E+00  0.74505805969E-08  0.10566000000E+00  0.10566000000E+00 0. -1.
     999900   -1    0    0    0    0 -0.00000000000E+00 -0.00000000000E+00 -0.74505805969E-08  0.93827000000E+00  0.93827000000E+00 0. -1.
     999902    2    1    2    0    0 -0.21784780424E-01  0.10206220585E-01 -0.20184509116E-03  0.10198720629E+01  0.10195882700E+01 0.  0.
     999903    2    3    3    0    0  0.45877472563E-01 -0.10700870487E+00  0.48335664511E-01  0.12820317307E+00  0.23326202293E-01 0.  0.
         14    1    1    2    0    0  0.21784780424E-01 -0.10206220585E-01  0.20184509116E-03  0.24057937114E-01  0.00000000000E+00 0. -1.
     999901    1    3    3    0    0 -0.67662252987E-01  0.11721492546E+00 -0.48537509602E-01  0.89166888982E+00  0.88000000000E+00 0.  1.
        -11    1    4    4    0    0  0.31206819703E-01 -0.84233179060E-01  0.27257956199E-01  0.93874125017E-01  0.51100000000E-03 0.  1.
         11    1    4    4    0    0  0.14670652859E-01 -0.22775525815E-01  0.21077708312E-01  0.34329048052E-01  0.51100000000E-03 0. -1.
</event>
<event>
 8    1  0.1126414E+005  0.1043930E+01  0.7957747E-01            NaN
         13   -1    0    0    0    0  0.00000000000E+00  0.00000000000E+00  0.74505805969E-08  0.10566000000E+00  0.10566000000E+00 0.  1.
     999900   -1    0    0    0    0 -0.00000000000E+00 -0.00000000000E+00 -0.74505805969E-08  0.93827000000E+00  0.93827000000E+00 0.  1.
     999902    2    1    2    0    0 -0.22567656090E-02 -0.20757637031E-01  0.17451543047E-02  0.10229772424E+01  0.10227626413E+01 0.  0.
     999903    2    3    3    0    0 -0.83871458168E-01  0.33363225205E-01 -0.94692230523E-01  0.13230884456E+00  0.19785993455E-01 0.  0.
         14    1    1    2    0    0  0.22567656090E-02  0.20757637031E-01 -0.17451543047E-02  0.20952757567E-01  0.00000000000E+00 0.  1.
     999901    1    3    3    0    0  0.81614692559E-01 -0.54120862236E-01  0.96437384828E-01  0.89066839787E+00  0.88000000000E+00 0. -1.
        -11    1    4    4    0    0 -0.66192625507E-01  0.20122922527E-01 -0.62314047106E-01  0.93111209155E-01  0.51100000000E-03 0. -1.
         11    1    4    4    0    0 -0.17678832661E-01  0.13240302678E-01 -0.32378183417E-01  0.39197635409E-01  0.51100000000E-03 0.  1.
</event>
<event>
 8    1  0.1126414E+005  0.1043930E+01  0.7957747E-01            NaN
         13   -1    0    0    0    0  0.00000000000E+00  0.00000000000E+00  0.74505805969E-08  0.10566000000E+00  0.10566000000E+00 0. -1.
     999900   -1    0    0    0    0 -0.00000000000E+00 -0.00000000000E+00 -0.74505805969E-08  0.93827000000E+00  0.93827000000E+00 0. -1.
     999902    2    1    2    0    0  0.18748884088E-01 -0.19121414104E-02 -0.12600062085E-01  0.10212597882E+01  0.10210081373E+01 0.  0.
     999903    2    3    3    0    0  0.21925203645E-01 -0.78273883567E-01 -0.10360996594E+00  0.13327104542E+00  0.20460476606E-01 0.  0.
         14    1    1    2    0    0 -0.18748884088E-01  0.19121414104E-02  0.12600062085E-01  0.22670211817E-01  0.00000000000E+00 0. -1.
     999901    1    3    3    0    0 -0.31763195570E-02  0.76361742157E-01  0.91009903851E-01  0.88798874276E+00  0.88000000000E+00 0.  1.
        -11    1    4    4    0    0  0.15695898808E-01 -0.58641480349E-01 -0.61633965876E-01  0.86511220818E-01  0.51100000000E-03 0.  1.
         11    1    4    4    0    0  0.62293048367E-02 -0.19632403218E-01 -0.41976000060E-01  0.46759824603E-01  0.51100000000E-03 0. -1.
</event>
<event>
 8    1  0.1126414E+005  0.1043930E+01  0.7957747E-01            NaN
         13   -1    0    0    0    0  0.00000000000E+00  0.00000000000E+00  0.74505805969E-08  0.10566000000E+00  0.10566000000E+00 0.  1.
     999900   -1    0    0    0    0 -0.00000000000E+00 -0.00000000000E+00 -0.74505805969E-08  0.93827000000E+00  0.93827000000E+00 0. -1.
     999902    2    1    2    0    0  0.14089360717E-01 -0.62362415512E-02 -0.21862047204E-01  0.10171839741E+01  0.10168322808E+01 0.  0.
     999903    2    3    3    0    0  0.10742205417E+00  0.44861357065E-01 -0.54744556041E-01  0.13016468702E+00  0.19845408790E-01 0.  0.
         14    1    1    2    0    0 -0.14089360717E-01  0.62362415512E-02  0.21862047204E-01  0.26746025911E-01  0.00000000000E+00 0. -1.
     999901    1    3    3    0    0 -0.93332693454E-01 -0.51097598616E-01  0.32882508838E-01  0.88701928707E+00  0.88000000000E+00 0.  1.
        -11    1    4    4    0    0  0.92525693524E-02 -0.82637637934E-03 -0.78175718030E-02  0.12151892340E-01  0.51100000000E-03 0.  1.
         11    1    4    4    0    0  0.98169484818E-01  0.45687733444E-01 -0.46926984238E-01  0.11801279468E+00  0.51100000000E-03 0. -1.
</event>
<event>
 8    1  0.1126414E+005  0.1043930E+01  0.7957747E-01            NaN
         13   -1    0    0    0    0  0.00000000000E+00  0.00000000000E+00  0.74505805969E-08  0.10566000000E+00  0.10566000000E+00 0.  1.
     999900   -1    0    0    0    0 -0.00000000000E+00 -0.00000000000E+00 -0.74505805969E-08  0.93827000000E+00  0.93827000000E+00 0. -1.
     999902    2    1    2    0    0 -0.23772246501E-01 -0.67406377957E-02  0.52654216475E-02  0.10186657849E+01  0.10183524442E+01 0.  0.
     999903    2    3    3    0    0  0.32266002645E-01 -0.69250710780E-01  0.10246830361E+00  0.12934233703E+00  0.19822488076E-01 0.  0.
         14    1    1    2    0    0  0.23772246501E-01  0.67406377957E-02 -0.52654216475E-02  0.25264215142E-01  0.00000000000E+00 0. -1.
     999901    1    3    3    0    0 -0.56038249146E-01  0.62510072984E-01 -0.97202881964E-01  0.88932344783E+00  0.88000000000E+00 0. -1.
        -11    1    4    4    0    0  0.26987192074E-01 -0.44194241853E-01  0.79855436301E-01  0.95176632515E-01  0.51100000000E-03 0. -1.
         11    1    4    4    0    0  0.52788105708E-02 -0.25056468927E-01  0.22612867310E-01  0.34165704517E-01  0.51100000000E-03 0.  1.
</event>
<event>
 7    1  0.1126414E+005  0.1043930E+01  0.7957747E-01            NaN
         13   -1    0    0    0    0  0.00000000000E+00  0.00000000000E+00  0.74505805969E-08  0.10566000000E+00  0.10566000000E+00 0.  1.
     999900   -1    0    0    0    0 -0.00000000000E+00 -0.00000000000E+00 -0.74505805969E-08  0.93827000000E+00  0.93827000000E+00 0.  1.
     999903    2    1    2    0    0  0.33759465776E-01 -0.86239727896E-01 -0.63581261924E-01  0.11391178790E+00  0.18876608739E-01 0.  0.
         14    1    1    2    0    0 -0.14564373093E-01 -0.34808236886E-01  0.13639756363E-01  0.40122029763E-01  0.00000000000E+00 0. -1.
     999901    1    1    2    0    0 -0.19195092684E-01  0.12104796478E+00  0.49941505561E-01  0.88989618234E+00  0.88000000000E+00 0. -1.
        -11    1    3    3    0    0  0.93411877161E-02 -0.24120446474E-01 -0.28554487018E-01  0.38531462156E-01  0.51100000000E-03 0.  1.
         11    1    3    3    0    0  0.24418278060E-01 -0.62119281422E-01 -0.35026774907E-01  0.75380325743E-01  0.51100000000E-03 0. -1.
</event>
<event>
 8    1  0.1126414E+005  0.1043930E+01  0.7957747E-01            NaN
         13   -1    0    0    0    0  0.00000000000E+00  0.00000000000E+00  0.74505805969E-08  0.10566000000E+00  0.10566000000E+00 0.  1.
     999900   -1    0    0    0    0 -0.00000000000E+00 -0.00000000000E+00 -0.74505805969E-08  0.93827000000E+00  0.93827000000E+00 0. -1.
     999902    2    1    2    0    0  0.67962856891E-02  0.22714279489E-01  0.64921934481E-02  0.10193479625E+01  0.10190515159E+01 0.  0.
     999903    2    3    3    0    0 -0.33377646224E-01  0.97522702284E-01  0.80219602000E-01  0.13219184563E+00  0.20365529161E-01 0.  0.
         14    1    1    2    0    0 -0.67962856891E-02 -0.22714279489E-01 -0.64921934481E-02  0.24582037500E-01  0.00000000000E+00 0. -1.
     999901    1    3    3    0    0  0.40173931913E-01 -0.74808422795E-01 -0.73727408552E-01  0.88715611687E+00  0.88000000000E+00 0. -1.
        -11    1    4    4    0    0 -0.31354271878E-01  0.83349553993E-01  0.59878733734E-01  0.10731245217E+00  0.51100000000E-03 0. -1.
         11    1    4    4    0    0 -0.20233743455E-02  0.14173148291E-01  0.20340868267E-01  0.24879393463E-01  0.51100000000E-03 0.  1.
</event>
<event>
 8    1  0.1126414E+005  0.1043930E+01  0.7957747E-01            NaN
         13   -1    0    0    0    0  0.00000000000E+00  0.00000000000E+00  0.74505805969E-08  0.10566000000E+00  0.10566000000E+00 0. -1.
     999900   -1    0    0    0    0 -0.00000000000E+00 -0.00000000000E+00 -0.74505805969E-08  0.93827000000E+00  0.93827000000E+00 0.  1.
     999902    2    1    2    0    0 -0.39038094373E-02  0.34412318539E-02  0.25685740294E-01  0.10177223855E+01  0.10173848902E+01 0.  0.
     999903    2    3    3    0    0 -0.92384032998E-01 -0.26551086472E-01 -0.79936767066E-01  0.12649603758E+00  0.19276697028E-01 0.  0.
         14    1    1    2    0    0  0.39038094373E-02 -0.34412318539E-02 -0.25685740294E-01  0.26207614528E-01  0.00000000000E+00 0.  1.
     999901    1    3    3    0    0  0.88480223560E-01  0.29992318326E-01  0.10562250736E+00  0.89122634789E+00  0.88000000000E+00 0. -1.
        -11    1    4    4    0    0 -0.57343617699E-01 -0.12304579859E-01 -0.59294029534E-01  0.83401056563E-01  0.51100000000E-03 0.  1.
         11    1    4    4    0    0 -0.35040415298E-01 -0.14246506612E-01 -0.20642737531E-01  0.43094981016E-01  0.51100000000E-03 0. -1.
</event>
<event>
 8    1  0.1126414E+005  0.1043930E+01  0.7957747E-01            NaN
         13   -1    0    0    0    0  0.00000000000E+00  0.00000000000E+00  0.74505805969E-08  0.10566000000E+00  0.10566000000E+00 0.  1.
     999900   -1    0    0    0    0 -0.00000000000E+00 -0.00000000000E+00 -0.74505805969E-08  0.93827000000E+00  0.93827000000E+00 0. -1.
     999902    2    1    2    0    0  0.22224818243E-01 -0.23400342649E-02 -0.49482128106E-02  0.10210410700E+01  0.10207844844E+01 0.  0.
     999903    2    3    3    0    0  0.95035043077E-01 -0.56454600216E-01  0.71545077065E-01  0.13307657833E+00  0.19284614290E-01 0.  0.
         14    1    1    2    0    0 -0.22224818243E-01  0.23400342649E-02  0.49482128106E-02  0.22888929995E-01  0.00000000000E+00 0.  1.
     999901    1    3    3    0    0 -0.72810224835E-01  0.54114565951E-01 -0.76493289876E-01  0.88796449168E+00  0.88000000000E+00 0. -1.
        -11    1    4    4    0    0  0.90585225787E-01 -0.48642664179E-01  0.62566788688E-01  0.12036052541E+00  0.51100000000E-03 0.  1.
         11    1    4    4    0    0  0.44498172905E-02 -0.78119360366E-02  0.89782883770E-02  0.12716052915E-01  0.51100000000E-03 0. -1.
</event>
<event>
 8    1  0.1126414E+005  0.1043930E+01  0.7957747E-01            NaN
         13   -1    0    0    0    0  0.00000000000E+00  0.00000000000E+00  0.74505805969E-08  0.10566000000E+00  0.10566000000E+00 0.  1.
     999900   -1    0    0    0    0 -0.00000000000E+00 -0.00000000000E+00 -0.74505805969E-08  0.93827000000E+00  0.93827000000E+00 0. -1.
     999902    2    1    2    0    0  0.46802820519E-02  0.15358344074E-01 -0.15872629768E-01  0.10213529287E+01  0.10211033644E+01 0.  0.
     999903    2    3    3    0    0 -0.11845981707E+00 -0.45138649077E-01  0.19476511309E-01  0.13002081777E+00  0.21350706311E-01 0.  0.
         14    1    1    2    0    0 -0.46802820519E-02 -0.15358344074E-01  0.15872629768E-01  0.22577071301E-01  0.00000000000E+00 0.  1.
     999901    1    3    3    0    0  0.12314009913E+00  0.60496993152E-01 -0.35349141077E-01  0.89133211093E+00  0.88000000000E+00 0. -1.
        -11    1    4    4    0    0 -0.85242134999E-01 -0.21903031613E-01  0.13229825467E-01  0.89001425696E-01  0.51100000000E-03 0. -1.
         11    1    4    4    0    0 -0.33217682074E-01 -0.23235617465E-01  0.62466858422E-02  0.41019392077E-01  0.51100000000E-03 0.  1.
</event>
<event>
 8    1  0.1126414E+005  0.1043930E+01  0.7957747E-01            NaN
         13   -1    0    0    0    0  0.00000000000E+00  0.00000000000E+00  0.74505805969E-08  0.10566000000E+00  0.10566000000E+00 0.  1.
     999900   -1    0    0    0    0 -0.00000000000E+00 -0.00000000000E+00 -0.74505805969E-08  0.93827000000E+00  0.93827000000E+00 0. -1.
     999902    2    1    2    0    0  0.22857683605E-02 -0.21241249576E-01 -0.10650661527E-01  0.10200584267E+01  0.10197790652E+01 0.  0.
     999903    2    3    3    0    0 -0.11370240987E+00 -0.33692375452E-01  0.50289331869E-01  0.13027082800E+00  0.19443702146E-01 0.  0.
         14    1    1    2    0    0 -0.22857683605E-02  0.21241249576E-01  0.10650661527E-01  0.23871573294E-01  0.00000000000E+00 0. -1.
     999901    1    3    3    0    0  0.11598817823E+00  0.12451125876E-01 -0.60939993396E-01  0.88978759871E+00  0.88000000000E+00 0. -1.
        -11    1    4    4    0    0 -0.77431816876E-01 -0.15376139396E-01  0.27005230544E-01  0.83436535914E-01  0.51100000000E-03 0. -1.
         11    1    4    4    0    0 -0.36270592992E-01 -0.18316236056E-01  0.23284101325E-01  0.46834292082E-01  0.51100000000E-03 0.  1.
</event>
<event>
 8    1  0.1126414E+005  0.1043930E+01  0.7957747E-01            NaN
         13   -1    0    0    0    0  0.00000000000E+00  0.00000000000E+00  0.74505805969E-08  0.10566000000E+00  0.10566000000E+00 0. -1.
     999900   -1    0    0    0    0 -0.00000000000E+00 -0.00000000000E+00 -0.74505805969E-08  0.93827000000E+00  0.93827000000E+00 0.  1.
     999902    2    1    2    0    0  0.14152063521E-01  0.13899525285E-01 -0.13817908686E-01  0.10197553789E+01  0.10194687933E+01 0.  0.
     999903    2    3    3    0    0  0.12882935457E+00  0.15687588997E-01 -0.16294920630E-01  0.13230948542E+00  0.19929185808E-01 0.  0.
         14    1    1    2    0    0 -0.14152063521E-01 -0.13899525285E-01  0.13817908686E-01  0.24174621103E-01  0.00000000000E+00 0.  1.
     999901    1    3    3    0    0 -0.11467729105E+00 -0.17880637125E-02  0.24770119437E-02  0.88744589347E+00  0.88000000000E+00 0.  1.
        -11    1    4    4    0    0  0.76479645715E-01  0.15529306622E-01 -0.17346035822E-01  0.79946492434E-01  0.51100000000E-03 0. -1.
         11    1    4    4    0    0  0.52349708856E-01  0.15828237577E-03  0.10511151923E-02  0.52362992989E-01  0.51100000000E-03 0.  1.
</event>
<event>
 8    1  0.1126414E+005  0.1043930E+01  0.7957747E-01            NaN
         13   -1    0    0    0    0  0.00000000000E+00  0.00000000000E+00  0.74505805969E-08  0.10566000000E+00  0.10566000000E+00 0. -1.
     999900   -1    0    0    0    0 -0.00000000000E+00 -0.00000000000E+00 -0.74505805969E-08  0.93827000000E+00  0.93827000000E+00 0. -1.
     999902    2    1    2    0    0  0.12547871370E-01 -0.49886001223E-02 -0.19887403215E-01  0.10198916137E+01  0.10196082874E+01 0.  0.
     999903    2    3    3    0    0  0.51071357045E-01  0.81280996660E-01 -0.88724273613E-01  0.13216135235E+00  0.19486980195E-01 0.  0.
         14    1    1    2    0    0 -0.12547871370E-01  0.49886001223E-02  0.19887403215E-01  0.24038386255E-01  0.00000000000E+00 0. -1.
     999901    1    3    3    0    0 -0.38523485675E-01 -0.86269596783E-01  0.68836870398E-01  0.88773026140E+00  0.88000000000E+00 0.  1.
        -11    1    4    4    0    0  0.50604327889E-01  0.69198496026E-01 -0.79829100688E-01  0.11714169322E+00  0.51100000000E-03 0.  1.
         11    1    4    4    0    0  0.46702915596E-03  0.12082500634E-01 -0.88951729254E-02  0.15019659123E-01  0.51100000000E-03 0. -1.
</event>
<event>
 8    1  0.1126414E+005  0.1043930E+01  0.7957747E-01            NaN
         13   -1    0    0    0    0  0.00000000000E+00  0.00000000000E+00  0.74505805969E-08  0.10566000000E+00  0.10566000000E+00 0. -1.
     999900   -1    0    0    0    0 -0.00000000000E+00 -0.00000000000E+00 -0.74505805969E-08  0.93827000000E+00  0.93827000000E+00 0.  1.
     999902    2    1    2    0    0  0.22534989590E-01  0.11772410533E-01 -0.98790845833E-02  0.10166534218E+01  0.10162874438E+01 0.  0.
     999903    2    3    3    0    0 -0.94653651600E-01  0.37793588651E-01 -0.72696228773E-01  0.12628480548E+00  0.16596424721E-01 0.  0.
         14    1    1    2    0    0 -0.22534989590E-01 -0.11772410533E-01  0.98790845833E-02  0.27276578191E-01  0.00000000000E+00 0.  1.
     999901    1    3    3    0    0  0.11718864119E+00 -0.26021178118E-01  0.62817144190E-01  0.89036861633E+00  0.88000000000E+00 0. -1.
        -11    1    4    4    0    0 -0.67821873575E-01  0.29141226977E-01 -0.43439610177E-01  0.85652078191E-01  0.51100000000E-03 0.  1.
         11    1    4    4    0    0 -0.26831778025E-01  0.86523616745E-02 -0.29256618596E-01  0.40632727292E-01  0.51100000000E-03 0. -1.
</event>
<event>
 8    1  0.1126414E+005  0.1043930E+01  0.7957747E-01            NaN
         13   -1    0    0    0    0  0.00000000000E+00  0.00000000000E+00  0.74505805969E-08  0.10566000000E+00  0.10566000000E+00 0.  1.
     999900   -1    0    0    0    0 -0.00000000000E+00 -0.00000000000E+00 -0.74505805969E-08  0.93827000000E+00  0.93827000000E+00 0. -1.
     999902    2    1    2    0    0  0.88410073165E-02  0.20656773334E-01 -0.82672441701E-02  0.10199881325E+01  0.10197071037E+01 0.  0.
     999903    2    3    3    0    0  0.92460474556E-02  0.39334996120E-01  0.12328036164E+00  0.13001408079E+00  0.85371145345E-02 0.  0.
         14    1    1    2    0    0 -0.88410073165E-02 -0.20656773334E-01  0.82672441701E-02  0.23941867536E-01  0.00000000000E+00 0.  1.
     999901    1    3    3    0    0 -0.40504013910E-03 -0.18678222786E-01 -0.13154760581E+00  0.88997405168E+00  0.88000000000E+00 0. -1.
        -11    1    4    4    0    0  0.77591756943E-02  0.30496748822E-01  0.83523631197E-01  0.89256454027E-01  0.51100000000E-03 0. -1.
         11    1    4    4    0    0  0.14868717613E-02  0.88382472986E-02  0.39756730439E-01  0.40757626760E-01  0.51100000000E-03 0.  1.
</event>
<event>
 8    1  0.1126414E+005  0.1043930E+01  0.7957747E-01            NaN
         13   -1    0    0    0    0  0.00000000000E+00  0.00000000000E+00  0.74505805969E-08  0.10566000000E+00  0.10566000000E+00 0. -1.
     999900   -1    0    0    0    0 -0.00000000000E+00 -0.00000000000E+00 -0.74505805969E-08  0.93827000000E+00  0.93827000000E+00 0.  1.
     999902    2    1    2    0    0  0.88351498321E-02  0.62165483914E-02 -0.20845786732E-01  0.10204512400E+01  0.10201811021E+01 0.  0.
     999903    2    3    3    0    0 -0.11953723994E+00  0.42061593050E-01  0.18148947164E-01  0.12956127657E+00  0.19960229440E-01 0.  0.
         14    1    1    2    0    0 -0.88351498321E-02 -0.62165483914E-02  0.20845786732E-01  0.23478759996E-01  0.00000000000E+00 0. -1.
     999901    1    3    3    0    0  0.12837238977E+00 -0.35845044659E-01 -0.38994733896E-01  0.89088996344E+00  0.88000000000E+00 0. -1.
        -11    1    4    4    0    0 -0.92870931683E-01  0.40386897621E-01  0.10815721475E-01  0.10184965588E+00  0.51100000000E-03 0. -1.
         11    1    4    4    0    0 -0.26666308260E-01  0.16746954291E-02  0.73332256888E-02  0.27711620685E-01  0.51100000000E-03 0.  1.
</event>
<event>
 8    1  0.1126414E+005  0.1043930E+01  0.7957747E-01            NaN
         13   -1    0    0    0    0  0.00000000000E+00  0.00000000000E+00  0.74505805969E-08  0.10566000000E+00  0.10566000000E+00 0.  1.
     999900   -1    0    0    0    0 -0.00000000000E+00 -0.00000000000E+00 -0.74505805969E-08  0.93827000000E+00  0.93827000000E+00 0.  1.
     999902    2    1    2    0    0  0.15294435228E-01 -0.33920092798E-02 -0.16744561796E-01  0.10209995437E+01  0.10207420156E+01 0.  0.
     999903    2    3    3    0    0  0.10956887489E+00  0.71454124030E-01 -0.51633807186E-02  0.13272946237E+00  0.21895650162E-01 0.  0.
         14    1    1    2    0    0 -0.15294435228E-01  0.33920092798E-02  0.16744561796E-01  0.22930456289E-01  0.00000000000E+00 0.  1.
     999901    1    3    3    0    0 -0.94274439662E-01 -0.74846133310E-01 -0.11581181077E-01  0.88827008134E+00  0.88000000000E+00 0. -1.
        -11    1    4    4    0    0  0.61166527518E-01  0.41561233705E-01 -0.13671424020E-01  0.75205380070E-01  0.51100000000E-03 0.  1.
         11    1    4    4    0    0  0.48402347371E-01  0.29892890325E-01  0.85080433015E-02  0.57524082304E-01  0.51100000000E-03 0. -1.
</event>
<event>
 8    1  0.1126414E+005  0.1043930E+01  0.7957747E-01            NaN
         13   -1    0    0    0    0  0.00000000000E+00  0.00000000000E+00  0.74505805969E-08  0.10566000000E+00  0.10566000000E+00 0. -1.
     999900   -1    0    0    0    0 -0.00000000000E+00 -0.00000000000E+00 -0.74505805969E-08  0.93827000000E+00  0.93827000000E+00 0. -1.
     999902    2    1    2    0    0  0.19821014113E-01  0.45606970980E-02  0.11959513968E-01  0.10203354554E+01  0.10200626153E+01 0.  0.
     999903    2    3    3    0    0  0.54527422558E-01  0.73652064680E-01 -0.91079216149E-01  0.13095638454E+00  0.21360819140E-01 0.  0.
         14    1    1    2    0    0 -0.19821014113E-01 -0.45606970980E-02 -0.11959513968E-01  0.23594544557E-01  0.00000000000E+00 0.  1.
     999901    1    3    3    0    0 -0.34706408445E-01 -0.69091367582E-01  0.10303873012E+00  0.88937907091E+00  0.88000000000E+00 0.  1.
        -11    1    4    4    0    0  0.31984675418E-01  0.31707726807E-01 -0.55696452663E-01  0.71629291223E-01  0.51100000000E-03 0.  1.
         11    1    4    4    0    0  0.22542747140E-01  0.41944337873E-01 -0.35382763486E-01  0.59327093314E-01  0.51100000000E-03 0. -1.
</event>
<event>
 8    1  0.1126414E+005  0.1043930E+01  0.7957747E-01            NaN
         13   -1    0    0    0    0  0.00000000000E+00  0.00000000000E+00  0.74505805969E-08  0.10566000000E+00  0.10566000000E+00 0. -1.
     999900   -1    0    0    0    0 -0.00000000000E+00 -0.00000000000E+00 -0.74505805969E-08  0.93827000000E+00  0.93827000000E+00 0.  1.
     999902    2    1    2    0    0  0.14818120557E-01 -0.15090383503E-01  0.11850339240E-01  0.10196869203E+01  0.10193986897E+01 0.  0.
     999903    2    3    3    0    0 -0.62000713640E-01 -0.10667151063E+00 -0.35782786121E-01  0.13032920223E+00  0.21963458299E-01 0.  0.
         14    1    1    2    0    0 -0.14818120557E-01  0.15090383503E-01 -0.11850339240E-01  0.24243079656E-01  0.00000000000E+00 0.  1.
     999901    1    3    3    0    0  0.76818834196E-01  0.91581127125E-01  0.47633125361E-01  0.88935771811E+00  0.88000000000E+00 0. -1.
        -11    1    4    4    0    0 -0.10598464109E-01 -0.22527650568E-01  0.14175430612E-02  0.24941792857E-01  0.51100000000E-03 0.  1.
         11    1    4    4    0    0 -0.51402249531E-01 -0.84143860061E-01 -0.37200329182E-01  0.10538740938E+00  0.51100000000E-03 0. -1.
</event>
<event>
 8    1  0.1126414E+005  0.1043930E+01  0.7957747E-01            NaN
         13   -1    0    0    0    0  0.00000000000E+00  0.00000000000E+00  0.74505805969E-08  0.10566000000E+00  0.10566000000E+00 0.  1.
     999900   -1    0    0    0    0 -0.00000000000E+00 -0.00000000000E+00 -0.74505805969E-08  0.93827000000E+00  0.93827000000E+00 0.  1.
     999902    2    1    2    0    0  0.32291314626E-04  0.20514485539E-01 -0.10767769459E-01  0.10207612707E+01  0.10204983007E+01 0.  0.
     999903    2    3    3    0    0 -0.40063462244E-01 -0.95217465864E-01 -0.76273846554E-01  0.12986700076E+00  0.19398231999E-01 0.  0.
         14    1    1    2    0    0 -0.32291314626E-04 -0.20514485539E-01  0.10767769459E-01  0.23168729330E-01  0.00000000000E+00 0.  1.
     999901    1    3    3    0    0  0.40095753559E-01  0.11573195140E+00  0.65506077095E-01  0.89089426991E+00  0.88000000000E+00 0.  1.
        -11    1    4    4    0    0 -0.70488595822E-02 -0.41402955684E-02 -0.69289647576E-02  0.10728473443E-01  0.51100000000E-03 0. -1.
         11    1    4    4    0    0 -0.33014602662E-01 -0.91077170296E-01 -0.69344881796E-01  0.11913852731E+00  0.51100000000E-03 0.  1.
</event>
<event>
 8    1  0.1126414E+005  0.1043930E+01  0.7957747E-01            NaN
         13   -1    0    0    0    0  0.00000000000E+00  0.00000000000E+00  0.74505805969E-08  0.10566000000E+00  0.10566000000E+00 0. -1.
     999900   -1    0    0    0    0 -0.00000000000E+00 -0.00000000000E+00 -0.74505805969E-08  0.93827000000E+00  0.93827000000E+00 0.  1.
     999902    2    1    2    0    0 -0.14616558229E-01  0.13276382208E-01  0.12624249702E-01  0.10204933241E+01  0.10202241649E+01 0.  0.
     999903    2    3    3    0    0 -0.52288700995E-01  0.94895388393E-01 -0.72354751283E-01  0.13184137693E+00  0.20191474634E-01 0.  0.
         14    1    1    2    0    0  0.14616558229E-01 -0.13276382208E-01 -0.12624249702E-01  0.23436675949E-01  0.00000000000E+00 0.  1.
     999901    1    3    3    0    0  0.37672142766E-01 -0.81619006185E-01  0.84979000984E-01  0.88865194712E+00  0.88000000000E+00 0.  1.
        -11    1    4    4    0    0 -0.22409708474E-01  0.24730685907E-01 -0.15993364954E-01  0.37011494199E-01  0.51100000000E-03 0. -1.
         11    1    4    4    0    0 -0.29878992521E-01  0.70164702486E-01 -0.56361386329E-01  0.94829882732E-01  0.51100000000E-03 0.  1.
</event>
<event>
 8    1  0.1126414E+005  0.1043930E+01  0.7957747E-01            NaN
         13   -1    0    0    0    0  0.00000000000E+00  0.00000000000E+00  0.74505805969E-08  0.10566000000E+00  0.10566000000E+00 0.  1.
     999900   -1    0    0    0    0 -0.00000000000E+00 -0.00000000000E+00 -0.74505805969E-08  0.93827000000E+00  0.93827000000E+00 0. -1.
     999902    2    1    2    0    0 -0.16506133729E-01  0.12420218009E-01  0.97766817359E-02  0.10210761651E+01  0.10208203745E+01 0.  0.
     999903    2    3    3    0    0  0.10739405660E-01 -0.56890596605E-01  0.11634120062E+00  0.13152442112E+00  0.20286043814E-01 0.  0.
         14    1    1    2    0    0  0.16506133729E-01 -0.12420218009E-01 -0.97766817359E-02  0.22853834948E-01  0.00000000000E+00 0. -1.
     999901    1    3    3    0    0 -0.27245539389E-01  0.69310814614E-01 -0.10656451889E+00  0.88955174393E+00  0.88000000000E+00 0. -1.
        -11    1    4    4    0    0 -0.19741988706E-02 -0.39508025186E-01  0.69586520223E-01  0.80045777109E-01  0.51100000000E-03 0.  1.
         11    1    4    4    0    0  0.12713604531E-01 -0.17382571419E-01  0.46754680401E-01  0.51478644015E-01  0.51100000000E-03 0. -1.
</event>
<event>
 8    1  0.1126414E+005  0.1043930E+01  0.7957747E-01            NaN
         13   -1    0    0    0    0  0.00000000000E+00  0.00000000000E+00  0.74505805969E-08  0.10566000000E+00  0.10566000000E+00 0. -1.
     999900   -1    0    0    0    0 -0.00000000000E+00 -0.00000000000E+00 -0.74505805969E-08  0.93827000000E+00  0.93827000000E+00 0. -1.
     999902    2    1    2    0    0 -0.27276382863E-02 -0.18761484025E-01 -0.15144046130E-01  0.10196653049E+01  0.10193765539E+01 0.  0.
     999903    2    3    3    0    0 -0.58046563077E-01 -0.11794070474E+00 -0.28214815279E-02  0.13228232850E+00  0.14534110112E-01 0.  0.
         14    1    1    2    0    0  0.27276382863E-02  0.18761484025E-01  0.15144046130E-01  0.24264695066E-01  0.00000000000E+00 0. -1.
     999901    1    3    3    0    0  0.55318924791E-01  0.99179220714E-01 -0.12322564602E-01  0.88738297643E+00  0.88000000000E+00 0.  1.
        -11    1    4    4    0    0 -0.15779974039E-01 -0.24256182386E-01  0.42879161173E-02  0.29257773501E-01  0.51100000000E-03 0.  1.
         11    1    4    4    0    0 -0.42266589038E-01 -0.93684522354E-01 -0.71093976452E-02  0.10302455500E+00  0.51100000000E-03 0. -1.
</event>
<event>
 8    1  0.1126414E+005  0.1043930E+01  0.7957747E-01            NaN
         13   -1    0    0    0    0  0.00000000000E+00  0.00000000000E+00  0.74505805969E-08  0.10566000000E+00  0.10566000000E+00 0.  1.
     999900   -1    0    0    0    0 -0.00000000000E+00 -0.00000000000E+00 -0.74505805969E-08  0.93827000000E+00  0.93827000000E+00 0.  1.
     999902    2    1    2    0    0  0.71757896020E-02 -0.11001017617E-01 -0.25068878485E-01  0.10156287100E+01  0.10152343146E+01 0.  0.
     999903    2    3    3    0    0  0.66841331053E-01  0.43897672377E-01  0.92945444079E-01  0.12405637796E+00  0.18877504074E-01 0.  0.
         14    1    1    2    0    0 -0.71757896020E-02  0.11001017617E-01  0.25068878485E-01  0.28301289962E-01  0.00000000000E+00 0.  1.
     999901    1    3    3    0    0 -0.59665541451E-01 -0.54898689994E-01 -0.11801432256E+00  0.89157233208E+00  0.88000000000E+00 0.  1.
        -11    1    4    4    0    0  0.12025907744E-01  0.83590749020E-02  0.29746201079E-01  0.33160129522E-01  0.51100000000E-03 0. -1.
         11    1    4    4    0    0  0.54815423309E-01  0.35538597475E-01  0.63199243000E-01  0.90896248436E-01  0.51100000000E-03 0.  1.
</event>
<event>
 8    1  0.1126414E+005  0.1043930E+01  0.7957747E-01            NaN
         13   -1    0    0    0    0  0.00000000000E+00  0.00000000000E+00  0.74505805969E-08  0.10566000000E+00  0.10566000000E+00 0. -1.
     999900   -1    0    0    0    0 -0.00000000000E+00 -0.00000000000E+00 -0.74505805969E-08  0.93827000000E+00  0.93827000000E+00 0.  1.
     999902    2    1    2    0    0 -0.82070026803E-02 -0.77884346036E-02  0.17520833588E-01  0.10230734850E+01  0.10228608711E+01 0.  0.
     999903    2    3    3    0    0 -0.58914772102E-01  0.11413995359E+00 -0.24190857162E-01  0.13224371743E+00  0.20107805745E-01 0.  0.
         14    1    1    2    0    0  0.82070026803E-02  0.77884346036E-02 -0.17520833588E-01  0.20856514958E-01  0.00000000000E+00 0.  1.
     999901    1    3    3    0    0  0.50707769421E-01 -0.12192838819E+00  0.41711690750E-01  0.89082976762E+00  0.88000000000E+00 0.  1.
        -11    1    4    4    0    0 -0.47973711472E-02  0.26261730624E-01 -0.71301739194E-02  0.27636819036E-01  0.51100000000E-03 0.  1.
         11    1    4    4    0    0 -0.54117400954E-01  0.87878222962E-01 -0.17060683243E-01  0.10460689839E+00  0.51100000000E-03 0. -1.
</event>
<event>
 8    1  0.1126414E+005  0.1043930E+01  0.7957747E-01            NaN
         13   -1    0    0    0    0  0.00000000000E+00  0.00000000000E+00  0.74505805969E-08  0.10566000000E+00  0.10566000000E+00 0. -1.
     999900   -1    0    0    0    0 -0.00000000000E+00 -0.00000000000E+00 -0.74505805969E-08  0.93827000000E+00  0.93827000000E+00 0. -1.
     999902    2    1    2    0    0  0.30877435133E-02 -0.31874235309E-02  0.24017410522E-01  0.10195060397E+01  0.10192134394E+01 0.  0.
     999903    2    3    3    0    0  0.88974851819E-01  0.77385324810E-01 -0.47599756851E-01  0.12877735945E+00  0.20318924741E-01 0.  0.
         14    1    1    2    0    0 -0.30877435133E-02  0.31874235309E-02 -0.24017410522E-01  0.24423960305E-01  0.00000000000E+00 0.  1.
     999901    1    3    3    0    0 -0.85887108306E-01 -0.80572748341E-01  0.71617167373E-01  0.89072868024E+00  0.88000000000E+00 0.  1.
        -11    1    4    4    0    0  0.40604236367E-01  0.22768283032E-01 -0.21629304628E-01  0.51334069222E-01  0.51100000000E-03 0. -1.
         11    1    4    4    0    0  0.48370615452E-01  0.54617041778E-01 -0.25970452223E-01  0.77443290229E-01  0.51100000000E-03 0.  1.
</event>
<event>
 8    1  0.1126414E+005  0.1043930E+01  0.7957747E-01            NaN
         13   -1    0    0    0    0  0.00000000000E+00  0.00000000000E+00  0.74505805969E-08  0.10566000000E+00  0.10566000000E+00 0.  1.
     999900   -1    0    0    0    0 -0.00000000000E+00 -0.00000000000E+00 -0.74505805969E-08  0.93827000000E+00  0.93827000000E+00 0.  1.
     999902    2    1    2    0    0  0.16636836786E-01  0.17265858432E-01 -0.20455679434E-02  0.10198659489E+01  0.10195820101E+01 0.  0.
     999903    2    3    3    0    0  0.26803943418E-01  0.12686102361E+00  0.20060697968E-01  0.13273396479E+00  0.20092364557E-01 0.  0.
         14    1    1    2    0    0 -0.16636836786E-01 -0.17265858432E-01  0.20455679434E-02  0.24064051069E-01  0.00000000000E+00 0.  1.
     999901    1    3    3    0    0 -0.10167106633E-01 -0.10959516518E+00 -0.22106265912E-01  0.88713198414E+00  0.88000000000E+00 0.  1.
        -11    1    4    4    0    0  0.52417861416E-02  0.72614424453E-01  0.97937396381E-02  0.73460938040E-01  0.51100000000E-03 0. -1.
         11    1    4    4    0    0  0.21562157277E-01  0.54246599154E-01  0.10266958330E-01  0.59273026754E-01  0.51100000000E-03 0.  1.
</event>
<event>
 8    1  0.1126414E+005  0.1043930E+01  0.7957747E-01            NaN
         13   -1    0    0    0    0  0.00000000000E+00  0.00000000000E+00  0.74505805969E-08  0.10566000000E+00  0.10566000000E+00 0. -1.
     999900   -1    0    0    0    0 -0.00000000000E+00 -0.00000000000E+00 -0.74505805969E-08  0.93827000000E+00  0.93827000000E+00 0. -1.
     999902    2    1    2    0    0 -0.21547976828E-01  0.73765782102E-02  0.82015337255E-02  0.10197226795E+01  0.10194353087E+01 0.  0.
     999903    2    3    3    0    0 -0.12475819480E+00 -0.12736712472E-01  0.39760561495E-01  0.13290090156E+00  0.18839224244E-01 0.  0.
         14    1    1    2    0    0  0.21547976828E-01 -0.73765782102E-02 -0.82015337255E-02  0.24207320524E-01  0.00000000000E+00 0. -1.
     999901    1    3    3    0    0  0.10321021797E+00  0.20113290682E-01 -0.31559027769E-01  0.88682177792E+00  0.88000000000E+00 0. -1.
        -11    1    4    4    0    0 -0.88995552249E-01 -0.14033675992E-01  0.21082866771E-01  0.92530539684E-01  0.51100000000E-03 0.  1.
         11    1    4    4    0    0 -0.35762642552E-01  0.12969635203E-02  0.18677694724E-01  0.40370361875E-01  0.51100000000E-03 0. -1.
</event>
<event>
 8    1  0.1126414E+005  0.1043930E+01  0.7957747E-01            NaN
         13   -1    0    0    0    0  0.00000000000E+00  0.00000000000E+00  0.74505805969E-08  0.10566000000E+00  0.10566000000E+00 0. -1.
     999900   -1    0    0    0    0 -0.00000000000E+00 -0.00000000000E+00 -0.74505805969E-08  0.93827000000E+00  0.93827000000E+00 0. -1.
     999902    2    1    2    0    0 -0.19666770284E-02  0.23213174041E-01  0.17158346101E-02  0.10205705617E+01  0.10203031942E+01 0.  0.
     999903    2    3    3    0    0 -0.52782893711E-01 -0.80054130147E-01  0.84181946579E-01  0.12925295077E+00  0.20616195852E-01 0.  0.
         14    1    1    2    0    0  0.19666770284E-02 -0.23213174041E-01 -0.17158346101E-02  0.23359438263E-01  0.00000000000E+00 0.  1.
     999901    1    3    3    0    0  0.50816216682E-01  0.10326730419E+00 -0.82466111968E-01  0.89131761096E+00  0.88000000000E+00 0. -1.
        -11    1    4    4    0    0 -0.53068824776E-02 -0.24153194974E-01  0.21664401333E-01  0.32880803445E-01  0.51100000000E-03 0. -1.
         11    1    4    4    0    0 -0.47476011233E-01 -0.55900935173E-01  0.62517545246E-01  0.96372147327E-01  0.51100000000E-03 0.  1.
</event>
<event>
 8    1  0.1126414E+005  0.1043930E+01  0.7957747E-01            NaN
         13   -1    0    0    0    0  0.00000000000E+00  0.00000000000E+00  0.74505805969E-08  0.10566000000E+00  0.10566000000E+00 0.  1.
     999900   -1    0    0    0    0 -0.00000000000E+00 -0.00000000000E+00 -0.74505805969E-08  0.93827000000E+00  0.93827000000E+00 0.  1.
     999902    2    1    2    0    0  0.17610746072E-01 -0.13936830233E-01 -0.72496548292E-02  0.10203306121E+01  0.10200576586E+01 0.  0.
     999903    2    3    3    0    0 -0.62133397603E-01 -0.10406391731E+00  0.44397957885E-01  0.13063993767E+00  0.20143402535E-01 0.  0.
         14    1    1    2    0    0 -0.17610746072E-01  0.13936830233E-01  0.72496548292E-02  0.23599387901E-01  0.00000000000E+00 0.  1.
     999901    1    3    3    0    0  0.79744143675E-01  0.90127087075E-01 -0.51647612714E-01  0.88969067443E+00  0.88000000000E+00 0.  1.
        -11    1    4    4    0    0 -0.23810214144E-01 -0.58918940649E-01  0.20426302248E-01  0.66752249470E-01  0.51100000000E-03 0. -1.
         11    1    4    4    0    0 -0.38323183459E-01 -0.45144976659E-01  0.23971655637E-01  0.63887688195E-01  0.51100000000E-03 0.  1.
</event>
<event>
 8    1  0.1126414E+005  0.1043930E+01  0.7957747E-01            NaN
         13   -1    0    0    0    0  0.00000000000E+00  0.00000000000E+00  0.74505805969E-08  0.10566000000E+00  0.10566000000E+00 0.  1.
     999900   -1    0    0    0    0 -0.00000000000E+00 -0.00000000000E+00 -0.74505805969E-08  0.93827000000E+00  0.93827000000E+00 0. -1.
     999902    2    1    2    0    0  0.18730398608E-01 -0.16468200078E-01  0.40466033360E-02  0.10186633333E+01  0.10183499311E+01 0.  0.
     999903    2    3    3    0    0 -0.55580771197E-01 -0.87617222326E-01  0.75406375789E-01  0.12980082965E+00  0.19903117698E-01 0.  0.
         14    1    1    2    0    0 -0.18730398608E-01  0.16468200078E-01 -0.40466033360E-02  0.25266666665E-01  0.00000000000E+00 0.  1.
     999901    1    3    3    0    0  0.74311169806E-01  0.71149022249E-01 -0.71359772453E-01  0.88886250368E+00  0.88000000000E+00 0. -1.
        -11    1    4    4    0    0 -0.37094147609E-01 -0.41160901507E-01  0.43970499285E-01  0.70737977975E-01  0.51100000000E-03 0.  1.
         11    1    4    4    0    0 -0.18486623588E-01 -0.46456320820E-01  0.31435876504E-01  0.59062851678E-01  0.51100000000E-03 0. -1.
</event>
<event>
 8    1  0.1126414E+005  0.1043930E+01  0.7957747E-01            NaN
         13   -1    0    0    0    0  0.00000000000E+00  0.00000000000E+00  0.74505805969E-08  0.10566000000E+00  0.10566000000E+00 0.  1.
     999900   -1    0    0    0    0 -0.00000000000E+00 -0.00000000000E+00 -0.74505805969E-08  0.93827000000E+00  0.93827000000E+00 0.  1.
     999902    2    1    2    0    0 -0.18338285384E-01  0.11443596554E-01  0.12487399429E-01  0.10189663513E+01  0.10186605133E+01 0.  0.
     999903    2    3    3    0    0 -0.67468559822E-01 -0.44643412963E-01 -0.98338432640E-01  0.12888663487E+00  0.19906693083E-01 0.  0.
         14    1    1    2    0    0  0.18338285384E-01 -0.11443596554E-01 -0.12487399429E-01  0.24963648720E-01  0.00000000000E+00 0. -1.
     999901    1    3    3    0    0  0.49130274439E-01  0.56087009517E-01  0.11082583207E+00  0.89007971641E+00  0.88000000000E+00 0. -1.
        -11    1    4    4    0    0 -0.12130247867E-01 -0.70783138336E-03 -0.19830165454E-01  0.23262427249E-01  0.51100000000E-03 0.  1.
         11    1    4    4    0    0 -0.55338311955E-01 -0.43935581580E-01 -0.78508267187E-01  0.10562420763E+00  0.51100000000E-03 0. -1.
</event>
<event>
 8    1  0.1126414E+005  0.1043930E+01  0.7957747E-01            NaN
         13   -1    0    0    0    0  0.00000000000E+00  0.00000000000E+00  0.74505805969E-08  0.10566000000E+00  0.10566000000E+00 0. -1.
     999900   -1    0    0    0    0 -0.00000000000E+00 -0.00000000000E+00 -0.74505805969E-08  0.93827000000E+00  0.93827000000E+00 0.  1.
     999902    2    1    2    0    0  0.36353712622E-02  0.18175842974E-01  0.17153633062E-01  0.10186748160E+01  0.10183617022E+01 0.  0.
     999903    2    3    3    0    0 -0.56395514298E-01  0.40978997948E-01 -0.10529940548E+00  0.12787829728E+00  0.20128631710E-01 0.  0.
         14    1    1    2    0    0 -0.36353712622E-02 -0.18175842974E-01 -0.17153633062E-01  0.25255184008E-01  0.00000000000E+00 0.  1.
     999901    1    3    3    0    0  0.60030885560E-01 -0.22803154974E-01  0.12245303855E+00  0.89079651871E+00  0.88000000000E+00 0. -1.
        -11    1    4    4    0    0 -0.72757963128E-02  0.10132245521E-01 -0.32372654288E-01  0.34696534092E-01  0.51100000000E-03 0. -1.
         11    1    4    4    0    0 -0.49119717985E-01  0.30846752427E-01 -0.72926751196E-01  0.93181763190E-01  0.51100000000E-03 0.  1.
</event>
<event>
 8    1  0.1126414E+005  0.1043930E+01  0.7957747E-01            NaN
         13   -1    0    0    0    0  0.00000000000E+00  0.00000000000E+00  0.74505805969E-08  0.10566000000E+00  0.10566000000E+00 0.  1.
     999900   -1    0    0    0    0 -0.00000000000E+00 -0.00000000000E+00 -0.74505805969E-08  0.93827000000E+00  0.93827000000E+00 0. -1.
     999902    2    1    2    0    0 -0.11193628917E-01 -0.20083654045E-01 -0.23580618285E-01  0.10109952760E+01  0.10104586840E+01 0.  0.
     999903    2    3    3    0    0 -0.22721963168E-01  0.89419502327E-01 -0.77906439493E-01  0.12247114091E+00  0.20436047407E-01 0.  0.
         14    1    1    2    0    0  0.11193628917E-01  0.20083654045E-01  0.23580618285E-01  0.32934724028E-01  0.00000000000E+00 0. -1.
     999901    1    3    3    0    0  0.11528334251E-01 -0.10950315637E+00  0.54325821208E-01  0.88852413507E+00  0.88000000000E+00 0.  1.
        -11    1    4    4    0    0  0.32595780794E-02  0.82017782332E-02 -0.43349240649E-02  0.98461516894E-02  0.51100000000E-03 0.  1.
         11    1    4    4    0    0 -0.25981541247E-01  0.81217724094E-01 -0.73571515428E-01  0.11262498922E+00  0.51100000000E-03 0. -1.
</event>
<event>
 8    1  0.1126414E+005  0.1043930E+01  0.7957747E-01            NaN
         13   -1    0    0    0    0  0.00000000000E+00  0.00000000000E+00  0.74505805969E-08  0.10566000000E+00  0.10566000000E+00 0. -1.
     999900   -1    0    0    0    0 -0.00000000000E+00 -0.00000000000E+00 -0.74505805969E-08  0.93827000000E+00  0.93827000000E+00 0. -1.
     999902    2    1    2    0    0 -0.10423532943E-01 -0.21503832523E-01  0.22885876831E-02  0.10199236990E+01  0.10196411375E+01 0.  0.
     999903    2    3    3    0    0  0.26322960923E-01  0.58184634999E-03  0.12592994065E+00  0.13024664180E+00  0.20312580615E-01 0.  0.
         14    1    1    2    0    0  0.10423532943E-01  0.21503832523E-01 -0.22885876831E-02  0.24006300960E-01  0.00000000000E+00 0.  1.
     999901    1    3    3    0    0 -0.36746493867E-01 -0.22085678873E-01 -0.12364135296E+00  0.88967705724E+00  0.88000000000E+00 0. -1.
        -11    1    4    4    0    0  0.37211794915E-02  0.56625088216E-02  0.59595371548E-01  0.59981502264E-01  0.51100000000E-03 0. -1.
         11    1    4    4    0    0  0.22601781432E-01 -0.50806624716E-02  0.66334569098E-01  0.70265139532E-01  0.51100000000E-03 0.  1.
</event>
<event>
 8    1  0.1126414E+005  0.1043930E+01  0.7957747E-01            NaN
         13   -1    0    0    0    0  0.00000000000E+00  0.00000000000E+00  0.74505805969E-08  0.10566000000E+00  0.10566000000E+00 0. -1.
     999900   -1    0    0    0    0 -0.00000000000E+00 -0.00000000000E+00 -0.74505805969E-08  0.93827000000E+00  0.93827000000E+00 0.  1.
     999902    2    1    2    0    0  0.17728181920E-01 -0.14927855867E-01 -0.88407185273E-02  0.10191250082E+01  0.10188230929E+01 0.  0.
     999903    2    3    3    0    0  0.40152090839E-01 -0.11101952496E+00  0.54117197707E-01  0.13137496466E+00  0.19828891283E-01 0.  0.
         14    1    1    2    0    0 -0.17728181920E-01  0.14927855867E-01  0.88407185273E-02  0.24804991817E-01  0.00000000000E+00 0.  1.
     999901    1    3    3    0    0 -0.22423908919E-01  0.96091669097E-01 -0.62957916234E-01  0.88775004352E+00  0.88000000000E+00 0.  1.
        -11    1    4    4    0    0  0.35481834204E-01 -0.70608435077E-01  0.35228874316E-01  0.86520785763E-01  0.51100000000E-03 0. -1.
         11    1    4    4    0    0  0.46702566350E-02 -0.40411089886E-01  0.18888323391E-01  0.44854178895E-01  0.51100000000E-03 0.  1.
</event>
<event>
 7    1  0.1126414E+005  0.1043930E+01  0.7957747E-01            NaN
         13   -1    0    0    0    0  0.00000000000E+00  0.00000000000E+00  0.74505805969E-08  0.10566000000E+00  0.10566000000E+00 0. -1.
     999900   -1    0    0    0    0 -0.00000000000E+00 -0.00000000000E+00 -0.74505805969E-08  0.93827000000E+00  0.93827000000E+00 0. -1.
     999903    2    1    2    0    0  0.81014845681E-01 -0.74013466044E-01  0.23560632451E-02  0.11169835823E+00  0.20726162689E-01 0.  0.
         14    1    1    2    0    0 -0.68808126384E-02  0.23795563776E-01 -0.39819041876E-01  0.46894888143E-01  0.00000000000E+00 0.  1.
     999901    1    1    2    0    0 -0.74134033042E-01  0.50217902268E-01  0.37462978631E-01  0.88533675363E+00  0.88000000000E+00 0. -1.
        -11    1    3    3    0    0  0.39151403296E-01 -0.22045564697E-01  0.14542874751E-02  0.44957928955E-01  0.51100000000E-03 0.  1.
         11    1    3    3    0    0  0.41863442384E-01 -0.51967901347E-01  0.90177577005E-03  0.66740429270E-01  0.51100000000E-03 0. -1.
</event>
<event>
 8    1  0.1126414E+005  0.1043930E+01  0.7957747E-01            NaN
         13   -1    0    0    0    0  0.00000000000E+00  0.00000000000E+00  0.74505805969E-08  0.10566000000E+00  0.10566000000E+00 0.  1.
     999900   -1    0    0    0    0 -0.00000000000E+00 -0.00000000000E+00 -0.74505805969E-08  0.93827000000E+00  0.93827000000E+00 0. -1.
     999902    2    1    2    0    0  0.16344838204E-01 -0.12602320321E-01  0.12395582192E-01  0.10198546460E+01  0.10195704371E+01 0.  0.
     999903    2    3    3    0    0 -0.12131557995E+00  0.14805510240E-02  0.37720515748E-01  0.12868122276E+00  0.20404847782E-01 0.  0.
         14    1    1    2    0    0 -0.16344838204E-01  0.12602320321E-01 -0.12395582192E-01  0.24075354022E-01  0.00000000000E+00 0. -1.
     999901    1    3    3    0    0  0.13766041815E+00 -0.14082871345E-01 -0.25324933556E-01  0.89117342322E+00  0.88000000000E+00 0.  1.
        -11    1    4    4    0    0 -0.68967058576E-01  0.85439411059E-02  0.28225518970E-01  0.75009300359E-01  0.51100000000E-03 0. -1.
         11    1    4    4    0    0 -0.52348521373E-01 -0.70633900819E-02  0.94949967785E-02  0.53671922401E-01  0.51100000000E-03 0.  1.
</event>
<event>
 8    1  0.1126414E+005  0.1043930E+01  0.7957747E-01            NaN
         13   -1    0    0    0    0  0.00000000000E+00  0.00000000000E+00  0.74505805969E-08  0.10566000000E+00  0.10566000000E+00 0. -1.
     999900   -1    0    0    0    0 -0.00000000000E+00 -0.00000000000E+00 -0.74505805969E-08  0.93827000000E+00  0.93827000000E+00 0. -1.
     999902    2    1    2    0    0  0.15086488732E-01 -0.85114697872E-03 -0.15907090850E-01  0.10219900334E+01  0.10217545039E+01 0.  0.
     999903    2    3    3    0    0  0.19410248038E-01  0.79924034658E-01  0.99587474559E-01  0.13076485454E+00  0.20424814538E-01 0.  0.
         14    1    1    2    0    0 -0.15086488732E-01  0.85114697872E-03  0.15907090850E-01  0.21939966562E-01  0.00000000000E+00 0. -1.
     999901    1    3    3    0    0 -0.43237593063E-02 -0.80775181637E-01 -0.11549456541E+00  0.89122517890E+00  0.88000000000E+00 0.  1.
        -11    1    4    4    0    0 -0.23686920188E-02  0.22493672395E-01  0.34630369097E-01  0.41365439494E-01  0.51100000000E-03 0. -1.
         11    1    4    4    0    0  0.21778940057E-01  0.57430362263E-01  0.64957105462E-01  0.89399415046E-01  0.51100000000E-03 0.  1.
</event>
<event>
 8    1  0.1126414E+005  0.1043930E+01  0.7957747E-01            NaN
         13   -1    0    0    0    0  0.00000000000E+00  0.00000000000E+00  0.74505805969E-08  0.10566000000E+00  0.10566000000E+00 0. -1.
     999900   -1    0    0    0    0 -0.00000000000E+00 -0.00000000000E+00 -0.74505805969E-08  0.93827000000E+00  0.93827000000E+00 0.  1.
     999902    2    1    2    0    0  0.53262947842E-03 -0.23158142859E-01 -0.45407974436E-02  0.10203248710E+01  0.10200517831E+01 0.  0.
     999903    2    3    3    0    0  0.74801962788E-01  0.20040040575E-01 -0.10335120890E+00  0.13063643431E+00  0.19684225258E-01 0.  0.
         14    1    1    2    0    0 -0.53262947842E-03  0.23158142859E-01  0.45407974436E-02  0.23605129025E-01  0.00000000000E+00 0.  1.
     999901    1    3    3    0    0 -0.74269333310E-01 -0.43198183435E-01  0.98810411461E-01  0.88968843667E+00  0.88000000000E+00 0. -1.
        -11    1    4    4    0    0  0.40818090478E-01  0.19917713954E-01 -0.51852244418E-01  0.68932925453E-01  0.51100000000E-03 0.  1.
         11    1    4    4    0    0  0.33983872310E-01  0.12232662145E-03 -0.51498964487E-01  0.61703508857E-01  0.51100000000E-03 0. -1.
</event>
<event>
 8    1  0.1126414E+005  0.1043930E+01  0.7957747E-01            NaN
         13   -1    0    0    0    0  0.00000000000E+00  0.00000000000E+00  0.74505805969E-08  0.10566000000E+00  0.10566000000E+00 0.  1.
     999900   -1    0    0    0    0 -0.00000000000E+00 -0.00000000000E+00 -0.74505805969E-08  0.93827000000E+00  0.93827000000E+00 0.  1.
     999902    2    1    2    0    0  0.21539509600E-01 -0.12773105233E-01 -0.11831223884E-02  0.10188600485E+01  0.10185515676E+01 0.  0.
     999903    2    3    3    0    0  0.74155070394E-01  0.87203396591E-01 -0.57804421629E-01  0.12983267562E+00  0.20292009659E-01 0.  0.
         14    1    1    2    0    0 -0.21539509600E-01  0.12773105233E-01  0.11831223884E-02  0.25069951529E-01  0.00000000000E+00 0. -1.
     999901    1    3    3    0    0 -0.52615560794E-01 -0.99976501824E-01  0.56621299240E-01  0.88902737285E+00  0.88000000000E+00 0.  1.
        -11    1    4    4    0    0  0.51607599919E-01  0.47081508002E-01 -0.29746207722E-01  0.75928326466E-01  0.51100000000E-03 0.  1.
         11    1    4    4    0    0  0.22547470475E-01  0.40121888589E-01 -0.28058213907E-01  0.53904349151E-01  0.51100000000E-03 0. -1.
</event>
<event>
 8    1  0.1126414E+005  0.1043930E+01  0.7957747E-01            NaN
         13   -1    0    0    0    0  0.00000000000E+00  0.00000000000E+00  0.74505805969E-08  0.10566000000E+00  0.10566000000E+00 0.  1.
     999900   -1    0    0    0    0 -0.00000000000E+00 -0.00000000000E+00 -0.74505805969E-08  0.93827000000E+00  0.93827000000E+00 0. -1.
     999902    2    1    2    0    0  0.22965931322E-01  0.20081252775E-02  0.41883559224E-02  0.10204990612E+01  0.10202300353E+01 0.  0.
     999903    2    3    3    0    0  0.81999102530E-01 -0.33482211664E-03 -0.10165039994E+00  0.13219041721E+00  0.20433738593E-01 0.  0.
         14    1    1    2    0    0 -0.22965931322E-01 -0.20081252775E-02 -0.41883559224E-02  0.23430938820E-01  0.00000000000E+00 0.  1.
     999901    1    3    3    0    0 -0.59033171207E-01  0.23429473942E-02  0.10583875586E+00  0.88830864397E+00  0.88000000000E+00 0.  1.
        -11    1    4    4    0    0  0.32861920100E-01  0.42366803147E-02 -0.55395878284E-01  0.64550907852E-01  0.51100000000E-03 0. -1.
         11    1    4    4    0    0  0.49137182430E-01 -0.45715024313E-02 -0.46254521659E-01  0.67639509360E-01  0.51100000000E-03 0.  1.
</event>
<event>
 8    1  0.1126414E+005  0.1043930E+01  0.7957747E-01            NaN
         13   -1    0    0    0    0  0.00000000000E+00  0.00000000000E+00  0.74505805969E-08  0.10566000000E+00  0.10566000000E+00 0.  1.
     999900   -1    0    0    0    0 -0.00000000000E+00 -0.00000000000E+00 -0.74505805969E-08  0.93827000000E+00  0.93827000000E+00 0.  1.
     999902    2    1    2    0    0 -0.14178698813E-01 -0.16446875550E-01 -0.10129915146E-01  0.10199685644E+01  0.10196870706E+01 0.  0.
     999903    2    3    3    0    0  0.10342029558E+00 -0.58295941239E-01  0.42771219658E-01  0.12958696202E+00  0.29482693093E-01 0.  0.
         14    1    1    2    0    0  0.14178698813E-01  0.16446875550E-01  0.10129915146E-01  0.23961435605E-01  0.00000000000E+00 0. -1.
     999901    1    3    3    0    0 -0.11759899439E+00  0.41849065689E-01 -0.52901134804E-01  0.89038160237E+00  0.88000000000E+00 0.  1.
        -11    1    4    4    0    0  0.42727824326E-01 -0.19012273307E-01  0.31566635952E-01  0.56425589357E-01  0.51100000000E-03 0.  1.
         11    1    4    4    0    0  0.60692471254E-01 -0.39283667932E-01  0.11204583706E-01  0.73161372665E-01  0.51100000000E-03 0. -1.
</event>
<event>
 8    1  0.1126414E+005  0.1043930E+01  0.7957747E-01            NaN
         13   -1    0    0    0    0  0.00000000000E+00  0.00000000000E+00  0.74505805969E-08  0.10566000000E+00  0.10566000000E+00 0.  1.
     999900   -1    0    0    0    0 -0.00000000000E+00 -0.00000000000E+00 -0.74505805969E-08  0.93827000000E+00  0.93827000000E+00 0. -1.
     999902    2    1    2    0    0  0.20407875863E-01  0.12197893393E-01 -0.35536120169E-02  0.10198904875E+01  0.10196071344E+01 0.  0.
     999903    2    3    3    0    0  0.90598117787E-01 -0.89136954912E-01 -0.25022809882E-01  0.13103934816E+00  0.19792778315E-01 0.  0.
         14    1    1    2    0    0 -0.20407875863E-01 -0.12197893393E-01  0.35536120169E-02  0.24039512450E-01  0.00000000000E+00 0.  1.
     999901    1    3    3    0    0 -0.70190241924E-01  0.10133484831E+00  0.21469197865E-01  0.88885113939E+00  0.88000000000E+00 0.  1.
        -11    1    4    4    0    0  0.55300257045E-01 -0.47205813145E-01 -0.22724655378E-01  0.76178594809E-01  0.51100000000E-03 0. -1.
         11    1    4    4    0    0  0.35297860742E-01 -0.41931141767E-01 -0.22981545042E-02  0.54860753349E-01  0.51100000000E-03 0.  1.
</event>
<event>
 8    1  0.1126414E+005  0.1043930E+01  0.7957747E-01            NaN
         13   -1    0    0    0    0  0.00000000000E+00  0.00000000000E+00  0.74505805969E-08  0.10566000000E+00  0.10566000000E+00 0.  1.
     999900   -1    0    0    0    0 -0.00000000000E+00 -0.00000000000E+00 -0.74505805969E-08  0.93827000000E+00  0.93827000000E+00 0.  1.
     999902    2    1    2    0    0 -0.49148388301E-02 -0.25203836337E-02 -0.23321651790E-01  0.10199632018E+01  0.10196815805E+01 0.  0.
     999903    2    3    3    0    0 -0.90511537077E-01  0.34993856129E-01 -0.88162325115E-01  0.13264227571E+00  0.20111425235E-01 0.  0.
         14    1    1    2    0    0  0.49148388301E-02  0.25203836337E-02  0.23321651790E-01  0.23966798213E-01  0.00000000000E+00 0.  1.
     999901    1    3    3    0    0  0.85596698247E-01 -0.37514239763E-01  0.64840673325E-01  0.88732092608E+00  0.88000000000E+00 0. -1.
        -11    1    4    4    0    0 -0.34970877617E-01  0.24088505500E-01 -0.39463518912E-01  0.57972828328E-01  0.51100000000E-03 0.  1.
         11    1    4    4    0    0 -0.55540659461E-01  0.10905350629E-01 -0.48698806204E-01  0.74669447382E-01  0.51100000000E-03 0. -1.
</event>
<event>
 8    1  0.1126414E+005  0.1043930E+01  0.7957747E-01            NaN
         13   -1    0    0    0    0  0.00000000000E+00  0.00000000000E+00  0.74505805969E-08  0.10566000000E+00  0.10566000000E+00 0.  1.
     999900   -1    0    0    0    0 -0.00000000000E+00 -0.00000000000E+00 -0.74505805969E-08  0.93827000000E+00  0.93827000000E+00 0. -1.
     999902    2    1    2    0    0 -0.11668538963E-01 -0.18683434259E-01  0.98757102925E-02  0.10197896775E+01  0.10195039142E+01 0.  0.
     999903    2    3    3    0    0  0.90183721909E-01  0.86990053056E-01 -0.11055949323E-01  0.12738903689E+00  0.20133546034E-01 0.  0.
         14    1    1    2    0    0  0.11668538963E-01  0.18683434259E-01 -0.98757102925E-02  0.24140322513E-01  0.00000000000E+00 0.  1.
     999901    1    3    3    0    0 -0.10185226087E+00 -0.10567348732E+00  0.20931659615E-01  0.89240064060E+00  0.88000000000E+00 0.  1.
        -11    1    4    4    0    0  0.39480075572E-01  0.30686195187E-01 -0.12725659891E-01  0.51599636461E-01  0.51100000000E-03 0. -1.
         11    1    4    4    0    0  0.50703646337E-01  0.56303857868E-01  0.16697105682E-02  0.75789400427E-01  0.51100000000E-03 0.  1.
</event>
<event>
 8    1  0.1126414E+005  0.1043930E+01  0.7957747E-01            NaN
         13   -1    0    0    0    0  0.00000000000E+00  0.00000000000E+00  0.74505805969E-08  0.10566000000E+00  0.10566000000E+00 0.  1.
     999900   -1    0    0    0    0 -0.00000000000E+00 -0.00000000000E+00 -0.74505805969E-08  0.93827000000E+00  0.93827000000E+00 0. -1.
     999902    2    1    2    0    0  0.18929996252E-01 -0.14257829812E-01  0.19218865766E-03  0.10202304767E+01  0.10199551746E+01 0.  0.
     999903    2    3    3    0    0  0.21741929269E-01 -0.12929101664E+00  0.48082640222E-02  0.13272732221E+00  0.20113283852E-01 0.  0.
         14    1    1    2    0    0 -0.18929996252E-01  0.14257829812E-01 -0.19218865766E-03  0.23699523318E-01  0.00000000000E+00 0.  1.
     999901    1    3    3    0    0 -0.28119330173E-02  0.11503318683E+00 -0.46160753645E-02  0.88750315447E+00  0.88000000000E+00 0.  1.
        -11    1    4    4    0    0  0.20387665773E-01 -0.68023318026E-01  0.73206724570E-02  0.71391050399E-01  0.51100000000E-03 0. -1.
         11    1    4    4    0    0  0.13542634961E-02 -0.61267698613E-01 -0.25124084348E-02  0.61336271814E-01  0.51100000000E-03 0.  1.
</event>
<event>
 8    1  0.1126414E+005  0.1043930E+01  0.7957747E-01            NaN
         13   -1    0    0    0    0  0.00000000000E+00  0.00000000000E+00  0.74505805969E-08  0.10566000000E+00  0.10566000000E+00 0. -1.
     999900   -1    0    0    0    0 -0.00000000000E+00 -0.00000000000E+00 -0.74505805969E-08  0.93827000000E+00  0.93827000000E+00 0.  1.
     999902    2    1    2    0    0  0.54724213707E-02 -0.97514032032E-03  0.23668965143E-01  0.10196170774E+01  0.10193271635E+01 0.  0.
     999903    2    3    3    0    0 -0.42086810286E-01  0.89673676518E-01  0.84177133152E-01  0.13161914559E+00  0.20618968920E-01 0.  0.
         14    1    1    2    0    0 -0.54724213707E-02  0.97514032032E-03 -0.23668965143E-01  0.24312922598E-01  0.00000000000E+00 0.  1.
     999901    1    3    3    0    0  0.47559231656E-01 -0.90648816838E-01 -0.60508168009E-01  0.88799793181E+00  0.88000000000E+00 0.  1.
        -11    1    4    4    0    0 -0.30822080745E-01  0.43956403529E-01  0.50703204033E-01  0.73846070260E-01  0.51100000000E-03 0. -1.
         11    1    4    4    0    0 -0.11264729541E-01  0.45717272989E-01  0.33473929120E-01  0.57773075329E-01  0.51100000000E-03 0.  1.
</event>
<event>
 8    1  0.1126414E+005  0.1043930E+01  0.7957747E-01            NaN
         13   -1    0    0    0    0  0.00000000000E+00  0.00000000000E+00  0.74505805969E-08  0.10566000000E+00  0.10566000000E+00 0. -1.
     999900   -1    0    0    0    0 -0.00000000000E+00 -0.00000000000E+00 -0.74505805969E-08  0.93827000000E+00  0.93827000000E+00 0. -1.
     999902    2    1    2    0    0  0.17125181210E-01 -0.15211500442E-01 -0.93277603797E-02  0.10191980633E+01  0.10188979456E+01 0.  0.
     999903    2    3    3    0    0  0.11563651860E+00 -0.41651489581E-01  0.41329759728E-01  0.13185949156E+00  0.23919144174E-01 0.  0.
         14    1    1    2    0    0 -0.17125181210E-01  0.15211500442E-01  0.93277603797E-02  0.24731936658E-01  0.00000000000E+00 0. -1.
     999901    1    3    3    0    0 -0.98511337391E-01  0.26439989140E-01 -0.50657520108E-01  0.88733857178E+00  0.88000000000E+00 0. -1.
        -11    1    4    4    0    0  0.19468326697E-01 -0.16309640029E-01  0.12508157609E-01  0.28314929454E-01  0.51100000000E-03 0. -1.
         11    1    4    4    0    0  0.96168191904E-01 -0.25341849553E-01  0.28821602119E-01  0.10354456211E+00  0.51100000000E-03 0.  1.
</event>
<event>
 8    1  0.1126414E+005  0.1043930E+01  0.7957747E-01            NaN
         13   -1    0    0    0    0  0.00000000000E+00  0.00000000000E+00  0.74505805969E-08  0.10566000000E+00  0.10566000000E+00 0.  1.
     999900   -1    0    0    0    0 -0.00000000000E+00 -0.00000000000E+00 -0.74505805969E-08  0.93827000000E+00  0.93827000000E+00 0. -1.
     999902    2    1    2    0    0 -0.34316300128E-02 -0.93701356801E-02  0.21388340822E-01  0.10203283761E+01  0.10200553703E+01 0.  0.
     999903    2    3    3    0    0  0.66420195001E-01 -0.56666362074E-01 -0.92771863270E-01  0.12895372834E+00  0.19993162404E-01 0.  0.
         14    1    1    2    0    0  0.34316300128E-02  0.93701356801E-02 -0.21388340822E-01  0.23601623892E-01  0.00000000000E+00 0. -1.
     999901    1    3    3    0    0 -0.69851825014E-01  0.47296226394E-01  0.11416020409E+00  0.89137464777E+00  0.88000000000E+00 0.  1.
        -11    1    4    4    0    0  0.38032909184E-01 -0.21749469742E-01 -0.54098150900E-01  0.69616181070E-01  0.51100000000E-03 0.  1.
         11    1    4    4    0    0  0.28387285818E-01 -0.34916892332E-01 -0.38673712370E-01  0.59337547268E-01  0.51100000000E-03 0. -1.
</event>
<event>
 8    1  0.1126414E+005  0.1043930E+01  0.7957747E-01            NaN
         13   -1    0    0    0    0  0.00000000000E+00  0.00000000000E+00  0.74505805969E-08  0.10566000000E+00  0.10566000000E+00 0.  1.
     999900   -1    0    0    0    0 -0.00000000000E+00 -0.00000000000E+00 -0.74505805969E-08  0.93827000000E+00  0.93827000000E+00 0.  1.
     999902    2    1    2    0    0  0.12556230359E-01  0.71061962398E-02 -0.19905010785E-01  0.10193461354E+01  0.10190496442E+01 0.  0.
     999903    2    3    3    0    0  0.20916518576E-01  0.12673554862E+00  0.12109134607E-01  0.13063584406E+00  0.20486399852E-01 0.  0.
         14    1    1    2    0    0 -0.12556230359E-01 -0.71061962398E-02  0.19905010785E-01  0.24583864630E-01  0.00000000000E+00 0.  1.
     999901    1    3    3    0    0 -0.83602882170E-02 -0.11962935238E+00 -0.32014145392E-01  0.88871029131E+00  0.88000000000E+00 0. -1.
        -11    1    4    4    0    0  0.61657469894E-02  0.77842759022E-01 -0.25437035522E-03  0.78088650862E-01  0.51100000000E-03 0.  1.
         11    1    4    4    0    0  0.14750771586E-01  0.48892789600E-01  0.12363504962E-01  0.52547193200E-01  0.51100000000E-03 0. -1.
</event>
<event>
 8    1  0.1126414E+005  0.1043930E+01  0.7957747E-01            NaN
         13   -1    0    0    0    0  0.00000000000E+00  0.00000000000E+00  0.74505805969E-08  0.10566000000E+00  0.10566000000E+00 0.  1.
     999900   -1    0    0    0    0 -0.00000000000E+00 -0.00000000000E+00 -0.74505805969E-08  0.93827000000E+00  0.93827000000E+00 0.  1.
     999902    2    1    2    0    0  0.26452868868E-02  0.11191591580E-01 -0.20600835029E-01  0.10203367029E+01  0.10200638919E+01 0.  0.
     999903    2    3    3    0    0  0.90635142677E-01 -0.53791978948E-01 -0.76433745603E-01  0.13180848552E+00  0.20568259524E-01 0.  0.
         14    1    1    2    0    0 -0.26452868867E-02 -0.11191591580E-01  0.20600835029E-01  0.23593297114E-01  0.00000000000E+00 0.  1.
     999901    1    3    3    0    0 -0.87989855791E-01  0.64983570527E-01  0.55832910574E-01  0.88852821737E+00  0.88000000000E+00 0. -1.
        -11    1    4    4    0    0  0.46013782447E-01 -0.17921434699E-01 -0.27696729840E-01  0.56619925481E-01  0.51100000000E-03 0. -1.
         11    1    4    4    0    0  0.44621360231E-01 -0.35870544249E-01 -0.48737015763E-01  0.75188560034E-01  0.51100000000E-03 0.  1.
</event>
<event>
 8    1  0.1126414E+005  0.1043930E+01  0.7957747E-01            NaN
         13   -1    0    0    0    0  0.00000000000E+00  0.00000000000E+00  0.74505805969E-08  0.10566000000E+00  0.10566000000E+00 0.  1.
     999900   -1    0    0    0    0 -0.00000000000E+00 -0.00000000000E+00 -0.74505805969E-08  0.93827000000E+00  0.93827000000E+00 0. -1.
     999902    2    1    2    0    0 -0.53235343003E-02 -0.99855045695E-02 -0.20717301551E-01  0.10203237105E+01  0.10200505955E+01 0.  0.
     999903    2    3    3    0    0 -0.78281628005E-01 -0.67997318942E-01 -0.81325122880E-01  0.13332790330E+00  0.20270804617E-01 0.  0.
         14    1    1    2    0    0  0.53235343003E-02  0.99855045695E-02  0.20717301551E-01  0.23606289469E-01  0.00000000000E+00 0.  1.
     999901    1    3    3    0    0  0.72958093705E-01  0.58011814372E-01  0.60607821329E-01  0.88699580723E+00  0.88000000000E+00 0.  1.
        -11    1    4    4    0    0 -0.45807779949E-01 -0.37667469120E-01 -0.58766120055E-01  0.83491969201E-01  0.51100000000E-03 0.  1.
         11    1    4    4    0    0 -0.32473848056E-01 -0.30329849822E-01 -0.22559002825E-01  0.49835934096E-01  0.51100000000E-03 0. -1.
</event>
<event>
 8    1  0.1126414E+005  0.1043930E+01  0.7957747E-01            NaN
         13   -1    0    0    0    0  0.00000000000E+00  0.00000000000E+00  0.74505805969E-08  0.10566000000E+00  0.10566000000E+00 0. -1.
     999900   -1    0    0    0    0 -0.00000000000E+00 -0.00000000000E+00 -0.74505805969E-08  0.93827000000E+00  0.93827000000E+00 0.  1.
     999902    2    1    2    0    0  0.17063374820E-01 -0.13593172703E-01  0.60106041135E-02  0.10213012469E+01  0.10210505259E+01 0.  0.
     999903    2    3    3    0    0 -0.12321217851E+00  0.13694055613E-01  0.27618811415E-01  0.12951162020E+00  0.25331658664E-01 0.  0.
         14    1    1    2    0    0 -0.17063374820E-01  0.13593172703E-01 -0.60106041135E-02  0.22628753085E-01  0.00000000000E+00 0.  1.
     999901    1    3    3    0    0  0.14027555333E+00 -0.27287228316E-01 -0.21608207301E-01  0.89178962671E+00  0.88000000000E+00 0.  1.
        -11    1    4    4    0    0 -0.60640623905E-01  0.15600822408E-01  0.23113491410E-01  0.66747026403E-01  0.51100000000E-03 0.  1.
         11    1    4    4    0    0 -0.62571554605E-01 -0.19067667952E-02  0.45053200047E-02  0.62764593798E-01  0.51100000000E-03 0. -1.
</event>
<event>
 8    1  0.1126414E+005  0.1043930E+01  0.7957747E-01            NaN
         13   -1    0    0    0    0  0.00000000000E+00  0.00000000000E+00  0.74505805969E-08  0.10566000000E+00  0.10566000000E+00 0.  1.
     999900   -1    0    0    0    0 -0.00000000000E+00 -0.00000000000E+00 -0.74505805969E-08  0.93827000000E+00  0.93827000000E+00 0. -1.
     999902    2    1    2    0    0 -0.15319553018E-02 -0.14162110866E-01 -0.19192162849E-01  0.10200291342E+01  0.10197490786E+01 0.  0.
     999903    2    3    3    0    0  0.45938554598E-01  0.69981274671E-01 -0.99079336354E-01  0.13114471025E+00  0.19351757859E-01 0.  0.
         14    1    1    2    0    0  0.15319553018E-02  0.14162110866E-01  0.19192162849E-01  0.23900865801E-01  0.00000000000E+00 0.  1.
     999901    1    3    3    0    0 -0.47470509900E-01 -0.84143385537E-01  0.79887173505E-01  0.88888442394E+00  0.88000000000E+00 0.  1.
        -11    1    4    4    0    0  0.25866284125E-01  0.46461795644E-01 -0.49146641648E-01  0.72411439809E-01  0.51100000000E-03 0. -1.
         11    1    4    4    0    0  0.20072270473E-01  0.23519479027E-01 -0.49932694706E-01  0.58733270445E-01  0.51100000000E-03 0.  1.
</event>
<event>
 8    1  0.1126414E+005  0.1043930E+01  0.7957747E-01            NaN
         13   -1    0    0    0    0  0.00000000000E+00  0.00000000000E+00  0.74505805969E-08  0.10566000000E+00  0.10566000000E+00 0. -1.
     999900   -1    0    0    0    0 -0.00000000000E+00 -0.00000000000E+00 -0.74505805969E-08  0.93827000000E+00  0.93827000000E+00 0. -1.
     999902    2    1    2    0    0  0.16069496842E-01 -0.18129685371E-01 -0.13198408582E-02  0.10196677618E+01  0.10193790700E+01 0.  0.
     999903    2    3    3    0    0 -0.42368210964E-01 -0.22683877198E-01  0.11862629388E+00  0.12959878609E+00  0.20347583927E-01 0.  0.
         14    1    1    2    0    0 -0.16069496842E-01  0.18129685371E-01  0.13198408582E-02  0.24262238155E-01  0.00000000000E+00 0.  1.
     999901    1    3    3    0    0  0.58437707805E-01  0.45541918272E-02 -0.11994613474E+00  0.89006897575E+00  0.88000000000E+00 0. -1.
        -11    1    4    4    0    0 -0.11439058986E-01 -0.16094526217E-01  0.57093345331E-01  0.60413550192E-01  0.51100000000E-03 0. -1.
         11    1    4    4    0    0 -0.30929151978E-01 -0.65893509804E-02  0.61532948551E-01  0.69185235902E-01  0.51100000000E-03 0.  1.
</event>
<event>
 8    1  0.1126414E+005  0.1043930E+01  0.7957747E-01            NaN
         13   -1    0    0    0    0  0.00000000000E+00  0.00000000000E+00  0.74505805969E-08  0.10566000000E+00  0.10566000000E+00 0. -1.
     999900   -1    0    0    0    0 -0.00000000000E+00 -0.00000000000E+00 -0.74505805969E-08  0.93827000000E+00  0.93827000000E+00 0. -1.
     999902    2    1    2    0    0  0.46979485947E-02  0.14176384055E-01 -0.17979676531E-01  0.10205567385E+01  0.10202890508E+01 0.  0.
     999903    2    3    3    0    0 -0.83126288417E-01 -0.48014953236E-01  0.81740889717E-01  0.12841042180E+00  0.24336142140E-01 0.  0.
         14    1    1    2    0    0 -0.46979485947E-02 -0.14176384055E-01  0.17979676531E-01  0.23373261519E-01  0.00000000000E+00 0. -1.
     999901    1    3    3    0    0  0.87824237011E-01  0.62191337291E-01 -0.99720566247E-01  0.89214631668E+00  0.88000000000E+00 0. -1.
        -11    1    4    4    0    0 -0.19836250297E-01 -0.47535619311E-03  0.17616193737E-01  0.26538541635E-01  0.51100000000E-03 0. -1.
         11    1    4    4    0    0 -0.63290038120E-01 -0.47539597043E-01  0.64124695979E-01  0.10187188016E+00  0.51100000000E-03 0.  1.
</event>
<event>
 8    1  0.1126414E+005  0.1043930E+01  0.7957747E-01            NaN
         13   -1    0    0    0    0  0.00000000000E+00  0.00000000000E+00  0.74505805969E-08  0.10566000000E+00  0.10566000000E+00 0.  1.
     999900   -1    0    0    0    0 -0.00000000000E+00 -0.00000000000E+00 -0.74505805969E-08  0.93827000000E+00  0.93827000000E+00 0.  1.
     999902    2    1    2    0    0  0.22340414650E-01 -0.74449954676E-02  0.53611769985E-02  0.10197791345E+01  0.10194931186E+01 0.  0.
     999903    2    3    3    0    0 -0.57560186055E-01 -0.15105535167E-01 -0.11205314560E+00  0.12835952906E+00  0.19465586286E-01 0.  0.
         14    1    1    2    0    0 -0.22340414650E-01  0.74449954676E-02 -0.53611769985E-02  0.24150865473E-01  0.00000000000E+00 0.  1.
     999901    1    3    3    0    0  0.79900600706E-01  0.76605396993E-02  0.11741432260E+00  0.89141960547E+00  0.88000000000E+00 0. -1.
        -11    1    4    4    0    0  0.38012549656E-03 -0.96168681151E-03 -0.10678525649E-01  0.10740640947E-01  0.51100000000E-03 0.  1.
         11    1    4    4    0    0 -0.57940311552E-01 -0.14143848355E-01 -0.10137461995E+00  0.11761888811E+00  0.51100000000E-03 0. -1.
</event>
<event>
 8    1  0.1126414E+005  0.1043930E+01  0.7957747E-01            NaN
         13   -1    0    0    0    0  0.00000000000E+00  0.00000000000E+00  0.74505805969E-08  0.10566000000E+00  0.10566000000E+00 0. -1.
     999900   -1    0    0    0    0 -0.00000000000E+00 -0.00000000000E+00 -0.74505805969E-08  0.93827000000E+00  0.93827000000E+00 0. -1.
     999902    2    1    2    0    0  0.12849210476E-01 -0.17609864483E-01  0.65554431679E-02  0.10211663585E+01  0.10209126057E+01 0.  0.
     999903    2    3    3    0    0 -0.61321980075E-01 -0.69685076248E-01 -0.90611783704E-01  0.13119182905E+00  0.19606263547E-01 0.  0.
         14    1    1    2    0    0 -0.12849210476E-01  0.17609864483E-01 -0.65554431679E-02  0.22763641450E-01  0.00000000000E+00 0. -1.
     999901    1    3    3    0    0  0.74171190550E-01  0.52075211765E-01  0.97167226872E-01  0.88997452950E+00  0.88000000000E+00 0. -1.
        -11    1    4    4    0    0 -0.24794852667E-01 -0.19361715653E-01 -0.40764741659E-01  0.51494524324E-01  0.51100000000E-03 0. -1.
         11    1    4    4    0    0 -0.36527127407E-01 -0.50323360595E-01 -0.49847042045E-01  0.79697304722E-01  0.51100000000E-03 0.  1.
</event>
<event>
 8    1  0.1126414E+005  0.1043930E+01  0.7957747E-01            NaN
         13   -1    0    0    0    0  0.00000000000E+00  0.00000000000E+00  0.74505805969E-08  0.10566000000E+00  0.10566000000E+00 0.  1.
     999900   -1    0    0    0    0 -0.00000000000E+00 -0.00000000000E+00 -0.74505805969E-08  0.93827000000E+00  0.93827000000E+00 0. -1.
     999902    2    1    2    0    0  0.11870950683E-02 -0.41887624342E-02  0.23676462556E-01  0.10198565747E+01  0.10195724119E+01 0.  0.
     999903    2    3    3    0    0 -0.74694053470E-01  0.62774171920E-01 -0.80319798846E-01  0.12797249836E+00  0.20146760690E-01 0.  0.
         14    1    1    2    0    0 -0.11870950683E-02  0.41887624342E-02 -0.23676462556E-01  0.24073425277E-01  0.00000000000E+00 0. -1.
     999901    1    3    3    0    0  0.75881148538E-01 -0.66962934354E-01  0.10399626140E+00  0.89188407636E+00  0.88000000000E+00 0.  1.
        -11    1    4    4    0    0 -0.57720334056E-01  0.43135558184E-01 -0.68585913904E-01  0.99481666906E-01  0.51100000000E-03 0.  1.
         11    1    4    4    0    0 -0.16973719413E-01  0.19638613736E-01 -0.11733884942E-01  0.28490831455E-01  0.51100000000E-03 0. -1.
</event>
<event>
 8    1  0.1126414E+005  0.1043930E+01  0.7957747E-01            NaN
         13   -1    0    0    0    0  0.00000000000E+00  0.00000000000E+00  0.74505805969E-08  0.10566000000E+00  0.10566000000E+00 0.  1.
     999900   -1    0    0    0    0 -0.00000000000E+00 -0.00000000000E+00 -0.74505805969E-08  0.93827000000E+00  0.93827000000E+00 0. -1.
     999902    2    1    2    0    0 -0.46966526236E-02 -0.22630272506E-01  0.54266829479E-02  0.10201889666E+01  0.10199126879E+01 0.  0.
     999903    2    3    3    0    0 -0.89827580020E-01 -0.96763553765E-01 -0.12490554943E-02  0.13295304324E+00  0.15581145620E-01 0.  0.
         14    1    1    2    0    0  0.46966526236E-02  0.22630272506E-01 -0.54266829479E-02  0.23741033410E-01  0.00000000000E+00 0. -1.
     999901    1    3    3    0    0  0.85130927397E-01  0.74133281259E-01  0.66757384422E-02  0.88723592334E+00  0.88000000000E+00 0.  1.
        -11    1    4    4    0    0 -0.15899364715E-01 -0.22863905608E-01  0.47243636576E-02  0.28251171851E-01  0.51100000000E-03 0.  1.
         11    1    4    4    0    0 -0.73928215305E-01 -0.73899648158E-01 -0.59734191519E-02  0.10470187139E+00  0.51100000000E-03 0. -1.
</event>
<event>
 8    1  0.1126414E+005  0.1043930E+01  0.7957747E-01            NaN
         13   -1    0    0    0    0  0.00000000000E+00  0.00000000000E+00  0.74505805969E-08  0.10566000000E+00  0.10566000000E+00 0.  1.
     999900   -1    0    0    0    0 -0.00000000000E+00 -0.00000000000E+00 -0.74505805969E-08  0.93827000000E+00  0.93827000000E+00 0.  1.
     999902    2    1    2    0    0  0.17780675183E-01 -0.82507662236E-02  0.95452118673E-02  0.10221277381E+01  0.10218951876E+01 0.  0.
     999903    2    3    3    0    0  0.40004877947E-01  0.10901626587E+00 -0.58684688393E-01  0.13145339175E+00  0.18739398790E-01 0.  0.
         14    1    1    2    0    0 -0.17780675183E-01  0.82507662236E-02 -0.95452118673E-02  0.21802261874E-01  0.00000000000E+00 0. -1.
     999901    1    3    3    0    0 -0.22224202764E-01 -0.11726703209E+00  0.68229900261E-01  0.89067434638E+00  0.88000000000E+00 0. -1.
        -11    1    4    4    0    0  0.20928099116E-01  0.74478276700E-01 -0.45990857385E-01  0.90002328397E-01  0.51100000000E-03 0.  1.
         11    1    4    4    0    0  0.19076778830E-01  0.34537989169E-01 -0.12693831008E-01  0.41451063352E-01  0.51100000000E-03 0. -1.
</event>
<event>
 8    1  0.1126414E+005  0.1043930E+01  0.7957747E-01            NaN
         13   -1    0    0    0    0  0.00000000000E+00  0.00000000000E+00  0.74505805969E-08  0.10566000000E+00  0.10566000000E+00 0.  1.
     999900   -1    0    0    0    0 -0.00000000000E+00 -0.00000000000E+00 -0.74505805969E-08  0.93827000000E+00  0.93827000000E+00 0.  1.
     999902    2    1    2    0    0  0.16953215646E-01 -0.58836660664E-02 -0.14896478739E-01  0.10206076046E+01  0.10203410942E+01 0.  0.
     999903    2    3    3    0    0 -0.41112873144E-01  0.11191466079E+00 -0.48670791003E-01  0.13022071083E+00  0.19324285053E-01 0.  0.
         14    1    1    2    0    0 -0.16953215646E-01  0.58836660664E-02  0.14896478739E-01  0.23322395373E-01  0.00000000000E+00 0. -1.
     999901    1    3    3    0    0  0.58066088791E-01 -0.11779832686E+00  0.33774312265E-01  0.89038689380E+00  0.88000000000E+00 0. -1.
        -11    1    4    4    0    0 -0.16655555617E-01  0.69615619663E-01 -0.33678569455E-01  0.79109096794E-01  0.51100000000E-03 0. -1.
         11    1    4    4    0    0 -0.24457317527E-01  0.42299041132E-01 -0.14992221548E-01  0.51111614035E-01  0.51100000000E-03 0.  1.
</event>
<event>
 8    1  0.1126414E+005  0.1043930E+01  0.7957747E-01            NaN
         13   -1    0    0    0    0  0.00000000000E+00  0.00000000000E+00  0.74505805969E-08  0.10566000000E+00  0.10566000000E+00 0. -1.
     999900   -1    0    0    0    0 -0.00000000000E+00 -0.00000000000E+00 -0.74505805969E-08  0.93827000000E+00  0.93827000000E+00 0.  1.
     999902    2    1    2    0    0  0.40765135215E-04 -0.24376490699E-01  0.17835264945E-02  0.10194883158E+01  0.10191952856E+01 0.  0.
     999903    2    3    3    0    0 -0.75189889912E-01 -0.34345758346E-01  0.99523300549E-01  0.13083084454E+00  0.19459493074E-01 0.  0.
         14    1    1    2    0    0 -0.40765135215E-04  0.24376490699E-01 -0.17835264945E-02  0.24441684217E-01  0.00000000000E+00 0. -1.
     999901    1    3    3    0    0  0.75230655047E-01  0.99692676468E-02 -0.97739774055E-01  0.88865747124E+00  0.88000000000E+00 0.  1.
        -11    1    4    4    0    0 -0.54187836190E-01 -0.30607135812E-01  0.63173492694E-01  0.88680717485E-01  0.51100000000E-03 0.  1.
         11    1    4    4    0    0 -0.21002053722E-01 -0.37386225342E-02  0.36349807855E-01  0.42150127059E-01  0.51100000000E-03 0. -1.
</event>
<event>
 8    1  0.1126414E+005  0.1043930E+01  0.7957747E-01            NaN
         13   -1    0    0    0    0  0.00000000000E+00  0.00000000000E+00  0.74505805969E-08  0.10566000000E+00  0.10566000000E+00 0. -1.
     999900   -1    0    0    0    0 -0.00000000000E+00 -0.00000000000E+00 -0.74505805969E-08  0.93827000000E+00  0.93827000000E+00 0.  1.
     999902    2    1    2    0    0  0.17638038575E-01  0.14191791549E-01  0.44452469974E-02  0.10208590752E+01  0.10205983460E+01 0.  0.
     999903    2    3    3    0    0  0.70657868876E-01 -0.15277555649E-01 -0.10828501368E+00  0.13159665242E+00  0.19133650969E-01 0.  0.
         14    1    1    2    0    0 -0.17638038575E-01 -0.14191791549E-01 -0.44452469974E-02  0.23070924841E-01  0.00000000000E+00 0.  1.
     999901    1    3    3    0    0 -0.53019830300E-01  0.29469347199E-01  0.11273026067E+00  0.88926242274E+00  0.88000000000E+00 0. -1.
        -11    1    4    4    0    0  0.49731760122E-01 -0.10891981287E-01 -0.59372022319E-01  0.78212411908E-01  0.51100000000E-03 0. -1.
         11    1    4    4    0    0  0.20926108754E-01 -0.43855743618E-02 -0.48912991359E-01  0.53384240509E-01  0.51100000000E-03 0.  1.
</event>
<event>
 8    1  0.1126414E+005  0.1043930E+01  0.7957747E-01            NaN
         13   -1    0    0    0    0  0.00000000000E+00  0.00000000000E+00  0.74505805969E-08  0.10566000000E+00  0.10566000000E+00 0.  1.
     999900   -1    0    0    0    0 -0.00000000000E+00 -0.00000000000E+00 -0.74505805969E-08  0.93827000000E+00  0.93827000000E+00 0.  1.
     999902    2    1    2    0    0 -0.19601693564E-01 -0.12957573516E-02  0.18492782375E-01  0.10169505935E+01  0.10165926525E+01 0.  0.
     999903    2    3    3    0    0  0.83008534849E-01  0.90925439306E-01  0.21493056265E-01  0.12619663768E+00  0.17486781361E-01 0.  0.
         14    1    1    2    0    0  0.19601693564E-01  0.12957573516E-02 -0.18492782375E-01  0.26979406548E-01  0.00000000000E+00 0. -1.
     999901    1    3    3    0    0 -0.10261022841E+00 -0.92221196658E-01 -0.30002738897E-02  0.89075395578E+00  0.88000000000E+00 0. -1.
        -11    1    4    4    0    0  0.31687718843E-01  0.47539973543E-01  0.10810148859E-01  0.58148783730E-01  0.51100000000E-03 0.  1.
         11    1    4    4    0    0  0.51320816006E-01  0.43385465763E-01  0.10682907405E-01  0.68047853945E-01  0.51100000000E-03 0. -1.
</event>
<event>
 8    1  0.1126414E+005  0.1043930E+01  0.7957747E-01            NaN
         13   -1    0    0    0    0  0.00000000000E+00  0.00000000000E+00  0.74505805969E-08  0.10566000000E+00  0.10566000000E+00 0. -1.
     999900   -1    0    0    0    0 -0.00000000000E+00 -0.00000000000E+00 -0.74505805969E-08  0.93827000000E+00  0.93827000000E+00 0. -1.
     999902    2    1    2    0    0  0.83296108592E-02 -0.14375466163E-02 -0.22506330369E-01  0.10198887050E+01  0.10196053093E+01 0.  0.
     999903    2    3    3    0    0 -0.11911302909E+00 -0.46086391945E-01  0.20285962860E-02  0.12925010913E+00  0.19738446898E-01 0.  0.
         14    1    1    2    0    0 -0.83296108592E-02  0.14375466163E-02  0.22506330369E-01  0.24041294974E-01  0.00000000000E+00 0. -1.
     999901    1    3    3    0    0  0.12744263995E+00  0.44648845328E-01 -0.24534926655E-01  0.89063859589E+00  0.88000000000E+00 0. -1.
        -11    1    4    4    0    0 -0.80994230524E-01 -0.21256875927E-01  0.14404716743E-02  0.83751156601E-01  0.51100000000E-03 0.  1.
         11    1    4    4    0    0 -0.38118798570E-01 -0.24829516017E-01  0.58812461170E-03  0.45498952533E-01  0.51100000000E-03 0. -1.
</event>
<event>
 8    1  0.1126414E+005  0.1043930E+01  0.7957747E-01            NaN
         13   -1    0    0    0    0  0.00000000000E+00  0.00000000000E+00  0.74505805969E-08  0.10566000000E+00  0.10566000000E+00 0. -1.
     999900   -1    0    0    0    0 -0.00000000000E+00 -0.00000000000E+00 -0.74505805969E-08  0.93827000000E+00  0.93827000000E+00 0. -1.
     999902    2    1    2    0    0  0.20748435078E-01  0.11632166844E-01  0.81663932488E-03  0.10201293327E+01  0.10198516479E+01 0.  0.
     999903    2    3    3    0    0 -0.48639997248E-01  0.11557158664E+00  0.29394533677E-01  0.13084037316E+00  0.23076474326E-01 0.  0.
         14    1    1    2    0    0 -0.20748435078E-01 -0.11632166844E-01 -0.81663932488E-03  0.23800667290E-01  0.00000000000E+00 0. -1.
     999901    1    3    3    0    0  0.69388432326E-01 -0.10393941980E+00 -0.28577894352E-01  0.88928895955E+00  0.88000000000E+00 0. -1.
        -11    1    4    4    0    0 -0.34512909027E-02  0.14654177760E-01  0.11219067373E-01  0.18782569804E-01  0.51100000000E-03 0. -1.
         11    1    4    4    0    0 -0.45188706346E-01  0.10091740888E+00  0.18175466304E-01  0.11205780336E+00  0.51100000000E-03 0.  1.
</event>
<event>
 8    1  0.1126414E+005  0.1043930E+01  0.7957747E-01            NaN
         13   -1    0    0    0    0  0.00000000000E+00  0.00000000000E+00  0.74505805969E-08  0.10566000000E+00  0.10566000000E+00 0. -1.
     999900   -1    0    0    0    0 -0.00000000000E+00 -0.00000000000E+00 -0.74505805969E-08  0.93827000000E+00  0.93827000000E+00 0. -1.
     999902    2    1    2    0    0 -0.11247109494E-01 -0.17203861432E-01  0.82494023883E-02  0.10217822471E+01  0.10215421858E+01 0.  0.
     999903    2    3    3    0    0 -0.72619458000E-01  0.74963533411E-01 -0.76145859157E-01  0.13083670777E+00  0.20662410566E-01 0.  0.
         14    1    1    2    0    0  0.11247109494E-01  0.17203861432E-01 -0.82494023883E-02  0.22147752931E-01  0.00000000000E+00 0. -1.
     999901    1    3    3    0    0  0.61372348507E-01 -0.92167394843E-01  0.84395261545E-01  0.89094553930E+00  0.88000000000E+00 0. -1.
        -11    1    4    4    0    0 -0.46505654170E-01  0.61138469433E-01 -0.56278946017E-01  0.95227460326E-01  0.51100000000E-03 0.  1.
         11    1    4    4    0    0 -0.26113803830E-01  0.13825063978E-01 -0.19866913140E-01  0.35609247439E-01  0.51100000000E-03 0. -1.
</event>
<event>
 8    1  0.1126414E+005  0.1043930E+01  0.7957747E-01            NaN
         13   -1    0    0    0    0  0.00000000000E+00  0.00000000000E+00  0.74505805969E-08  0.10566000000E+00  0.10566000000E+00 0. -1.
     999900   -1    0    0    0    0 -0.00000000000E+00 -0.00000000000E+00 -0.74505805969E-08  0.93827000000E+00  0.93827000000E+00 0. -1.
     999902    2    1    2    0    0 -0.14857338558E-01 -0.18700130506E-01  0.16589385341E-02  0.10199886661E+01  0.10197076501E+01 0.  0.
     999903    2    3    3    0    0 -0.11304132607E+00  0.37078226740E-01  0.52280536340E-01  0.13133020154E+00  0.19006079512E-01 0.  0.
         14    1    1    2    0    0  0.14857338558E-01  0.18700130506E-01 -0.16589385341E-02  0.23941333860E-01  0.00000000000E+00 0. -1.
     999901    1    3    3    0    0  0.98183987513E-01 -0.55778357246E-01 -0.50621597806E-01  0.88865846460E+00  0.88000000000E+00 0. -1.
        -11    1    4    4    0    0 -0.10042733207E+00  0.38876076104E-01  0.45783567104E-01  0.11701877823E+00  0.51100000000E-03 0. -1.
         11    1    4    4    0    0 -0.12613994003E-01 -0.17978493637E-02  0.64969692359E-02  0.14311423314E-01  0.51100000000E-03 0.  1.
</event>
<event>
 8    1  0.1126414E+005  0.1043930E+01  0.7957747E-01            NaN
         13   -1    0    0    0    0  0.00000000000E+00  0.00000000000E+00  0.74505805969E-08  0.10566000000E+00  0.10566000000E+00 0. -1.
     999900   -1    0    0    0    0 -0.00000000000E+00 -0.00000000000E+00 -0.74505805969E-08  0.93827000000E+00  0.93827000000E+00 0.  1.
     999902    2    1    2    0    0 -0.46462005028E-02  0.17540034766E-01  0.13776340711E-01  0.10211478236E+01  0.10208936527E+01 0.  0.
     999903    2    3    3    0    0 -0.12609916980E+00  0.91656529631E-02  0.33956969086E-01  0.13253755368E+00  0.20691002116E-01 0.  0.
         14    1    1    2    0    0  0.46462005028E-02 -0.17540034766E-01 -0.13776340711E-01  0.22782176413E-01  0.00000000000E+00 0.  1.
     999901    1    3    3    0    0  0.12145296929E+00  0.83743818032E-02 -0.20180628375E-01  0.88861026991E+00  0.88000000000E+00 0.  1.
        -11    1    4    4    0    0 -0.15230174277E-01 -0.53734291267E-02  0.22841524994E-02  0.16319020275E-01  0.51100000000E-03 0. -1.
         11    1    4    4    0    0 -0.11086899552E+00  0.14539082090E-01  0.31672816586E-01  0.11621853341E+00  0.51100000000E-03 0.  1.
</event>
<event>
 8    1  0.1126414E+005  0.1043930E+01  0.7957747E-01            NaN
         13   -1    0    0    0    0  0.00000000000E+00  0.00000000000E+00  0.74505805969E-08  0.10566000000E+00  0.10566000000E+00 0. -1.
     999900   -1    0    0    0    0 -0.00000000000E+00 -0.00000000000E+00 -0.74505805969E-08  0.93827000000E+00  0.93827000000E+00 0. -1.
     999902    2    1    2    0    0  0.17894176866E-01 -0.15110116183E-01 -0.66706043547E-02  0.10195781184E+01  0.10192872634E+01 0.  0.
     999903    2    3    3    0    0  0.98210785069E-01 -0.85819338609E-01  0.29765349449E-02  0.13304350596E+00  0.26103592383E-01 0.  0.
         14    1    1    2    0    0 -0.17894176866E-01  0.15110116183E-01  0.66706043547E-02  0.24351881637E-01  0.00000000000E+00 0.  1.
     999901    1    3    3    0    0 -0.80316608203E-01  0.70709222425E-01 -0.96471392996E-02  0.88653461240E+00  0.88000000000E+00 0. -1.
        -11    1    4    4    0    0  0.41922383144E-01 -0.43970641307E-01 -0.10395304907E-01  0.61637869776E-01  0.51100000000E-03 0. -1.
         11    1    4    4    0    0  0.56288401924E-01 -0.41848697302E-01  0.13371839852E-01  0.71405636185E-01  0.51100000000E-03 0.  1.
</event>
<event>
 8    1  0.1126414E+005  0.1043930E+01  0.7957747E-01            NaN
         13   -1    0    0    0    0  0.00000000000E+00  0.00000000000E+00  0.74505805969E-08  0.10566000000E+00  0.10566000000E+00 0. -1.
     999900   -1    0    0    0    0 -0.00000000000E+00 -0.00000000000E+00 -0.74505805969E-08  0.93827000000E+00  0.93827000000E+00 0.  1.
     999902    2    1    2    0    0 -0.11396300300E-01 -0.12930325676E-02 -0.20682663883E-01  0.10202800491E+01  0.10200059109E+01 0.  0.
     999903    2    3    3    0    0 -0.43942576252E-01 -0.96467746027E-01 -0.77468959530E-01  0.13273164502E+00  0.19474954874E-01 0.  0.
         14    1    1    2    0    0  0.11396300300E-01  0.12930325676E-02  0.20682663883E-01  0.23649950931E-01  0.00000000000E+00 0. -1.
     999901    1    3    3    0    0  0.32546275952E-01  0.95174713459E-01  0.56786295647E-01  0.88754840405E+00  0.88000000000E+00 0. -1.
        -11    1    4    4    0    0 -0.23287315016E-01 -0.63366651893E-01 -0.58560943396E-01  0.89371566090E-01  0.51100000000E-03 0.  1.
         11    1    4    4    0    0 -0.20655261236E-01 -0.33101094134E-01 -0.18908016133E-01  0.43360078928E-01  0.51100000000E-03 0. -1.
</event>
<event>
 8    1  0.1126414E+005  0.1043930E+01  0.7957747E-01            NaN
         13   -1    0    0    0    0  0.00000000000E+00  0.00000000000E+00  0.74505805969E-08  0.10566000000E+00  0.10566000000E+00 0. -1.
     999900   -1    0    0    0    0 -0.00000000000E+00 -0.00000000000E+00 -0.74505805969E-08  0.93827000000E+00  0.93827000000E+00 0.  1.
     999902    2    1    2    0    0 -0.14664595328E-01 -0.16070263719E-01  0.10609166474E-01  0.10197254933E+01  0.10194381901E+01 0.  0.
     999903    2    3    3    0    0  0.10660861628E+00 -0.65729750896E-01 -0.22870681182E-01  0.12939175995E+00  0.23094637185E-01 0.  0.
         14    1    1    2    0    0  0.14664595328E-01  0.16070263719E-01 -0.10609166474E-01  0.24204506716E-01  0.00000000000E+00 0.  1.
     999901    1    3    3    0    0 -0.12127321161E+00  0.49659487177E-01  0.33479847656E-01  0.89033373334E+00  0.88000000000E+00 0. -1.
        -11    1    4    4    0    0  0.82202222807E-01 -0.43723921438E-01 -0.84193289315E-02  0.93488678250E-01  0.51100000000E-03 0.  1.
         11    1    4    4    0    0  0.24406393471E-01 -0.22005829458E-01 -0.14451352251E-01  0.35903081696E-01  0.51100000000E-03 0. -1.
</event>
<event>
 8    1  0.1126414E+005  0.1043930E+01  0.7957747E-01            NaN
         13   -1    0    0    0    0  0.00000000000E+00  0.00000000000E+00  0.74505805969E-08  0.10566000000E+00  0.10566000000E+00 0.  1.
     999900   -1    0    0    0    0 -0.00000000000E+00 -0.00000000000E+00 -0.74505805969E-08  0.93827000000E+00  0.93827000000E+00 0.  1.
     999902    2    1    2    0    0 -0.15426608587E-01  0.57649268769E-02  0.16278290007E-01  0.10207740643E+01  0.10205113879E+01 0.  0.
     999903    2    3    3    0    0 -0.15510114739E-01  0.28505524789E-01  0.12786134577E+00  0.13343651851E+00  0.20091095702E-01 0.  0.
         14    1    1    2    0    0  0.15426608587E-01 -0.57649268769E-02 -0.16278290007E-01  0.23155935739E-01  0.00000000000E+00 0. -1.
     999901    1    3    3    0    0  0.83506151488E-04 -0.22740597912E-01 -0.11158305576E+00  0.88733754575E+00  0.88000000000E+00 0.  1.
        -11    1    4    4    0    0  0.24931613697E-02  0.13607748522E-02  0.33228576044E-01  0.33353664697E-01  0.51100000000E-03 0.  1.
         11    1    4    4    0    0 -0.18003276108E-01  0.27144749937E-01  0.94632769728E-01  0.10008285381E+00  0.51100000000E-03 0. -1.
</event>
<event>
 8    1  0.1126414E+005  0.1043930E+01  0.7957747E-01            NaN
         13   -1    0    0    0    0  0.00000000000E+00  0.00000000000E+00  0.74505805969E-08  0.10566000000E+00  0.10566000000E+00 0.  1.
     999900   -1    0    0    0    0 -0.00000000000E+00 -0.00000000000E+00 -0.74505805969E-08  0.93827000000E+00  0.93827000000E+00 0. -1.
     999902    2    1    2    0    0 -0.17796787215E-01 -0.15903105720E-01 -0.10263666109E-02  0.10200409264E+01  0.10197611504E+01 0.  0.
     999903    2    3    3    0    0  0.11109415723E+00 -0.35308134253E-01  0.51086108326E-01  0.12891515489E+00  0.20512205636E-01 0.  0.
         14    1    1    2    0    0  0.17796787215E-01  0.15903105720E-01  0.10263666109E-02  0.23889073551E-01  0.00000000000E+00 0.  1.
     999901    1    3    3    0    0 -0.12889094445E+00  0.19405028534E-01 -0.52112474937E-01  0.89112577156E+00  0.88000000000E+00 0. -1.
        -11    1    4    4    0    0  0.12775178239E-01 -0.11461810668E-01  0.82387125349E-02  0.19045098794E-01  0.51100000000E-03 0.  1.
         11    1    4    4    0    0  0.98318978996E-01 -0.23846323585E-01  0.42847395791E-01  0.10987005610E+00  0.51100000000E-03 0. -1.
</event>
<event>
 8    1  0.1126414E+005  0.1043930E+01  0.7957747E-01            NaN
         13   -1    0    0    0    0  0.00000000000E+00  0.00000000000E+00  0.74505805969E-08  0.10566000000E+00  0.10566000000E+00 0.  1.
     999900   -1    0    0    0    0 -0.00000000000E+00 -0.00000000000E+00 -0.74505805969E-08  0.93827000000E+00  0.93827000000E+00 0.  1.
     999902    2    1    2    0    0  0.51834047396E-02 -0.20424329366E-01  0.10392645611E-01  0.10204347239E+01  0.10201642014E+01 0.  0.
     999903    2    3    3    0    0  0.43921956585E-01  0.88409113579E-02  0.12254103990E+00  0.13198979483E+00  0.19942404459E-01 0.  0.
         14    1    1    2    0    0 -0.51834047396E-02  0.20424329366E-01 -0.10392645611E-01  0.23495276068E-01  0.00000000000E+00 0. -1.
     999901    1    3    3    0    0 -0.38738551846E-01 -0.29265240724E-01 -0.11214839428E+00  0.88844492911E+00  0.88000000000E+00 0.  1.
        -11    1    4    4    0    0  0.28216590188E-02  0.64188694603E-02  0.28046357001E-01  0.28914060711E-01  0.51100000000E-03 0.  1.
         11    1    4    4    0    0  0.41100297566E-01  0.24220418977E-02  0.94494682894E-01  0.10307573411E+00  0.51100000000E-03 0. -1.
</event>
<event>
 8    1  0.1126414E+005  0.1043930E+01  0.7957747E-01            NaN
         13   -1    0    0    0    0  0.00000000000E+00  0.00000000000E+00  0.74505805969E-08  0.10566000000E+00  0.10566000000E+00 0.  1.
     999900   -1    0    0    0    0 -0.00000000000E+00 -0.00000000000E+00 -0.74505805969E-08  0.93827000000E+00  0.93827000000E+00 0. -1.
     999902    2    1    2    0    0 -0.13359062643E-01  0.16744270528E-01  0.97939069237E-02  0.10203767462E+01  0.10201048713E+01 0.  0.
     999903    2    3    3    0    0  0.80067829747E-01 -0.87353788962E-01  0.44528891443E-01  0.12865284874E+00  0.22960651325E-01 0.  0.
         14    1    1    2    0    0  0.13359062643E-01 -0.16744270528E-01 -0.97939069237E-02  0.23553253768E-01  0.00000000000E+00 0. -1.
     999901    1    3    3    0    0 -0.93426892390E-01  0.10409805949E+00 -0.34734984519E-01  0.89172389749E+00  0.88000000000E+00 0.  1.
        -11    1    4    4    0    0  0.58728204122E-01 -0.69423470901E-01  0.24043854831E-01  0.94058430496E-01  0.51100000000E-03 0. -1.
         11    1    4    4    0    0  0.21339625625E-01 -0.17930318061E-01  0.20485036612E-01  0.34594418243E-01  0.51100000000E-03 0.  1.
</event>
<event>
 8    1  0.1126414E+005  0.1043930E+01  0.7957747E-01            NaN
         13   -1    0    0    0    0  0.00000000000E+00  0.00000000000E+00  0.74505805969E-08  0.10566000000E+00  0.10566000000E+00 0. -1.
     999900   -1    0    0    0    0 -0.00000000000E+00 -0.00000000000E+00 -0.74505805969E-08  0.93827000000E+00  0.93827000000E+00 0. -1.
     999902    2    1    2    0    0 -0.16526784985E-01 -0.10342083121E-01 -0.13117017085E-01  0.10204321396E+01  0.10201615569E+01 0.  0.
     999903    2    3    3    0    0  0.27153670079E-01  0.84553908256E-01  0.90460469174E-01  0.12822054645E+00  0.19254268299E-01 0.  0.
         14    1    1    2    0    0  0.16526784985E-01  0.10342083121E-01  0.13117017085E-01  0.23497860380E-01  0.00000000000E+00 0. -1.
     999901    1    3    3    0    0 -0.43680455064E-01 -0.94895991377E-01 -0.10357748626E+00  0.89221159317E+00  0.88000000000E+00 0. -1.
        -11    1    4    4    0    0  0.12181354567E-01  0.20462750502E-01  0.15278839185E-01  0.28298650233E-01  0.51100000000E-03 0.  1.
         11    1    4    4    0    0  0.14972315513E-01  0.64091157754E-01  0.75181629988E-01  0.99921896213E-01  0.51100000000E-03 0. -1.
</event>
<event>
 8    1  0.1126414E+005  0.1043930E+01  0.7957747E-01            NaN
         13   -1    0    0    0    0  0.00000000000E+00  0.00000000000E+00  0.74505805969E-08  0.10566000000E+00  0.10566000000E+00 0.  1.
     999900   -1    0    0    0    0 -0.00000000000E+00 -0.00000000000E+00 -0.74505805969E-08  0.93827000000E+00  0.93827000000E+00 0. -1.
     999902    2    1    2    0    0 -0.20857287733E-01 -0.27953756929E-02 -0.11185110981E-01  0.10200983554E+01  0.10198199387E+01 0.  0.
     999903    2    3    3    0    0  0.80085327249E-01 -0.23596391960E-01  0.94669849979E-01  0.12778262285E+00  0.19888912797E-01 0.  0.
         14    1    1    2    0    0  0.20857287733E-01  0.27953756929E-02  0.11185110981E-01  0.23831644604E-01  0.00000000000E+00 0.  1.
     999901    1    3    3    0    0 -0.10094261498E+00  0.20801016267E-01 -0.10585496096E+00  0.89231573255E+00  0.88000000000E+00 0. -1.
        -11    1    4    4    0    0  0.68673169641E-01 -0.16691212366E-01  0.68592985450E-01  0.98487865104E-01  0.51100000000E-03 0.  1.
         11    1    4    4    0    0  0.11412157608E-01 -0.69051795944E-02  0.26076864529E-01  0.29294757742E-01  0.51100000000E-03 0. -1.
</event>
<event>
 8    1  0.1126414E+005  0.1043930E+01  0.7957747E-01            NaN
         13   -1    0    0    0    0  0.00000000000E+00  0.00000000000E+00  0.74505805969E-08  0.10566000000E+00  0.10566000000E+00 0.  1.
     999900   -1    0    0    0    0 -0.00000000000E+00 -0.00000000000E+00 -0.74505805969E-08  0.93827000000E+00  0.93827000000E+00 0. -1.
     999902    2    1    2    0    0 -0.20702006598E-01 -0.59468008253E-03 -0.35058662606E-02  0.10229248145E+01  0.10227091269E+01 0.  0.
     999903    2    3    3    0    0 -0.45394034944E-01  0.85036434961E-01  0.90038285350E-01  0.13349078518E+00  0.20520312382E-01 0.  0.
         14    1    1    2    0    0  0.20702006598E-01  0.59468008253E-03  0.35058662606E-02  0.21005185546E-01  0.00000000000E+00 0.  1.
     999901    1    3    3    0    0  0.24692028346E-01 -0.85631115044E-01 -0.93544151611E-01  0.88943402927E+00  0.88000000000E+00 0. -1.
        -11    1    4    4    0    0 -0.45104145734E-01  0.68596424563E-01  0.74487657526E-01  0.11085362272E+00  0.51100000000E-03 0.  1.
         11    1    4    4    0    0 -0.28988921020E-03  0.16440010398E-01  0.15550627824E-01  0.22637162463E-01  0.51100000000E-03 0. -1.
</event>
<event>
 8    1  0.1126414E+005  0.1043930E+01  0.7957747E-01            NaN
         13   -1    0    0    0    0  0.00000000000E+00  0.00000000000E+00  0.74505805969E-08  0.10566000000E+00  0.10566000000E+00 0. -1.
     999900   -1    0    0    0    0 -0.00000000000E+00 -0.00000000000E+00 -0.74505805969E-08  0.93827000000E+00  0.93827000000E+00 0. -1.
     999902    2    1    2    0    0 -0.58456170106E-02  0.10061459815E-01 -0.17960613611E-01  0.10225293492E+01  0.10223053762E+01 0.  0.
     999903    2    3    3    0    0 -0.66260589652E-01 -0.69821302916E-01  0.86229612092E-01  0.13074079367E+00  0.19802248532E-01 0.  0.
         14    1    1    2    0    0  0.58456170106E-02 -0.10061459815E-01  0.17960613611E-01  0.21400650764E-01  0.00000000000E+00 0. -1.
     999901    1    3    3    0    0  0.60414972641E-01  0.79882762730E-01 -0.10419022570E+00  0.89178855556E+00  0.88000000000E+00 0. -1.
        -11    1    4    4    0    0 -0.27540290729E-01 -0.28193991693E-01  0.22697187610E-01  0.45483977700E-01  0.51100000000E-03 0.  1.
         11    1    4    4    0    0 -0.38720298923E-01 -0.41627311223E-01  0.63532424482E-01  0.85256815974E-01  0.51100000000E-03 0. -1.
</event>
<event>
 8    1  0.1126414E+005  0.1043930E+01  0.7957747E-01            NaN
         13   -1    0    0    0    0  0.00000000000E+00  0.00000000000E+00  0.74505805969E-08  0.10566000000E+00  0.10566000000E+00 0.  1.
     999900   -1    0    0    0    0 -0.00000000000E+00 -0.00000000000E+00 -0.74505805969E-08  0.93827000000E+00  0.93827000000E+00 0. -1.
     999902    2    1    2    0    0  0.13874307014E-01 -0.18671002693E-01 -0.92226212925E-02  0.10189068211E+01  0.10185995046E+01 0.  0.
     999903    2    3    3    0    0 -0.10000815052E+00  0.73089475966E-01  0.15076328962E-01  0.12650576861E+00  0.20801733770E-01 0.  0.
         14    1    1    2    0    0 -0.13874307014E-01  0.18671002693E-01  0.92226212925E-02  0.25023178859E-01  0.00000000000E+00 0. -1.
     999901    1    3    3    0    0  0.11388245754E+00 -0.91760478659E-01 -0.24298950255E-01  0.89240105253E+00  0.88000000000E+00 0.  1.
        -11    1    4    4    0    0 -0.81976212054E-01  0.64766874851E-01  0.19176059398E-01  0.10622066558E+00  0.51100000000E-03 0.  1.
         11    1    4    4    0    0 -0.18031938470E-01  0.83226011154E-02 -0.40997304356E-02  0.20285103031E-01  0.51100000000E-03 0. -1.
</event>
<event>
 8    1  0.1126414E+005  0.1043930E+01  0.7957747E-01            NaN
         13   -1    0    0    0    0  0.00000000000E+00  0.00000000000E+00  0.74505805969E-08  0.10566000000E+00  0.10566000000E+00 0. -1.
     999900   -1    0    0    0    0 -0.00000000000E+00 -0.00000000000E+00 -0.74505805969E-08  0.93827000000E+00  0.93827000000E+00 0.  1.
     999902    2    1    2    0    0 -0.47707593189E-02  0.99291503360E-02  0.21311901022E-01  0.10199394749E+01  0.10196572890E+01 0.  0.
     999903    2    3    3    0    0 -0.11541655202E+00 -0.51767041492E-01 -0.21374728037E-01  0.12984337903E+00  0.20040384565E-01 0.  0.
         14    1    1    2    0    0  0.47707593189E-02 -0.99291503360E-02 -0.21311901022E-01  0.23990525131E-01  0.00000000000E+00 0.  1.
     999901    1    3    3    0    0  0.11064579270E+00  0.61696191828E-01  0.42686629060E-01  0.89009609584E+00  0.88000000000E+00 0.  1.
        -11    1    4    4    0    0 -0.38877315738E-01 -0.95672568626E-02 -0.78749311925E-03  0.40048212810E-01  0.51100000000E-03 0. -1.
         11    1    4    4    0    0 -0.76539236284E-01 -0.42199784630E-01 -0.20587234918E-01  0.89795166219E-01  0.51100000000E-03 0.  1.
</event>
<event>
 8    1  0.1126414E+005  0.1043930E+01  0.7957747E-01            NaN
         13   -1    0    0    0    0  0.00000000000E+00  0.00000000000E+00  0.74505805969E-08  0.10566000000E+00  0.10566000000E+00 0. -1.
     999900   -1    0    0    0    0 -0.00000000000E+00 -0.00000000000E+00 -0.74505805969E-08  0.93827000000E+00  0.93827000000E+00 0. -1.
     999902    2    1    2    0    0 -0.41915432271E-02  0.62706105461E-02  0.23052991336E-01  0.10196744851E+01  0.10193859552E+01 0.  0.
     999903    2    3    3    0    0  0.21797727957E-02  0.10058605322E+00 -0.78212688325E-01  0.12883738765E+00  0.18961601496E-01 0.  0.
         14    1    1    2    0    0  0.41915432271E-02 -0.62706105461E-02 -0.23052991336E-01  0.24255514853E-01  0.00000000000E+00 0.  1.
     999901    1    3    3    0    0 -0.63713160228E-02 -0.94315442670E-01  0.10126567966E+00  0.89083709749E+00  0.88000000000E+00 0.  1.
        -11    1    4    4    0    0 -0.20484946860E-02  0.94202960624E-01 -0.68681221596E-01  0.11660088096E+00  0.51100000000E-03 0. -1.
         11    1    4    4    0    0  0.42282674818E-02  0.63830925918E-02 -0.95314667290E-02  0.12236506689E-01  0.51100000000E-03 0.  1.
</event>
<event>
 7    1  0.1126414E+005  0.1043930E+01  0.7957747E-01            NaN
         13   -1    0    0    0    0  0.00000000000E+00  0.00000000000E+00  0.74505805969E-08  0.10566000000E+00  0.10566000000E+00 0. -1.
     999900   -1    0    0    0    0 -0.00000000000E+00 -0.00000000000E+00 -0.74505805969E-08  0.93827000000E+00  0.93827000000E+00 0. -1.
     999903    2    1    2    0    0  0.49786835570E-01  0.70774990077E-01 -0.59694654027E-01  0.10679518261E+00  0.18813056466E-01 0.  0.
         14    1    1    2    0    0  0.46073580054E-01 -0.12463434018E-01  0.89418178371E-02  0.48559943088E-01  0.00000000000E+00 0. -1.
     999901    1    1    2    0    0 -0.95860415623E-01 -0.58311556059E-01  0.50752836190E-01  0.88857487430E+00  0.88000000000E+00 0. -1.
        -11    1    3    3    0    0 -0.77759422559E-03  0.54296706068E-02 -0.14273824603E-02  0.56907396151E-02  0.51100000000E-03 0.  1.
         11    1    3    3    0    0  0.50564429795E-01  0.65345319470E-01 -0.58267271567E-01  0.10110444300E+00  0.51100000000E-03 0. -1.
</event>
<event>
 8    1  0.1126414E+005  0.1043930E+01  0.7957747E-01            NaN
         13   -1    0    0    0    0  0.00000000000E+00  0.00000000000E+00  0.74505805969E-08  0.10566000000E+00  0.10566000000E+00 0.  1.
     999900   -1    0    0    0    0 -0.00000000000E+00 -0.00000000000E+00 -0.74505805969E-08  0.93827000000E+00  0.93827000000E+00 0. -1.
     999902    2    1    2    0    0  0.22472422926E-01 -0.70598838685E-02 -0.47198759556E-02  0.10199064911E+01  0.10196235195E+01 0.  0.
     999903    2    3    3    0    0 -0.70713099647E-01 -0.90817593322E-01 -0.56395234980E-01  0.12953059391E+00  0.18696911818E-01 0.  0.
         14    1    1    2    0    0 -0.22472422926E-01  0.70598838685E-02  0.47198759556E-02  0.24023508933E-01  0.00000000000E+00 0.  1.
     999901    1    3    3    0    0  0.93185522573E-01  0.83757709453E-01  0.51675359024E-01  0.89037589716E+00  0.88000000000E+00 0.  1.
        -11    1    4    4    0    0 -0.59387808754E-01 -0.70780993061E-01 -0.37379737187E-01  0.99671293161E-01  0.51100000000E-03 0. -1.
         11    1    4    4    0    0 -0.11325290893E-01 -0.20036600261E-01 -0.19015497793E-01  0.29859300748E-01  0.51100000000E-03 0.  1.
</event>
<event>
 8    1  0.1126414E+005  0.1043930E+01  0.7957747E-01            NaN
         13   -1    0    0    0    0  0.00000000000E+00  0.00000000000E+00  0.74505805969E-08  0.10566000000E+00  0.10566000000E+00 0. -1.
     999900   -1    0    0    0    0 -0.00000000000E+00 -0.00000000000E+00 -0.74505805969E-08  0.93827000000E+00  0.93827000000E+00 0. -1.
     999902    2    1    2    0    0 -0.16687703437E-01 -0.15265619307E-01 -0.58153755291E-02  0.10205775446E+01  0.10203103388E+01 0.  0.
     999903    2    3    3    0    0  0.10823025664E+00 -0.50548079535E-02  0.67867051398E-01  0.12864825515E+00  0.14321220295E-01 0.  0.
         14    1    1    2    0    0  0.16687703437E-01  0.15265619307E-01  0.58153755291E-02  0.23352455361E-01  0.00000000000E+00 0. -1.
     999901    1    3    3    0    0 -0.12491796008E+00 -0.10210811353E-01 -0.73682426927E-01  0.89192928949E+00  0.88000000000E+00 0. -1.
        -11    1    4    4    0    0  0.22934240646E-01 -0.66968696311E-03  0.21579359546E-01  0.31501710335E-01  0.51100000000E-03 0. -1.
         11    1    4    4    0    0  0.85296015995E-01 -0.43851209904E-02  0.46287691852E-01  0.97146544810E-01  0.51100000000E-03 0.  1.
</event>
<event>
 8    1  0.1126414E+005  0.1043930E+01  0.7957747E-01            NaN
         13   -1    0    0    0    0  0.00000000000E+00  0.00000000000E+00  0.74505805969E-08  0.10566000000E+00  0.10566000000E+00 0.  1.
     999900   -1    0    0    0    0 -0.00000000000E+00 -0.00000000000E+00 -0.74505805969E-08  0.93827000000E+00  0.93827000000E+00 0.  1.
     999902    2    1    2    0    0 -0.17376922523E-02 -0.15205252080E-01 -0.15308443175E-01  0.10222835754E+01  0.10220543727E+01 0.  0.
     999903    2    3    3    0    0 -0.26736261174E-01 -0.12737319783E+00  0.24070659913E-01  0.13393832143E+00  0.20526034515E-01 0.  0.
         14    1    1    2    0    0  0.17376922523E-02  0.15205252080E-01  0.15308443175E-01  0.21646424593E-01  0.00000000000E+00 0.  1.
     999901    1    3    3    0    0  0.24998568921E-01  0.11216794575E+00 -0.39379103088E-01  0.88834525398E+00  0.88000000000E+00 0.  1.
        -11    1    4    4    0    0 -0.13728569558E-01 -0.10081486609E+00  0.14062415129E-01  0.10271379405E+00  0.51100000000E-03 0.  1.
         11    1    4    4    0    0 -0.13007691615E-01 -0.26558331737E-01  0.10008244784E-01  0.31224527386E-01  0.51100000000E-03 0. -1.
</event>
<event>
 8    1  0.1126414E+005  0.1043930E+01  0.7957747E-01            NaN
         13   -1    0    0    0    0  0.00000000000E+00  0.00000000000E+00  0.74505805969E-08  0.10566000000E+00  0.10566000000E+00 0.  1.
     999900   -1    0    0    0    0 -0.00000000000E+00 -0.00000000000E+00 -0.74505805969E-08  0.93827000000E+00  0.93827000000E+00 0. -1.
     999902    2    1    2    0    0  0.57912440151E-02  0.19170579288E-01  0.11077978091E-01  0.10210439515E+01  0.10207874312E+01 0.  0.
     999903    2    3    3    0    0 -0.83063630246E-01  0.10133722258E+00 -0.14473534060E-01  0.13239361209E+00  0.12238708513E-01 0.  0.
         14    1    1    2    0    0 -0.57912440151E-02 -0.19170579288E-01 -0.11077978091E-01  0.22886048503E-01  0.00000000000E+00 0. -1.
     999901    1    3    3    0    0  0.88854874261E-01 -0.82166643287E-01  0.25551512152E-01  0.88865033940E+00  0.88000000000E+00 0.  1.
        -11    1    4    4    0    0 -0.80032230214E-01  0.95119036312E-01 -0.11482031422E-01  0.12483944532E+00  0.51100000000E-03 0.  1.
         11    1    4    4    0    0 -0.30314000313E-02  0.62181862637E-02 -0.29915026387E-02  0.75541667706E-02  0.51100000000E-03 0. -1.
</event>
<event>
 8    1  0.1126414E+005  0.1043930E+01  0.7957747E-01            NaN
         13   -1    0    0    0    0  0.00000000000E+00  0.00000000000E+00  0.74505805969E-08  0.10566000000E+00  0.10566000000E+00 0. -1.
     999900   -1    0    0    0    0 -0.00000000000E+00 -0.00000000000E+00 -0.74505805969E-08  0.93827000000E+00  0.93827000000E+00 0.  1.
     999902    2    1    2    0    0 -0.15815281600E-01  0.14933180917E-01 -0.10561101983E-01  0.10197502585E+01  0.10194635500E+01 0.  0.
     999903    2    3    3    0    0  0.68185677749E-01 -0.10472164894E+00 -0.16667673763E-01  0.12766801469E+00  0.20134552877E-01 0.  0.
         14    1    1    2    0    0  0.15815281600E-01 -0.14933180917E-01  0.10561101983E-01  0.24179741510E-01  0.00000000000E+00 0.  1.
     999901    1    3    3    0    0 -0.84000959349E-01  0.11965482986E+00  0.61065717796E-02  0.89208224380E+00  0.88000000000E+00 0. -1.
        -11    1    4    4    0    0  0.26879665738E-01 -0.34278415783E-01 -0.14717913665E-01  0.45982652408E-01  0.51100000000E-03 0. -1.
         11    1    4    4    0    0  0.41306012011E-01 -0.70443233159E-01 -0.19497600977E-02  0.81685362285E-01  0.51100000000E-03 0.  1.
</event>
<event>
 8    1  0.1126414E+005  0.1043930E+01  0.7957747E-01            NaN
         13   -1    0    0    0    0  0.00000000000E+00  0.00000000000E+00  0.74505805969E-08  0.10566000000E+00  0.10566000000E+00 0. -1.
     999900   -1    0    0    0    0 -0.00000000000E+00 -0.00000000000E+00 -0.74505805969E-08  0.93827000000E+00  0.93827000000E+00 0. -1.
     999902    2    1    2    0    0 -0.21076925539E-01  0.21169676873E-04  0.70389020573E-02  0.10217087628E+01  0.10214670884E+01 0.  0.
     999903    2    3    3    0    0  0.10074158881E+00  0.77407673088E-01 -0.16707909892E-01  0.12963683053E+00  0.19640214088E-01 0.  0.
         14    1    1    2    0    0  0.21076925539E-01 -0.21169676873E-04 -0.70389020573E-02  0.22221237151E-01  0.00000000000E+00 0. -1.
     999901    1    3    3    0    0 -0.12181851435E+00 -0.77386503411E-01  0.23746811949E-01  0.89207193232E+00  0.88000000000E+00 0. -1.
        -11    1    4    4    0    0  0.48314447140E-01  0.47130772069E-01 -0.30179749250E-02  0.67564523027E-01  0.51100000000E-03 0. -1.
         11    1    4    4    0    0  0.52427141667E-01  0.30276901020E-01 -0.13689934967E-01  0.62072307506E-01  0.51100000000E-03 0.  1.
</event>
<event>
 8    1  0.1126414E+005  0.1043930E+01  0.7957747E-01            NaN
         13   -1    0    0    0    0  0.00000000000E+00  0.00000000000E+00  0.74505805969E-08  0.10566000000E+00  0.10566000000E+00 0. -1.
     999900   -1    0    0    0    0 -0.00000000000E+00 -0.00000000000E+00 -0.74505805969E-08  0.93827000000E+00  0.93827000000E+00 0. -1.
     999902    2    1    2    0    0 -0.79699715993E-02  0.16089880644E-01  0.16177732014E-01  0.10197613484E+01  0.10194749060E+01 0.  0.
     999903    2    3    3    0    0 -0.41208256279E-01 -0.39759629205E-01 -0.11281914576E+00  0.12798551010E+00  0.19317935888E-01 0.  0.
         14    1    1    2    0    0  0.79699715993E-02 -0.16089880644E-01 -0.16177732014E-01  0.24168651587E-01  0.00000000000E+00 0. -1.
     999901    1    3    3    0    0  0.33238284679E-01  0.55849509849E-01  0.12899687777E+00  0.89177583831E+00  0.88000000000E+00 0.  1.
        -11    1    4    4    0    0 -0.22960779803E-01 -0.34367937899E-01 -0.74483691005E-01  0.85184704680E-01  0.51100000000E-03 0. -1.
         11    1    4    4    0    0 -0.18247476475E-01 -0.53916913056E-02 -0.38335454752E-01  0.42800805423E-01  0.51100000000E-03 0.  1.
</event>
<event>
 8    1  0.1126414E+005  0.1043930E+01  0.7957747E-01            NaN
         13   -1    0    0    0    0  0.00000000000E+00  0.00000000000E+00  0.74505805969E-08  0.10566000000E+00  0.10566000000E+00 0. -1.
     999900   -1    0    0    0    0 -0.00000000000E+00 -0.00000000000E+00 -0.74505805969E-08  0.93827000000E+00  0.93827000000E+00 0.  1.
     999902    2    1    2    0    0 -0.18188140862E-02 -0.11844825750E-01 -0.26111933941E-01  0.10151995096E+01  0.10147928869E+01 0.  0.
     999903    2    3    3    0    0 -0.10402126847E+00 -0.16758809859E-01 -0.70089914235E-01  0.12818003316E+00  0.20402029837E-01 0.  0.
         14    1    1    2    0    0  0.18188140862E-02  0.11844825750E-01  0.26111933941E-01  0.28730490352E-01  0.00000000000E+00 0. -1.
     999901    1    3    3    0    0  0.10220245438E+00  0.49139841093E-02  0.43977980295E-01  0.88701947649E+00  0.88000000000E+00 0. -1.
        -11    1    4    4    0    0 -0.55864994834E-01 -0.13470047455E-01 -0.27086273142E-01  0.63531623149E-01  0.51100000000E-03 0. -1.
         11    1    4    4    0    0 -0.48156273633E-01 -0.32887624043E-02 -0.43003641094E-01  0.64648410009E-01  0.51100000000E-03 0.  1.
</event>
<event>
 8    1  0.1126414E+005  0.1043930E+01  0.7957747E-01            NaN
         13   -1    0    0    0    0  0.00000000000E+00  0.00000000000E+00  0.74505805969E-08  0.10566000000E+00  0.10566000000E+00 0. -1.
     999900   -1    0    0    0    0 -0.00000000000E+00 -0.00000000000E+00 -0.74505805969E-08  0.93827000000E+00  0.93827000000E+00 0.  1.
     999902    2    1    2    0    0  0.15403973055E-01 -0.18082319506E-01  0.66910018518E-02  0.10192516255E+01  0.10189528222E+01 0.  0.
     999903    2    3    3    0    0 -0.19338834125E-01  0.32709411549E-01 -0.12063224443E+00  0.12796150903E+00  0.19445135285E-01 0.  0.
         14    1    1    2    0    0 -0.15403973055E-01  0.18082319506E-01 -0.66910018518E-02  0.24678374549E-01  0.00000000000E+00 0. -1.
     999901    1    3    3    0    0  0.34742807180E-01 -0.50791731055E-01  0.12732324628E+00  0.89129011643E+00  0.88000000000E+00 0. -1.
        -11    1    4    4    0    0 -0.21097377862E-01  0.17746138819E-01 -0.80501571452E-01  0.85092825331E-01  0.51100000000E-03 0. -1.
         11    1    4    4    0    0  0.17585437370E-02  0.14963272730E-01 -0.40130672979E-01  0.42868683694E-01  0.51100000000E-03 0.  1.
</event>
<event>
 8    1  0.1126414E+005  0.1043930E+01  0.7957747E-01            NaN
         13   -1    0    0    0    0  0.00000000000E+00  0.00000000000E+00  0.74505805969E-08  0.10566000000E+00  0.10566000000E+00 0.  1.
     999900   -1    0    0    0    0 -0.00000000000E+00 -0.00000000000E+00 -0.74505805969E-08  0.93827000000E+00  0.93827000000E+00 0.  1.
     999902    2    1    2    0    0 -0.40624041863E-02  0.18075868341E-01 -0.14800996536E-01  0.10202169310E+01  0.10199413104E+01 0.  0.
     999903    2    3    3    0    0  0.11459457638E+00  0.12283462378E-01 -0.58833761055E-01  0.13114330334E+00  0.21315585573E-01 0.  0.
         14    1    1    2    0    0  0.40624041863E-02 -0.18075868341E-01  0.14800996536E-01  0.23713069023E-01  0.00000000000E+00 0. -1.
     999901    1    3    3    0    0 -0.11865698056E+00  0.57924059623E-02  0.44032764519E-01  0.88907362763E+00  0.88000000000E+00 0. -1.
        -11    1    4    4    0    0  0.97718072675E-01  0.16352440334E-01 -0.55136201302E-01  0.11338644472E+00  0.51100000000E-03 0. -1.
         11    1    4    4    0    0  0.16876503704E-01 -0.40689779557E-02 -0.36975597531E-02  0.17756858618E-01  0.51100000000E-03 0.  1.
</event>
<event>
 8    1  0.1126414E+005  0.1043930E+01  0.7957747E-01            NaN
         13   -1    0    0    0    0  0.00000000000E+00  0.00000000000E+00  0.74505805969E-08  0.10566000000E+00  0.10566000000E+00 0.  1.
     999900   -1    0    0    0    0 -0.00000000000E+00 -0.00000000000E+00 -0.74505805969E-08  0.93827000000E+00  0.93827000000E+00 0. -1.
     999902    2    1    2    0    0 -0.18921888892E-01 -0.33596951030E-02 -0.91262738624E-02  0.10226552660E+01  0.10224339484E+01 0.  0.
     999903    2    3    3    0    0  0.69538667137E-01 -0.28011904108E-01 -0.10734184673E+00  0.13244220158E+00  0.19959250989E-01 0.  0.
         14    1    1    2    0    0  0.18921888892E-01  0.33596951030E-02  0.91262738624E-02  0.21274733959E-01  0.00000000000E+00 0. -1.
     999901    1    3    3    0    0 -0.88460556029E-01  0.24652209005E-01  0.98215572872E-01  0.89021306446E+00  0.88000000000E+00 0.  1.
        -11    1    4    4    0    0  0.34112705974E-02 -0.56615543671E-02 -0.17194370989E-01  0.18428170817E-01  0.51100000000E-03 0. -1.
         11    1    4    4    0    0  0.66127396540E-01 -0.22350349741E-01 -0.90147475746E-01  0.11401403076E+00  0.51100000000E-03 0.  1.
</event>
<event>
 8    1  0.1126414E+005  0.1043930E+01  0.7957747E-01            NaN
         13   -1    0    0    0    0  0.00000000000E+00  0.00000000000E+00  0.74505805969E-08  0.10566000000E+00  0.10566000000E+00 0. -1.
     999900   -1    0    0    0    0 -0.00000000000E+00 -0.00000000000E+00 -0.74505805969E-08  0.93827000000E+00  0.93827000000E+00 0.  1.
     999902    2    1    2    0    0 -0.65350714865E-02  0.16351221664E-01 -0.15887797016E-01  0.10202130925E+01  0.10199373816E+01 0.  0.
     999903    2    3    3    0    0  0.52705046398E-01 -0.26780729869E-01  0.11178464001E+00  0.12798553853E+00  0.19734815015E-01 0.  0.
         14    1    1    2    0    0  0.65350714865E-02 -0.16351221664E-01  0.15887797016E-01  0.23716907540E-01  0.00000000000E+00 0. -1.
     999901    1    3    3    0    0 -0.59240117885E-01  0.43131951532E-01 -0.12767243702E+00  0.89222755393E+00  0.88000000000E+00 0.  1.
        -11    1    4    4    0    0  0.37348492274E-01 -0.28166339903E-01  0.80573966030E-01  0.93170154564E-01  0.51100000000E-03 0.  1.
         11    1    4    4    0    0  0.15356554124E-01  0.13856100340E-02  0.31210673979E-01  0.34815383970E-01  0.51100000000E-03 0. -1.
</event>
<event>
 8    1  0.1126414E+005  0.1043930E+01  0.7957747E-01            NaN
         13   -1    0    0    0    0  0.00000000000E+00  0.00000000000E+00  0.74505805969E-08  0.10566000000E+00  0.10566000000E+00 0.  1.
     999900   -1    0    0    0    0 -0.00000000000E+00 -0.00000000000E+00 -0.74505805969E-08  0.93827000000E+00  0.93827000000E+00 0. -1.
     999902    2    1    2    0    0  0.14765413500E-02  0.15003003761E-01 -0.18417146639E-01  0.10201295465E+01  0.10198518667E+01 0.  0.
     999903    2    3    3    0    0  0.63943407310E-01  0.10842115880E+00  0.35244367670E-01  0.13136151200E+00  0.13029749444E-01 0.  0.
         14    1    1    2    0    0 -0.14765413500E-02 -0.15003003761E-01  0.18417146639E-01  0.23800453494E-01  0.00000000000E+00 0.  1.
     999901    1    3    3    0    0 -0.62466865960E-01 -0.93418155035E-01 -0.53661514309E-01  0.88876803450E+00  0.88000000000E+00 0. -1.
        -11    1    4    4    0    0  0.20270471122E-01  0.36942568099E-01  0.18072869887E-01  0.45853408643E-01  0.51100000000E-03 0.  1.
         11    1    4    4    0    0  0.43672936188E-01  0.71478590697E-01  0.17171497783E-01  0.85508103361E-01  0.51100000000E-03 0. -1.
</event>
<event>
 8    1  0.1126414E+005  0.1043930E+01  0.7957747E-01            NaN
         13   -1    0    0    0    0  0.00000000000E+00  0.00000000000E+00  0.74505805969E-08  0.10566000000E+00  0.10566000000E+00 0.  1.
     999900   -1    0    0    0    0 -0.00000000000E+00 -0.00000000000E+00 -0.74505805969E-08  0.93827000000E+00  0.93827000000E+00 0.  1.
     999902    2    1    2    0    0 -0.28064195860E-02  0.23112386389E-01 -0.41333784564E-02  0.10202837907E+01  0.10200097403E+01 0.  0.
     999903    2    3    3    0    0  0.35004512186E-01 -0.66391861751E-01 -0.10331625600E+00  0.12939775975E+00  0.20888664223E-01 0.  0.
         14    1    1    2    0    0  0.28064195860E-02 -0.23112386389E-01  0.41333784564E-02  0.23646209273E-01  0.00000000000E+00 0.  1.
     999901    1    3    3    0    0 -0.37810931772E-01  0.89504248140E-01  0.99182877547E-01  0.89088603098E+00  0.88000000000E+00 0. -1.
        -11    1    4    4    0    0  0.32125323416E-01 -0.40279307797E-01 -0.71589902459E-01  0.88203368963E-01  0.51100000000E-03 0. -1.
         11    1    4    4    0    0  0.28791887706E-02 -0.26112553954E-01 -0.31726353544E-01  0.41194390785E-01  0.51100000000E-03 0.  1.
</event>
<event>
 8    1  0.1126414E+005  0.1043930E+01  0.7957747E-01            NaN
         13   -1    0    0    0    0  0.00000000000E+00  0.00000000000E+00  0.74505805969E-08  0.10566000000E+00  0.10566000000E+00 0. -1.
     999900   -1    0    0    0    0 -0.00000000000E+00 -0.00000000000E+00 -0.74505805969E-08  0.93827000000E+00  0.93827000000E+00 0.  1.
     999902    2    1    2    0    0  0.13531849884E-01  0.18027946604E-01  0.90171217536E-02  0.10196518966E+01  0.10193628225E+01 0.  0.
     999903    2    3    3    0    0 -0.12283745630E+00 -0.23641443339E-01  0.17841190625E-01  0.12813028165E+00  0.21239173202E-01 0.  0.
         14    1    1    2    0    0 -0.13531849884E-01 -0.18027946604E-01 -0.90171217536E-02  0.24278103401E-01  0.00000000000E+00 0.  1.
     999901    1    3    3    0    0  0.13636930619E+00  0.41669389943E-01 -0.88240688715E-02  0.89152161495E+00  0.88000000000E+00 0.  1.
        -11    1    4    4    0    0 -0.97795605059E-01 -0.12982401256E-01  0.20558602264E-01  0.10077420483E+00  0.51100000000E-03 0.  1.
         11    1    4    4    0    0 -0.25041851246E-01 -0.10659042083E-01 -0.27174116392E-02  0.27356076819E-01  0.51100000000E-03 0. -1.
</event>
<event>
 8    1  0.1126414E+005  0.1043930E+01  0.7957747E-01            NaN
         13   -1    0    0    0    0  0.00000000000E+00  0.00000000000E+00  0.74505805969E-08  0.10566000000E+00  0.10566000000E+00 0. -1.
     999900   -1    0    0    0    0 -0.00000000000E+00 -0.00000000000E+00 -0.74505805969E-08  0.93827000000E+00  0.93827000000E+00 0. -1.
     999902    2    1    2    0    0 -0.11275388523E-01  0.23583628289E-01  0.51672919472E-02  0.10172837467E+01  0.10169347071E+01 0.  0.
     999903    2    3    3    0    0 -0.57109491298E-01  0.35855627613E-01 -0.10787426229E+00  0.12878514796E+00  0.20040904274E-01 0.  0.
         14    1    1    2    0    0  0.11275388523E-01 -0.23583628289E-01 -0.51672919472E-02  0.26646253315E-01  0.00000000000E+00 0.  1.
     999901    1    3    3    0    0  0.45834102774E-01 -0.12271999324E-01  0.11304155424E+00  0.88849859872E+00  0.88000000000E+00 0.  1.
        -11    1    4    4    0    0 -0.50191931048E-01  0.38113530156E-01 -0.95543208943E-01  0.11445801422E+00  0.51100000000E-03 0.  1.
         11    1    4    4    0    0 -0.69175602503E-02 -0.22579025424E-02 -0.12331053346E-01  0.14327133744E-01  0.51100000000E-03 0. -1.
</event>
<event>
 8    1  0.1126414E+005  0.1043930E+01  0.7957747E-01            NaN
         13   -1    0    0    0    0  0.00000000000E+00  0.00000000000E+00  0.74505805969E-08  0.10566000000E+00  0.10566000000E+00 0.  1.
     999900   -1    0    0    0    0 -0.00000000000E+00 -0.00000000000E+00 -0.74505805969E-08  0.93827000000E+00  0.93827000000E+00 0.  1.
     999902    2    1    2    0    0  0.95990425712E-02 -0.13773030453E-02 -0.21169364628E-01  0.10206452286E+01  0.10203795872E+01 0.  0.
     999903    2    3    3    0    0  0.71643409119E-01 -0.87044414538E-01  0.62850306770E-01  0.13033760612E+00  0.18116907421E-01 0.  0.
         14    1    1    2    0    0 -0.95990425712E-02  0.13773030453E-02  0.21169364628E-01  0.23284771434E-01  0.00000000000E+00 0.  1.
     999901    1    3    3    0    0 -0.62044366548E-01  0.85667111493E-01 -0.84019671398E-01  0.89030762245E+00  0.88000000000E+00 0.  1.
        -11    1    4    4    0    0  0.54986485088E-01 -0.67311096663E-01  0.56734442658E-01  0.10379477531E+00  0.51100000000E-03 0. -1.
         11    1    4    4    0    0  0.16656924031E-01 -0.19733317874E-01  0.61158641124E-02  0.26542830809E-01  0.51100000000E-03 0.  1.
</event>
<event>
 8    1  0.1126414E+005  0.1043930E+01  0.7957747E-01            NaN
         13   -1    0    0    0    0  0.00000000000E+00  0.00000000000E+00  0.74505805969E-08  0.10566000000E+00  0.10566000000E+00 0. -1.
     999900   -1    0    0    0    0 -0.00000000000E+00 -0.00000000000E+00 -0.74505805969E-08  0.93827000000E+00  0.93827000000E+00 0.  1.
     999902    2    1    2    0    0 -0.14218982738E-01 -0.22693994229E-02  0.18661871839E-01  0.10203589350E+01  0.10200866440E+01 0.  0.
     999903    2    3    3    0    0 -0.83231569118E-01  0.44568122185E-02 -0.97851218950E-01  0.12997515297E+00  0.19269718936E-01 0.  0.
         14    1    1    2    0    0  0.14218982738E-01  0.22693994229E-02 -0.18661871839E-01  0.23571064982E-01  0.00000000000E+00 0.  1.
     999901    1    3    3    0    0  0.69012586380E-01 -0.67262116414E-02  0.11651309079E+00  0.89038378204E+00  0.88000000000E+00 0. -1.
        -11    1    4    4    0    0 -0.46606335392E-01  0.95875449925E-02 -0.64640149752E-01  0.80266316713E-01  0.51100000000E-03 0.  1.
         11    1    4    4    0    0 -0.36625233725E-01 -0.51307327740E-02 -0.33211069197E-01  0.49708836261E-01  0.51100000000E-03 0. -1.
</event>
<event>
 8    1  0.1126414E+005  0.1043930E+01  0.7957747E-01            NaN
         13   -1    0    0    0    0  0.00000000000E+00  0.00000000000E+00  0.74505805969E-08  0.10566000000E+00  0.10566000000E+00 0. -1.
     999900   -1    0    0    0    0 -0.00000000000E+00 -0.00000000000E+00 -0.74505805969E-08  0.93827000000E+00  0.93827000000E+00 0. -1.
     999902    2    1    2    0    0 -0.46050599528E-02 -0.22370359410E-01  0.52802253442E-02  0.10204881499E+01  0.10202188705E+01 0.  0.
     999903    2    3    3    0    0  0.46497537771E-01  0.10789155887E+00 -0.46592812471E-01  0.12792417184E+00  0.19776098522E-01 0.  0.
         14    1    1    2    0    0  0.46050599528E-02  0.22370359410E-01 -0.52802253442E-02  0.23441850119E-01  0.00000000000E+00 0. -1.
     999901    1    3    3    0    0 -0.51102597724E-01 -0.13026191828E+00  0.51873037816E-01  0.89256397804E+00  0.88000000000E+00 0.  1.
        -11    1    4    4    0    0  0.31812602480E-01  0.49374015695E-01 -0.20861496918E-01  0.62332160857E-01  0.51100000000E-03 0.  1.
         11    1    4    4    0    0  0.14684935292E-01  0.58517543172E-01 -0.25731315554E-01  0.65592010981E-01  0.51100000000E-03 0. -1.
</event>
<event>
 8    1  0.1159495E+005  0.1043930E+01  0.7957747E-01            NaN
         13   -1    0    0    0    0  0.00000000000E+00  0.00000000000E+00  0.74505805969E-08  0.10566000000E+00  0.10566000000E+00 0. -1.
     999900   -1    0    0    0    0 -0.00000000000E+00 -0.00000000000E+00 -0.74505805969E-08  0.93827000000E+00  0.93827000000E+00 0.  1.
     999902    2    1    2    0    0  0.84202313001E-04  0.20311963566E-02  0.26114777119E-01  0.10177362139E+01  0.10173990793E+01 0.  0.
     999903    2    3    3    0    0  0.24401115055E-01 -0.10752821941E+00 -0.58612561987E-01  0.12657219987E+00  0.20672614077E-01 0.  0.
         14    1    1    2    0    0 -0.84202313001E-04 -0.20311963566E-02 -0.26114777119E-01  0.26193786145E-01  0.00000000000E+00 0.  1.
     999901    1    3    3    0    0 -0.24316912742E-01  0.10955941576E+00  0.84727339106E-01  0.89116401398E+00  0.88000000000E+00 0.  1.
        -11    1    4    4    0    0  0.14821461422E-01 -0.52741003001E-01 -0.17875292235E-01  0.57628780220E-01  0.51100000000E-03 0. -1.
         11    1    4    4    0    0  0.95796536332E-02 -0.54787216406E-01 -0.40737269753E-01  0.68943419651E-01  0.51100000000E-03 0.  1.
</event>
<event>
 8    1  0.1126414E+005  0.1043930E+01  0.7957747E-01            NaN
         13   -1    0    0    0    0  0.00000000000E+00  0.00000000000E+00  0.74505805969E-08  0.10566000000E+00  0.10566000000E+00 0.  1.
     999900   -1    0    0    0    0 -0.00000000000E+00 -0.00000000000E+00 -0.74505805969E-08  0.93827000000E+00  0.93827000000E+00 0.  1.
     999902    2    1    2    0    0  0.20417706898E-03  0.57405473069E-02 -0.23588713572E-01  0.10196519651E+01  0.10193628926E+01 0.  0.
     999903    2    3    3    0    0  0.34207932412E-01 -0.16324084569E-01  0.11972185721E+00  0.12713808672E+00  0.19852244873E-01 0.  0.
         14    1    1    2    0    0 -0.20417706898E-03 -0.57405473069E-02  0.23588713572E-01  0.24278034922E-01  0.00000000000E+00 0.  1.
     999901    1    3    3    0    0 -0.34003755343E-01  0.22064631875E-01 -0.14331057078E+00  0.89251387835E+00  0.88000000000E+00 0.  1.
        -11    1    4    4    0    0  0.93239596402E-02 -0.39683951357E-02  0.11187887403E-01  0.15103454203E-01  0.51100000000E-03 0.  1.
         11    1    4    4    0    0  0.24883972772E-01 -0.12355689433E-01  0.10853396980E+00  0.11203463252E+00  0.51100000000E-03 0. -1.
</event>
<event>
 8    1  0.1126414E+005  0.1043930E+01  0.7957747E-01            NaN
         13   -1    0    0    0    0  0.00000000000E+00  0.00000000000E+00  0.74505805969E-08  0.10566000000E+00  0.10566000000E+00 0. -1.
     999900   -1    0    0    0    0 -0.00000000000E+00 -0.00000000000E+00 -0.74505805969E-08  0.93827000000E+00  0.93827000000E+00 0.  1.
     999902    2    1    2    0    0  0.18168069420E-01  0.13214060932E-02 -0.14997948769E-01  0.10203341672E+01  0.10200612968E+01 0.  0.
     999903    2    3    3    0    0 -0.96884376736E-01 -0.82054232009E-01 -0.94300941404E-02  0.12891980593E+00  0.20295571896E-01 0.  0.
         14    1    1    2    0    0 -0.18168069420E-01 -0.13214060932E-02  0.14997948769E-01  0.23595832847E-01  0.00000000000E+00 0. -1.
     999901    1    3    3    0    0  0.11505244616E+00  0.83375638102E-01 -0.55678546282E-02  0.89141436123E+00  0.88000000000E+00 0. -1.
        -11    1    4    4    0    0 -0.50697392928E-01 -0.30389099603E-01 -0.11132089367E-02  0.59120414237E-01  0.51100000000E-03 0.  1.
         11    1    4    4    0    0 -0.46186983808E-01 -0.51665132406E-01 -0.83168852037E-02  0.69799391690E-01  0.51100000000E-03 0. -1.
</event>
<event>
 8    1  0.1126414E+005  0.1043930E+01  0.7957747E-01            NaN
         13   -1    0    0    0    0  0.00000000000E+00  0.00000000000E+00  0.74505805969E-08  0.10566000000E+00  0.10566000000E+00 0. -1.
     999900   -1    0    0    0    0 -0.00000000000E+00 -0.00000000000E+00 -0.74505805969E-08  0.93827000000E+00  0.93827000000E+00 0.  1.
     999902    2    1    2    0    0 -0.13504906182E-01  0.15695080988E-01  0.11399059028E-01  0.10202940823E+01  0.10200202732E+01 0.  0.
     999903    2    3    3    0    0  0.82111487794E-01  0.31419382437E-01 -0.92140179574E-01  0.12894110936E+00  0.20162414823E-01 0.  0.
         14    1    1    2    0    0  0.13504906182E-01 -0.15695080988E-01 -0.11399059028E-01  0.23635917688E-01  0.00000000000E+00 0.  1.
     999901    1    3    3    0    0 -0.95616393977E-01 -0.15724301449E-01  0.10353923860E+00  0.89135297295E+00  0.88000000000E+00 0. -1.
        -11    1    4    4    0    0  0.71021560476E-01  0.22643033262E-01 -0.67698752406E-01  0.10069831779E+00  0.51100000000E-03 0. -1.
         11    1    4    4    0    0  0.11089927319E-01  0.87763491754E-02 -0.24441427169E-01  0.28242791573E-01  0.51100000000E-03 0.  1.
</event>
<event>
 8    1  0.1126414E+005  0.1043930E+01  0.7957747E-01            NaN
         13   -1    0    0    0    0  0.00000000000E+00  0.00000000000E+00  0.74505805969E-08  0.10566000000E+00  0.10566000000E+00 0. -1.
     999900   -1    0    0    0    0 -0.00000000000E+00 -0.00000000000E+00 -0.74505805969E-08  0.93827000000E+00  0.93827000000E+00 0.  1.
     999902    2    1    2    0    0  0.70067796520E-02  0.55374110805E-02 -0.19793969978E-01  0.10222145877E+01  0.10219839061E+01 0.  0.
     999903    2    3    3    0    0 -0.66813635160E-01 -0.46903110706E-01 -0.10388441082E+00  0.13358043117E+00  0.19692565674E-01 0.  0.
         14    1    1    2    0    0 -0.70067796520E-02 -0.55374110805E-02  0.19793969978E-01  0.21715412270E-01  0.00000000000E+00 0. -1.
     999901    1    3    3    0    0  0.73820414812E-01  0.52440521787E-01  0.84090440840E-01  0.88863415656E+00  0.88000000000E+00 0. -1.
        -11    1    4    4    0    0 -0.27105757935E-01 -0.11724607168E-01 -0.26037723740E-01  0.39375280380E-01  0.51100000000E-03 0.  1.
         11    1    4    4    0    0 -0.39707877225E-01 -0.35178503538E-01 -0.77846687078E-01  0.94205150788E-01  0.51100000000E-03 0. -1.
</event>
<event>
 8    1  0.1126414E+005  0.1043930E+01  0.7957747E-01            NaN
         13   -1    0    0    0    0  0.00000000000E+00  0.00000000000E+00  0.74505805969E-08  0.10566000000E+00  0.10566000000E+00 0.  1.
     999900   -1    0    0    0    0 -0.00000000000E+00 -0.00000000000E+00 -0.74505805969E-08  0.93827000000E+00  0.93827000000E+00 0.  1.
     999902    2    1    2    0    0 -0.10348114192E-01 -0.19060773004E-02  0.21847105588E-01  0.10196810285E+01  0.10193926560E+01 0.  0.
     999903    2    3    3    0    0 -0.90589423591E-02 -0.12812515993E+00 -0.69974097596E-02  0.13020650671E+00  0.20165554823E-01 0.  0.
         14    1    1    2    0    0  0.10348114192E-01  0.19060773004E-02 -0.21847105588E-01  0.24248971536E-01  0.00000000000E+00 0. -1.
     999901    1    3    3    0    0 -0.12891718328E-02  0.12621908263E+00  0.28844515347E-01  0.88947452175E+00  0.88000000000E+00 0. -1.
        -11    1    4    4    0    0 -0.45296783132E-02 -0.45429412059E-01  0.70617573277E-02  0.46200422111E-01  0.51100000000E-03 0. -1.
         11    1    4    4    0    0 -0.45292640459E-02 -0.82695747875E-01 -0.14059167087E-01  0.84006084599E-01  0.51100000000E-03 0.  1.
</event>
<event>
 8    1  0.1126414E+005  0.1043930E+01  0.7957747E-01            NaN
         13   -1    0    0    0    0  0.00000000000E+00  0.00000000000E+00  0.74505805969E-08  0.10566000000E+00  0.10566000000E+00 0.  1.
     999900   -1    0    0    0    0 -0.00000000000E+00 -0.00000000000E+00 -0.74505805969E-08  0.93827000000E+00  0.93827000000E+00 0. -1.
     999902    2    1    2    0    0  0.10040873784E-01 -0.15980771913E-01  0.12937663620E-01  0.10210479687E+01  0.10207915394E+01 0.  0.
     999903    2    3    3    0    0 -0.59860202005E-01 -0.10271072851E+00 -0.52514680697E-01  0.13161429766E+00  0.20779656528E-01 0.  0.
         14    1    1    2    0    0 -0.10040873784E-01  0.15980771913E-01 -0.12937663620E-01  0.22882031318E-01  0.00000000000E+00 0. -1.
     999901    1    3    3    0    0  0.69901075789E-01  0.86729956595E-01  0.65452344317E-01  0.88943367102E+00  0.88000000000E+00 0.  1.
        -11    1    4    4    0    0 -0.52943331537E-01 -0.74184593233E-01 -0.42814565492E-01  0.10069606927E+00  0.51100000000E-03 0. -1.
         11    1    4    4    0    0 -0.69168704683E-02 -0.28526135276E-01 -0.97001152057E-02  0.30918228391E-01  0.51100000000E-03 0.  1.
</event>
<event>
 8    1  0.1126414E+005  0.1043930E+01  0.7957747E-01            NaN
         13   -1    0    0    0    0  0.00000000000E+00  0.00000000000E+00  0.74505805969E-08  0.10566000000E+00  0.10566000000E+00 0. -1.
     999900   -1    0    0    0    0 -0.00000000000E+00 -0.00000000000E+00 -0.74505805969E-08  0.93827000000E+00  0.93827000000E+00 0.  1.
     999902    2    1    2    0    0  0.22795020063E-03 -0.67052024757E-02  0.22676054350E-01  0.10202822698E+01  0.10200081838E+01 0.  0.
     999903    2    3    3    0    0  0.11321414980E+00  0.33168533971E-01  0.54397441717E-01  0.13159669969E+00  0.21000341477E-01 0.  0.
         14    1    1    2    0    0 -0.22795020063E-03  0.67052024757E-02 -0.22676054350E-01  0.23647730174E-01  0.00000000000E+00 0.  1.
     999901    1    3    3    0    0 -0.11298619960E+00 -0.39873736446E-01 -0.31721387367E-01  0.88868557014E+00  0.88000000000E+00 0.  1.
        -11    1    4    4    0    0  0.29543815049E-01  0.14526542394E-02  0.20107523024E-01  0.35770390201E-01  0.51100000000E-03 0.  1.
         11    1    4    4    0    0  0.83670334751E-01  0.31715879731E-01  0.34289918693E-01  0.95826309485E-01  0.51100000000E-03 0. -1.
</event>
<event>
 8    1  0.1126414E+005  0.1043930E+01  0.7957747E-01            NaN
         13   -1    0    0    0    0  0.00000000000E+00  0.00000000000E+00  0.74505805969E-08  0.10566000000E+00  0.10566000000E+00 0. -1.
     999900   -1    0    0    0    0 -0.00000000000E+00 -0.00000000000E+00 -0.74505805969E-08  0.93827000000E+00  0.93827000000E+00 0. -1.
     999902    2    1    2    0    0 -0.11409434432E-01  0.17011791865E-01 -0.11036120604E-01  0.10206625933E+01  0.10203973526E+01 0.  0.
     999903    2    3    3    0    0  0.11075321151E+00 -0.33919453656E-01 -0.54690093108E-01  0.12969493219E+00  0.20321563775E-01 0.  0.
         14    1    1    2    0    0  0.11409434432E-01 -0.17011791865E-01  0.11036120604E-01  0.23267406699E-01  0.00000000000E+00 0. -1.
     999901    1    3    3    0    0 -0.12216264594E+00  0.50931245521E-01  0.43653972504E-01  0.89096766111E+00  0.88000000000E+00 0.  1.
        -11    1    4    4    0    0  0.49351053013E-01 -0.25024284813E-01 -0.29741044625E-01  0.62821430422E-01  0.51100000000E-03 0. -1.
         11    1    4    4    0    0  0.61402158500E-01 -0.88951688429E-02 -0.24949048483E-01  0.66873501765E-01  0.51100000000E-03 0.  1.
</event>
<event>
 8    1  0.1126414E+005  0.1043930E+01  0.7957747E-01            NaN
         13   -1    0    0    0    0  0.00000000000E+00  0.00000000000E+00  0.74505805969E-08  0.10566000000E+00  0.10566000000E+00 0. -1.
     999900   -1    0    0    0    0 -0.00000000000E+00 -0.00000000000E+00 -0.74505805969E-08  0.93827000000E+00  0.93827000000E+00 0.  1.
     999902    2    1    2    0    0  0.19847020595E-01  0.26368849978E-02  0.11621174676E-01  0.10207802896E+01  0.10205177562E+01 0.  0.
     999903    2    3    3    0    0 -0.35550388888E-02  0.62920357691E-01 -0.11171176999E+00  0.12982980352E+00  0.20115879671E-01 0.  0.
         14    1    1    2    0    0 -0.19847020595E-01 -0.26368849978E-02 -0.11621174676E-01  0.23149710362E-01  0.00000000000E+00 0.  1.
     999901    1    3    3    0    0  0.23402059484E-01 -0.60283472693E-01  0.12333294467E+00  0.89095048611E+00  0.88000000000E+00 0. -1.
        -11    1    4    4    0    0 -0.95683036180E-02  0.36777051986E-01 -0.77809168837E-01  0.86594641076E-01  0.51100000000E-03 0. -1.
         11    1    4    4    0    0  0.60132647292E-02  0.26143305704E-01 -0.33902601154E-01  0.43235162448E-01  0.51100000000E-03 0.  1.
</event>
<event>
 8    1  0.1126414E+005  0.1043930E+01  0.7957747E-01            NaN
         13   -1    0    0    0    0  0.00000000000E+00  0.00000000000E+00  0.74505805969E-08  0.10566000000E+00  0.10566000000E+00 0.  1.
     999900   -1    0    0    0    0 -0.00000000000E+00 -0.00000000000E+00 -0.74505805969E-08  0.93827000000E+00  0.93827000000E+00 0.  1.
     999902    2    1    2    0    0 -0.13467953130E-01  0.16781291054E-02  0.20991215846E-01  0.10189333398E+01  0.10186266823E+01 0.  0.
     999903    2    3    3    0    0 -0.23235905240E-01 -0.11855331734E+00  0.44684380543E-01  0.13038824828E+00  0.20238702545E-01 0.  0.
         14    1    1    2    0    0  0.13467953130E-01 -0.16781291054E-02 -0.20991215846E-01  0.24996660208E-01  0.00000000000E+00 0.  1.
     999901    1    3    3    0    0  0.97679521096E-02  0.12023144644E+00 -0.23693164696E-01  0.88854509151E+00  0.88000000000E+00 0. -1.
        -11    1    4    4    0    0 -0.13039999216E-01 -0.31755633209E-01  0.61716988851E-02  0.34882844038E-01  0.51100000000E-03 0.  1.
         11    1    4    4    0    0 -0.10195906024E-01 -0.86797684127E-01  0.38512681658E-01  0.95505404239E-01  0.51100000000E-03 0. -1.
</event>
<event>
 8    1  0.1126414E+005  0.1043930E+01  0.7957747E-01            NaN
         13   -1    0    0    0    0  0.00000000000E+00  0.00000000000E+00  0.74505805969E-08  0.10566000000E+00  0.10566000000E+00 0. -1.
     999900   -1    0    0    0    0 -0.00000000000E+00 -0.00000000000E+00 -0.74505805969E-08  0.93827000000E+00  0.93827000000E+00 0. -1.
     999902    2    1    2    0    0  0.21762328756E-01  0.76984616015E-02 -0.75789318197E-02  0.10196337972E+01  0.10193442867E+01 0.  0.
     999903    2    3    3    0    0  0.11126165784E-01  0.37965294327E-01  0.12060508285E+00  0.12976844178E+00  0.27001987609E-01 0.  0.
         14    1    1    2    0    0 -0.21762328756E-01 -0.76984616015E-02  0.75789318197E-02  0.24296202819E-01  0.00000000000E+00 0.  1.
     999901    1    3    3    0    0  0.10636162972E-01 -0.30266832725E-01 -0.12818401467E+00  0.88986535540E+00  0.88000000000E+00 0. -1.
        -11    1    4    4    0    0  0.18334875736E-01  0.32106181972E-01  0.80312053592E-01  0.88415279575E-01  0.51100000000E-03 0. -1.
         11    1    4    4    0    0 -0.72087099521E-02  0.58591123547E-02  0.40293029256E-01  0.41353162205E-01  0.51100000000E-03 0.  1.
</event>
<event>
 8    1  0.1126414E+005  0.1043930E+01  0.7957747E-01            NaN
         13   -1    0    0    0    0  0.00000000000E+00  0.00000000000E+00  0.74505805969E-08  0.10566000000E+00  0.10566000000E+00 0. -1.
     999900   -1    0    0    0    0 -0.00000000000E+00 -0.00000000000E+00 -0.74505805969E-08  0.93827000000E+00  0.93827000000E+00 0. -1.
     999902    2    1    2    0    0  0.18954619564E-01 -0.13250829997E-02 -0.14799632695E-01  0.10198455117E+01  0.10195610846E+01 0.  0.
     999903    2    3    3    0    0  0.72486090477E-01  0.11710623625E-01 -0.10924277706E+00  0.13307888202E+00  0.19612049433E-01 0.  0.
         14    1    1    2    0    0 -0.18954619564E-01  0.13250829997E-02  0.14799632695E-01  0.24084488279E-01  0.00000000000E+00 0. -1.
     999901    1    3    3    0    0 -0.53531470913E-01 -0.13035706624E-01  0.94443144364E-01  0.88676662970E+00  0.88000000000E+00 0.  1.
        -11    1    4    4    0    0  0.43402187604E-01  0.64768430549E-02 -0.47760431417E-01  0.64861539567E-01  0.51100000000E-03 0.  1.
         11    1    4    4    0    0  0.29083902872E-01  0.52337805699E-02 -0.61482345642E-01  0.68217342458E-01  0.51100000000E-03 0. -1.
</event>
<event>
 8    1  0.1126414E+005  0.1043930E+01  0.7957747E-01            NaN
         13   -1    0    0    0    0  0.00000000000E+00  0.00000000000E+00  0.74505805969E-08  0.10566000000E+00  0.10566000000E+00 0. -1.
     999900   -1    0    0    0    0 -0.00000000000E+00 -0.00000000000E+00 -0.74505805969E-08  0.93827000000E+00  0.93827000000E+00 0.  1.
     999902    2    1    2    0    0 -0.93505232143E-03  0.18919216098E-01 -0.24272077751E-01  0.10131412875E+01  0.10126733548E+01 0.  0.
     999903    2    3    3    0    0  0.91173238114E-01  0.80611513970E-01 -0.25980468607E-01  0.12618424489E+00  0.20897449073E-01 0.  0.
         14    1    1    2    0    0  0.93505232143E-03 -0.18919216098E-01  0.24272077751E-01  0.30788712525E-01  0.00000000000E+00 0. -1.
     999901    1    3    3    0    0 -0.92108290436E-01 -0.61692297872E-01  0.17083908557E-02  0.88695704258E+00  0.88000000000E+00 0.  1.
        -11    1    4    4    0    0  0.37913965767E-01  0.47412880689E-01 -0.11992557711E-01  0.61883217571E-01  0.51100000000E-03 0.  1.
         11    1    4    4    0    0  0.53259272347E-01  0.33198633281E-01 -0.13987910896E-01  0.64301027324E-01  0.51100000000E-03 0. -1.
</event>
<event>
 8    1  0.1126414E+005  0.1043930E+01  0.7957747E-01            NaN
         13   -1    0    0    0    0  0.00000000000E+00  0.00000000000E+00  0.74505805969E-08  0.10566000000E+00  0.10566000000E+00 0.  1.
     999900   -1    0    0    0    0 -0.00000000000E+00 -0.00000000000E+00 -0.74505805969E-08  0.93827000000E+00  0.93827000000E+00 0. -1.
     999902    2    1    2    0    0  0.62215050979E-02  0.45496324704E-02  0.20804042933E-01  0.10217440927E+01  0.10215031945E+01 0.  0.
     999903    2    3    3    0    0 -0.39244858192E-02  0.69390302748E-01 -0.10791787369E+00  0.12996127973E+00  0.20328577464E-01 0.  0.
         14    1    1    2    0    0 -0.62215050979E-02 -0.45496324704E-02 -0.20804042933E-01  0.22185907321E-01  0.00000000000E+00 0. -1.
     999901    1    3    3    0    0  0.10145990917E-01 -0.64840670278E-01  0.12872191663E+00  0.89178281295E+00  0.88000000000E+00 0.  1.
        -11    1    4    4    0    0  0.29251849610E-02  0.25579714225E-01 -0.56302207772E-01  0.61911858379E-01  0.51100000000E-03 0. -1.
         11    1    4    4    0    0 -0.68496707802E-02  0.43810588523E-01 -0.51615665921E-01  0.68049421349E-01  0.51100000000E-03 0.  1.
</event>
<event>
 8    1  0.1126414E+005  0.1043930E+01  0.7957747E-01            NaN
         13   -1    0    0    0    0  0.00000000000E+00  0.00000000000E+00  0.74505805969E-08  0.10566000000E+00  0.10566000000E+00 0. -1.
     999900   -1    0    0    0    0 -0.00000000000E+00 -0.00000000000E+00 -0.74505805969E-08  0.93827000000E+00  0.93827000000E+00 0.  1.
     999902    2    1    2    0    0 -0.14038911239E-01 -0.45107698680E-02  0.18829434608E-01  0.10200137779E+01  0.10197333580E+01 0.  0.
     999903    2    3    3    0    0 -0.10400264190E+00 -0.51067562756E-01  0.61624194607E-01  0.13316971080E+00  0.22631505197E-01 0.  0.
         14    1    1    2    0    0  0.14038911239E-01  0.45107698680E-02 -0.18829434608E-01  0.23916222135E-01  0.00000000000E+00 0.  1.
     999901    1    3    3    0    0  0.89963730657E-01  0.46556792888E-01 -0.42794760000E-01  0.88684406706E+00  0.88000000000E+00 0. -1.
        -11    1    4    4    0    0 -0.48313425001E-01 -0.34975277856E-01  0.25524965209E-01  0.64878671891E-01  0.51100000000E-03 0. -1.
         11    1    4    4    0    0 -0.55689216895E-01 -0.16092284900E-01  0.36099229398E-01  0.68291038913E-01  0.51100000000E-03 0.  1.
</event>
<event>
 8    1  0.1126414E+005  0.1043930E+01  0.7957747E-01            NaN
         13   -1    0    0    0    0  0.00000000000E+00  0.00000000000E+00  0.74505805969E-08  0.10566000000E+00  0.10566000000E+00 0. -1.
     999900   -1    0    0    0    0 -0.00000000000E+00 -0.00000000000E+00 -0.74505805969E-08  0.93827000000E+00  0.93827000000E+00 0.  1.
     999902    2    1    2    0    0 -0.48311765574E-02 -0.20974232521E-01  0.10487829948E-01  0.10199872918E+01  0.10197062431E+01 0.  0.
     999903    2    3    3    0    0 -0.12792880803E+00  0.10585355047E-02 -0.19211902700E-01  0.13065015450E+00  0.18261030751E-01 0.  0.
         14    1    1    2    0    0  0.48311765574E-02  0.20974232521E-01 -0.10487829948E-01  0.23942708155E-01  0.00000000000E+00 0.  1.
     999901    1    3    3    0    0  0.12309763147E+00 -0.22032768025E-01  0.29699732648E-01  0.88933713734E+00  0.88000000000E+00 0.  1.
        -11    1    4    4    0    0 -0.43242862272E-01  0.44613431783E-02  0.11197434898E-02  0.43489811070E-01  0.51100000000E-03 0. -1.
         11    1    4    4    0    0 -0.84685945759E-01 -0.34028076736E-02 -0.20331646190E-01  0.87160343430E-01  0.51100000000E-03 0.  1.
</event>
<event>
 8    1  0.1126414E+005  0.1043930E+01  0.7957747E-01            NaN
         13   -1    0    0    0    0  0.00000000000E+00  0.00000000000E+00  0.74505805969E-08  0.10566000000E+00  0.10566000000E+00 0.  1.
     999900   -1    0    0    0    0 -0.00000000000E+00 -0.00000000000E+00 -0.74505805969E-08  0.93827000000E+00  0.93827000000E+00 0.  1.
     999902    2    1    2    0    0  0.11466352507E-01 -0.19056864597E-01  0.80837455915E-02  0.10202659287E+01  0.10199914593E+01 0.  0.
     999903    2    3    3    0    0  0.49817045604E-01  0.11695889553E+00 -0.76870358959E-02  0.12885144585E+00  0.19557180334E-01 0.  0.
         14    1    1    2    0    0 -0.11466352507E-01  0.19056864597E-01 -0.80837455915E-02  0.23664071308E-01  0.00000000000E+00 0.  1.
     999901    1    3    3    0    0 -0.38350693097E-01 -0.13601576012E+00  0.15770781487E-01  0.89141448284E+00  0.88000000000E+00 0. -1.
        -11    1    4    4    0    0  0.22948774453E-01  0.61711877968E-01  0.53068397623E-02  0.66056232109E-01  0.51100000000E-03 0.  1.
         11    1    4    4    0    0  0.26868271151E-01  0.55247017558E-01 -0.12993875658E-01  0.62795213746E-01  0.51100000000E-03 0. -1.
</event>
<event>
 8    1  0.1126414E+005  0.1043930E+01  0.7957747E-01            NaN
         13   -1    0    0    0    0  0.00000000000E+00  0.00000000000E+00  0.74505805969E-08  0.10566000000E+00  0.10566000000E+00 0.  1.
     999900   -1    0    0    0    0 -0.00000000000E+00 -0.00000000000E+00 -0.74505805969E-08  0.93827000000E+00  0.93827000000E+00 0. -1.
     999902    2    1    2    0    0  0.79573489608E-02  0.21589158285E-01  0.13520691845E-02  0.10208813721E+01  0.10206211523E+01 0.  0.
     999903    2    3    3    0    0 -0.14154620832E-02  0.75809689324E-01 -0.10684261572E+00  0.13254933651E+00  0.20121370444E-01 0.  0.
         14    1    1    2    0    0 -0.79573489608E-02 -0.21589158285E-01 -0.13520691845E-02  0.23048627921E-01  0.00000000000E+00 0.  1.
     999901    1    3    3    0    0  0.93728110440E-02 -0.54220531039E-01  0.10819468490E+00  0.88833203557E+00  0.88000000000E+00 0.  1.
        -11    1    4    4    0    0  0.58929899033E-02  0.53856111014E-01 -0.84518534090E-01  0.10039348460E+00  0.51100000000E-03 0. -1.
         11    1    4    4    0    0 -0.73084519865E-02  0.21953578310E-01 -0.22324081626E-01  0.32155851917E-01  0.51100000000E-03 0.  1.
</event>
<event>
 8    1  0.1126414E+005  0.1043930E+01  0.7957747E-01            NaN
         13   -1    0    0    0    0  0.00000000000E+00  0.00000000000E+00  0.74505805969E-08  0.10566000000E+00  0.10566000000E+00 0. -1.
     999900   -1    0    0    0    0 -0.00000000000E+00 -0.00000000000E+00 -0.74505805969E-08  0.93827000000E+00  0.93827000000E+00 0. -1.
     999902    2    1    2    0    0 -0.71115671806E-02  0.40922024310E-02 -0.22036081682E-01  0.10204159743E+01  0.10201450148E+01 0.  0.
     999903    2    3    3    0    0  0.65175015618E-01 -0.27600057131E-02 -0.11360546695E+00  0.13269008467E+00  0.21096354110E-01 0.  0.
         14    1    1    2    0    0  0.71115671806E-02 -0.40922024310E-02  0.22036081682E-01  0.23514025696E-01  0.00000000000E+00 0. -1.
     999901    1    3    3    0    0 -0.72286582799E-01  0.68522081441E-02  0.91569385266E-01  0.88772588963E+00  0.88000000000E+00 0.  1.
        -11    1    4    4    0    0  0.43498711804E-01  0.71993071008E-02 -0.81829075946E-01  0.92952819982E-01  0.51100000000E-03 0. -1.
         11    1    4    4    0    0  0.21676303814E-01 -0.99593128139E-02 -0.31776391003E-01  0.39737264688E-01  0.51100000000E-03 0.  1.
</event>
<event>
 8    1  0.1126414E+005  0.1043930E+01  0.7957747E-01            NaN
         13   -1    0    0    0    0  0.00000000000E+00  0.00000000000E+00  0.74505805969E-08  0.10566000000E+00  0.10566000000E+00 0.  1.
     999900   -1    0    0    0    0 -0.00000000000E+00 -0.00000000000E+00 -0.74505805969E-08  0.93827000000E+00  0.93827000000E+00 0.  1.
     999902    2    1    2    0    0  0.47932214879E-02 -0.22799861481E-01 -0.74699787260E-03  0.10206197735E+01  0.10203535443E+01 0.  0.
     999903    2    3    3    0    0  0.61393193004E-01 -0.24465838683E-01 -0.11221326004E+00  0.13178285936E+00  0.20179318164E-01 0.  0.
         14    1    1    2    0    0 -0.47932214879E-02  0.22799861481E-01  0.74699787260E-03  0.23310226546E-01  0.00000000000E+00 0. -1.
     999901    1    3    3    0    0 -0.56599971516E-01  0.16659772023E-02  0.11146626217E+00  0.88883691410E+00  0.88000000000E+00 0. -1.
        -11    1    4    4    0    0  0.33638892220E-01 -0.23936897062E-01 -0.64690791771E-01  0.76744444566E-01  0.51100000000E-03 0. -1.
         11    1    4    4    0    0  0.27754300784E-01 -0.52894162088E-03 -0.47522468273E-01  0.55038414793E-01  0.51100000000E-03 0.  1.
</event>
<event>
 8    1  0.1126414E+005  0.1043930E+01  0.7957747E-01            NaN
         13   -1    0    0    0    0  0.00000000000E+00  0.00000000000E+00  0.74505805969E-08  0.10566000000E+00  0.10566000000E+00 0.  1.
     999900   -1    0    0    0    0 -0.00000000000E+00 -0.00000000000E+00 -0.74505805969E-08  0.93827000000E+00  0.93827000000E+00 0. -1.
     999902    2    1    2    0    0  0.14944382666E-01  0.19284328088E-01  0.41296965175E-02  0.10191858234E+01  0.10188854049E+01 0.  0.
     999903    2    3    3    0    0 -0.11508344605E+00 -0.40245888112E-01 -0.29645109337E-01  0.12700208648E+00  0.19666377330E-01 0.  0.
         14    1    1    2    0    0 -0.14944382666E-01 -0.19284328088E-01 -0.41296965175E-02  0.24744176616E-01  0.00000000000E+00 0.  1.
     999901    1    3    3    0    0  0.13002782872E+00  0.59530216200E-01  0.33774805854E-01  0.89218373690E+00  0.88000000000E+00 0. -1.
        -11    1    4    4    0    0 -0.85633841318E-01 -0.28032095899E-01 -0.30430506491E-01  0.95106414219E-01  0.51100000000E-03 0. -1.
         11    1    4    4    0    0 -0.29449604737E-01 -0.12213792214E-01  0.78539715355E-03  0.31895672262E-01  0.51100000000E-03 0.  1.
</event>
<event>
 8    1  0.1126414E+005  0.1043930E+01  0.7957747E-01            NaN
         13   -1    0    0    0    0  0.00000000000E+00  0.00000000000E+00  0.74505805969E-08  0.10566000000E+00  0.10566000000E+00 0.  1.
     999900   -1    0    0    0    0 -0.00000000000E+00 -0.00000000000E+00 -0.74505805969E-08  0.93827000000E+00  0.93827000000E+00 0. -1.
     999902    2    1    2    0    0  0.40250041058E-02 -0.16125784830E-01  0.16342721096E-01  0.10206206429E+01  0.10203544338E+01 0.  0.
     999903    2    3    3    0    0  0.69519017030E-01  0.13106256407E-01 -0.10625228222E+00  0.12923211215E+00  0.20167390715E-01 0.  0.
         14    1    1    2    0    0 -0.40250041058E-02  0.16125784830E-01 -0.16342721096E-01  0.23309357075E-01  0.00000000000E+00 0. -1.
     999901    1    3    3    0    0 -0.65494012924E-01 -0.29232041237E-01  0.12259500331E+00  0.89138853078E+00  0.88000000000E+00 0.  1.
        -11    1    4    4    0    0  0.53550227063E-01  0.11888560858E-01 -0.65463841444E-01  0.85409252165E-01  0.51100000000E-03 0.  1.
         11    1    4    4    0    0  0.15968789966E-01  0.12176955489E-02 -0.40788440772E-01  0.43822859983E-01  0.51100000000E-03 0. -1.
</event>
<event>
 8    1  0.1126414E+005  0.1043930E+01  0.7957747E-01            NaN
         13   -1    0    0    0    0  0.00000000000E+00  0.00000000000E+00  0.74505805969E-08  0.10566000000E+00  0.10566000000E+00 0.  1.
     999900   -1    0    0    0    0 -0.00000000000E+00 -0.00000000000E+00 -0.74505805969E-08  0.93827000000E+00  0.93827000000E+00 0. -1.
     999902    2    1    2    0    0 -0.19830190563E-01 -0.11128012664E-01  0.80825330416E-02  0.10197971083E+01  0.10195115230E+01 0.  0.
     999903    2    3    3    0    0 -0.52353170037E-01  0.11573452371E+00  0.19015682838E-01  0.13003793798E+00  0.20320795449E-01 0.  0.
         14    1    1    2    0    0  0.19830190563E-01  0.11128012664E-01 -0.80825330416E-02  0.24132891745E-01  0.00000000000E+00 0. -1.
     999901    1    3    3    0    0  0.32522979473E-01 -0.12686253638E+00 -0.10933149796E-01  0.88975917028E+00  0.88000000000E+00 0. -1.
        -11    1    4    4    0    0 -0.25683018061E-01  0.49201962497E-01 -0.13485716167E-02  0.55520539413E-01  0.51100000000E-03 0. -1.
         11    1    4    4    0    0 -0.26670151975E-01  0.66532561215E-01  0.20364254455E-01  0.74517398563E-01  0.51100000000E-03 0.  1.
</event>
<event>
 8    1  0.1126414E+005  0.1043930E+01  0.7957747E-01            NaN
         13   -1    0    0    0    0  0.00000000000E+00  0.00000000000E+00  0.74505805969E-08  0.10566000000E+00  0.10566000000E+00 0. -1.
     999900   -1    0    0    0    0 -0.00000000000E+00 -0.00000000000E+00 -0.74505805969E-08  0.93827000000E+00  0.93827000000E+00 0. -1.
     999902    2    1    2    0    0 -0.24121296441E-01  0.10042825378E-03  0.50640044896E-04  0.10198084413E+01  0.10195231275E+01 0.  0.
     999903    2    3    3    0    0  0.35684830530E-02 -0.12725554017E+00 -0.17725379556E-01  0.13003192251E+00  0.19682612023E-01 0.  0.
         14    1    1    2    0    0  0.24121296441E-01 -0.10042825378E-03 -0.50640044896E-04  0.24121558662E-01  0.00000000000E+00 0. -1.
     999901    1    3    3    0    0 -0.27689779494E-01  0.12735596843E+00  0.17776019601E-01  0.88977651883E+00  0.88000000000E+00 0. -1.
        -11    1    4    4    0    0  0.86467339098E-02 -0.10367064286E+00 -0.91939326749E-02  0.10443733872E+00  0.51100000000E-03 0.  1.
         11    1    4    4    0    0 -0.50782508568E-02 -0.23584897308E-01 -0.85314468811E-02  0.25594583796E-01  0.51100000000E-03 0. -1.
</event>
<event>
 8    1  0.1126414E+005  0.1043930E+01  0.7957747E-01            NaN
         13   -1    0    0    0    0  0.00000000000E+00  0.00000000000E+00  0.74505805969E-08  0.10566000000E+00  0.10566000000E+00 0.  1.
     999900   -1    0    0    0    0 -0.00000000000E+00 -0.00000000000E+00 -0.74505805969E-08  0.93827000000E+00  0.93827000000E+00 0.  1.
     999902    2    1    2    0    0  0.16595757349E-02  0.62436062233E-02 -0.22108922204E-01  0.10208965189E+01  0.10206366450E+01 0.  0.
     999903    2    3    3    0    0  0.62980390702E-01  0.11158642885E+00 -0.26858081501E-01  0.13248225341E+00  0.20300990369E-01 0.  0.
         14    1    1    2    0    0 -0.16595757349E-02 -0.62436062233E-02  0.22108922204E-01  0.23033481094E-01  0.00000000000E+00 0.  1.
     999901    1    3    3    0    0 -0.61320814968E-01 -0.10534282262E+00  0.47491592972E-02  0.88841426550E+00  0.88000000000E+00 0.  1.
        -11    1    4    4    0    0  0.50085150869E-01  0.69737459308E-01 -0.19934770512E-01  0.88144720571E-01  0.51100000000E-03 0.  1.
         11    1    4    4    0    0  0.12895239834E-01  0.41848969540E-01 -0.69233109890E-02  0.44337532836E-01  0.51100000000E-03 0. -1.
</event>
<event>
 8    1  0.1131056E+005  0.1043930E+01  0.7957747E-01            NaN
         13   -1    0    0    0    0  0.00000000000E+00  0.00000000000E+00  0.74505805969E-08  0.10566000000E+00  0.10566000000E+00 0. -1.
     999900   -1    0    0    0    0 -0.00000000000E+00 -0.00000000000E+00 -0.74505805969E-08  0.93827000000E+00  0.93827000000E+00 0.  1.
     999902    2    1    2    0    0 -0.52253692318E-03 -0.17154238214E-02 -0.23763858603E-01  0.10200985775E+01  0.10198201660E+01 0.  0.
     999903    2    3    3    0    0  0.44937434556E-01  0.10759635378E+00 -0.57493496777E-01  0.13153042465E+00  0.19960011669E-01 0.  0.
         14    1    1    2    0    0  0.52253692318E-03  0.17154238214E-02  0.23763858603E-01  0.23831422522E-01  0.00000000000E+00 0. -1.
     999901    1    3    3    0    0 -0.45459971479E-01 -0.10931177760E+00  0.33729638175E-01  0.88856815283E+00  0.88000000000E+00 0.  1.
        -11    1    4    4    0    0  0.36316440309E-01  0.75250228584E-01 -0.32100994479E-01  0.89510980926E-01  0.51100000000E-03 0.  1.
         11    1    4    4    0    0  0.86209942469E-02  0.32346125195E-01 -0.25392502298E-01  0.42019443724E-01  0.51100000000E-03 0. -1.
</event>
<event>
 8    1  0.1126414E+005  0.1043930E+01  0.7957747E-01            NaN
         13   -1    0    0    0    0  0.00000000000E+00  0.00000000000E+00  0.74505805969E-08  0.10566000000E+00  0.10566000000E+00 0. -1.
     999900   -1    0    0    0    0 -0.00000000000E+00 -0.00000000000E+00 -0.74505805969E-08  0.93827000000E+00  0.93827000000E+00 0.  1.
     999902    2    1    2    0    0 -0.20960695541E-01  0.13991330544E-02  0.15030554984E-01  0.10180992835E+01  0.10177715486E+01 0.  0.
     999903    2    3    3    0    0  0.31497114037E-01 -0.12211006218E+00  0.67060720989E-02  0.12788827476E+00  0.20186726868E-01 0.  0.
         14    1    1    2    0    0  0.20960695541E-01 -0.13991330544E-02 -0.15030554984E-01  0.25830716483E-01  0.00000000000E+00 0.  1.
     999901    1    3    3    0    0 -0.52457809578E-01  0.12350919523E+00  0.83244828854E-02  0.89021100875E+00  0.88000000000E+00 0. -1.
        -11    1    4    4    0    0  0.23622119129E-01 -0.92328651049E-01  0.13731710606E-01  0.96288136932E-01  0.51100000000E-03 0.  1.
         11    1    4    4    0    0  0.78749949085E-02 -0.29781411127E-01 -0.70256385075E-02  0.31600137831E-01  0.51100000000E-03 0. -1.
</event>
<event>
 8    1  0.1126414E+005  0.1043930E+01  0.7957747E-01            NaN
         13   -1    0    0    0    0  0.00000000000E+00  0.00000000000E+00  0.74505805969E-08  0.10566000000E+00  0.10566000000E+00 0.  1.
     999900   -1    0    0    0    0 -0.00000000000E+00 -0.00000000000E+00 -0.74505805969E-08  0.93827000000E+00  0.93827000000E+00 0. -1.
     999902    2    1    2    0    0 -0.21285563396E-01 -0.89158035275E-02 -0.31249206203E-03  0.10208504763E+01  0.10205895505E+01 0.  0.
     999903    2    3    3    0    0 -0.11306299330E+00 -0.69148797780E-01 -0.10502193111E-02  0.13402938136E+00  0.19949321245E-01 0.  0.
         14    1    1    2    0    0  0.21285563396E-01  0.89158035275E-02  0.31249206203E-03  0.23079523672E-01  0.00000000000E+00 0.  1.
     999901    1    3    3    0    0  0.91777429908E-01  0.60232994253E-01  0.73772724903E-03  0.88682109497E+00  0.88000000000E+00 0.  1.
        -11    1    4    4    0    0 -0.35143929605E-01 -0.32602338877E-01  0.71762274318E-03  0.47945639965E-01  0.51100000000E-03 0. -1.
         11    1    4    4    0    0 -0.77919063699E-01 -0.36546458904E-01 -0.17678420542E-02  0.86083741396E-01  0.51100000000E-03 0.  1.
</event>
<event>
 8    1  0.1126414E+005  0.1043930E+01  0.7957747E-01            NaN
         13   -1    0    0    0    0  0.00000000000E+00  0.00000000000E+00  0.74505805969E-08  0.10566000000E+00  0.10566000000E+00 0.  1.
     999900   -1    0    0    0    0 -0.00000000000E+00 -0.00000000000E+00 -0.74505805969E-08  0.93827000000E+00  0.93827000000E+00 0. -1.
     999902    2    1    2    0    0 -0.73376126152E-02 -0.20979616563E-02 -0.23547135200E-01  0.10191770289E+01  0.10188763942E+01 0.  0.
     999903    2    3    3    0    0 -0.32453863130E-01 -0.12260594190E+00 -0.24108427321E-01  0.13060890299E+00  0.19798965886E-01 0.  0.
         14    1    1    2    0    0  0.73376126152E-02  0.20979616563E-02  0.23547135200E-01  0.24752971097E-01  0.00000000000E+00 0.  1.
     999901    1    3    3    0    0  0.25116250515E-01  0.12050798025E+00  0.56129212040E-03  0.88856812591E+00  0.88000000000E+00 0.  1.
        -11    1    4    4    0    0 -0.26810880271E-01 -0.66724577762E-01 -0.92107812496E-02  0.72498911652E-01  0.51100000000E-03 0. -1.
         11    1    4    4    0    0 -0.56429828596E-02 -0.55881364140E-01 -0.14897646071E-01  0.58109991336E-01  0.51100000000E-03 0.  1.
</event>
<event>
 8    1  0.1126414E+005  0.1043930E+01  0.7957747E-01            NaN
         13   -1    0    0    0    0  0.00000000000E+00  0.00000000000E+00  0.74505805969E-08  0.10566000000E+00  0.10566000000E+00 0. -1.
     999900   -1    0    0    0    0 -0.00000000000E+00 -0.00000000000E+00 -0.74505805969E-08  0.93827000000E+00  0.93827000000E+00 0. -1.
     999902    2    1    2    0    0 -0.17886729954E-01 -0.16534301345E-01 -0.37257474848E-02  0.10192885832E+01  0.10189906851E+01 0.  0.
     999903    2    3    3    0    0 -0.15340457240E-01 -0.11914647071E+00 -0.52046452146E-01  0.13200585973E+00  0.16896825446E-01 0.  0.
         14    1    1    2    0    0  0.17886729954E-01  0.16534301345E-01  0.37257474848E-02  0.24641416837E-01  0.00000000000E+00 0.  1.
     999901    1    3    3    0    0 -0.25462727141E-02  0.10261216937E+00  0.48320704661E-01  0.88728272343E+00  0.88000000000E+00 0. -1.
        -11    1    4    4    0    0  0.28750210066E-02 -0.32563371643E-01 -0.11270187853E-01  0.34582035420E-01  0.51100000000E-03 0. -1.
         11    1    4    4    0    0 -0.18215478247E-01 -0.86583099069E-01 -0.40776264293E-01  0.97423824308E-01  0.51100000000E-03 0.  1.
</event>
<event>
 7    1  0.1126414E+005  0.1043930E+01  0.7957747E-01            NaN
         13   -1    0    0    0    0  0.00000000000E+00  0.00000000000E+00  0.74505805969E-08  0.10566000000E+00  0.10566000000E+00 0.  1.
     999900   -1    0    0    0    0 -0.00000000000E+00 -0.00000000000E+00 -0.74505805969E-08  0.93827000000E+00  0.93827000000E+00 0. -1.
     999903    2    1    2    0    0 -0.16938102107E-01 -0.74838444739E-01 -0.68102040085E-01  0.10413912295E+00  0.17871120594E-01 0.  0.
         14    1    1    2    0    0 -0.28243626758E-01 -0.63132682244E-02 -0.38869713072E-01  0.48460441625E-01  0.00000000000E+00 0. -1.
     999901    1    1    2    0    0  0.45181728865E-01  0.81151712963E-01  0.10697175316E+00  0.89133043542E+00  0.88000000000E+00 0.  1.
        -11    1    3    3    0    0 -0.64115494970E-04 -0.16464587119E-02 -0.72994848372E-02  0.75005691101E-02  0.51100000000E-03 0. -1.
         11    1    3    3    0    0 -0.16873986612E-01 -0.73191986027E-01 -0.60802555248E-01  0.96638553841E-01  0.51100000000E-03 0.  1.
</event>
<event>
 8    1  0.1126414E+005  0.1043930E+01  0.7957747E-01            NaN
         13   -1    0    0    0    0  0.00000000000E+00  0.00000000000E+00  0.74505805969E-08  0.10566000000E+00  0.10566000000E+00 0.  1.
     999900   -1    0    0    0    0 -0.00000000000E+00 -0.00000000000E+00 -0.74505805969E-08  0.93827000000E+00  0.93827000000E+00 0. -1.
     999902    2    1    2    0    0 -0.20674150897E-01  0.43335365306E-02  0.36125702198E-02  0.10224998643E+01  0.10222752671E+01 0.  0.
     999903    2    3    3    0    0 -0.10937879025E-01 -0.85466926412E-01 -0.98140258687E-01  0.13204348895E+00  0.19486915929E-01 0.  0.
         14    1    1    2    0    0  0.20674150897E-01 -0.43335365306E-02 -0.36125702198E-02  0.21430135738E-01  0.00000000000E+00 0. -1.
     999901    1    3    3    0    0 -0.97362718718E-02  0.89800462942E-01  0.10175282891E+00  0.89045637531E+00  0.88000000000E+00 0.  1.
        -11    1    4    4    0    0 -0.12251005524E-01 -0.57224143384E-01 -0.54048863355E-01  0.79663231628E-01  0.51100000000E-03 0.  1.
         11    1    4    4    0    0  0.13131264993E-02 -0.28242783027E-01 -0.44091395332E-01  0.52380257327E-01  0.51100000000E-03 0. -1.
</event>
<event>
 8    1  0.1126414E+005  0.1043930E+01  0.7957747E-01            NaN
         13   -1    0    0    0    0  0.00000000000E+00  0.00000000000E+00  0.74505805969E-08  0.10566000000E+00  0.10566000000E+00 0. -1.
     999900   -1    0    0    0    0 -0.00000000000E+00 -0.00000000000E+00 -0.74505805969E-08  0.93827000000E+00  0.93827000000E+00 0. -1.
     999902    2    1    2    0    0 -0.12649823222E-01  0.20106540570E-01 -0.27139514868E-02  0.10200206601E+01  0.10197404035E+01 0.  0.
     999903    2    3    3    0    0 -0.11392374585E+00 -0.41362434857E-01  0.45017277758E-01  0.13080015169E+00  0.19815486399E-01 0.  0.
         14    1    1    2    0    0  0.12649823222E-01 -0.20106540570E-01  0.27139514868E-02  0.23909339889E-01  0.00000000000E+00 0. -1.
     999901    1    3    3    0    0  0.10127392263E+00  0.61468975426E-01 -0.47731229245E-01  0.88922050842E+00  0.88000000000E+00 0.  1.
        -11    1    4    4    0    0 -0.17610138401E-01 -0.12305864446E-02  0.12029750938E-01  0.21368372566E-01  0.51100000000E-03 0.  1.
         11    1    4    4    0    0 -0.96313607447E-01 -0.40131848412E-01  0.32987526820E-01  0.10943177913E+00  0.51100000000E-03 0. -1.
</event>
<event>
 8    1  0.1126414E+005  0.1043930E+01  0.7957747E-01            NaN
         13   -1    0    0    0    0  0.00000000000E+00  0.00000000000E+00  0.74505805969E-08  0.10566000000E+00  0.10566000000E+00 0. -1.
     999900   -1    0    0    0    0 -0.00000000000E+00 -0.00000000000E+00 -0.74505805969E-08  0.93827000000E+00  0.93827000000E+00 0.  1.
     999902    2    1    2    0    0 -0.22249873247E-01 -0.87842280462E-02  0.40296610637E-02  0.10196718531E+01  0.10193832598E+01 0.  0.
     999903    2    3    3    0    0  0.79336109278E-01  0.74694292950E-01 -0.62767518632E-01  0.12739933952E+00  0.20429749859E-01 0.  0.
         14    1    1    2    0    0  0.22249873247E-01  0.87842280462E-02 -0.40296610637E-02  0.24258146882E-01  0.00000000000E+00 0.  1.
     999901    1    3    3    0    0 -0.10158598253E+00 -0.83478520997E-01  0.66797179695E-01  0.89227251360E+00  0.88000000000E+00 0.  1.
        -11    1    4    4    0    0  0.62831002774E-01  0.67345278399E-01 -0.46951370875E-01  0.10338188323E+00  0.51100000000E-03 0.  1.
         11    1    4    4    0    0  0.16505106504E-01  0.73490145510E-02 -0.15816147756E-01  0.24017456286E-01  0.51100000000E-03 0. -1.
</event>
<event>
 8    1  0.1126414E+005  0.1043930E+01  0.7957747E-01            NaN
         13   -1    0    0    0    0  0.00000000000E+00  0.00000000000E+00  0.74505805969E-08  0.10566000000E+00  0.10566000000E+00 0. -1.
     999900   -1    0    0    0    0 -0.00000000000E+00 -0.00000000000E+00 -0.74505805969E-08  0.93827000000E+00  0.93827000000E+00 0.  1.
     999902    2    1    2    0    0 -0.30310874639E-02  0.52691113202E-03 -0.22157017700E-01  0.10215604099E+01  0.10213154618E+01 0.  0.
     999903    2    3    3    0    0  0.48983958843E-01  0.95731530165E-01  0.70436043261E-01  0.13007683775E+00  0.19869409584E-01 0.  0.
         14    1    1    2    0    0  0.30310874639E-02 -0.52691113202E-03  0.22157017700E-01  0.22369590070E-01  0.00000000000E+00 0. -1.
     999901    1    3    3    0    0 -0.52015046306E-01 -0.95204619033E-01 -0.92593060961E-01  0.89148357218E+00  0.88000000000E+00 0.  1.
        -11    1    4    4    0    0  0.11867019098E-01  0.41292368644E-01  0.33936157898E-01  0.54752258258E-01  0.51100000000E-03 0. -1.
         11    1    4    4    0    0  0.37116939745E-01  0.54439161522E-01  0.36499885362E-01  0.75324579492E-01  0.51100000000E-03 0.  1.
</event>
<event>
 8    1  0.1126414E+005  0.1043930E+01  0.7957747E-01            NaN
         13   -1    0    0    0    0  0.00000000000E+00  0.00000000000E+00  0.74505805969E-08  0.10566000000E+00  0.10566000000E+00 0.  1.
     999900   -1    0    0    0    0 -0.00000000000E+00 -0.00000000000E+00 -0.74505805969E-08  0.93827000000E+00  0.93827000000E+00 0. -1.
     999902    2    1    2    0    0  0.94840096227E-02 -0.17682154305E-01  0.10755244101E-01  0.10211642298E+01  0.10209104289E+01 0.  0.
     999903    2    3    3    0    0  0.11458287771E+00 -0.73758227190E-02  0.64529947080E-01  0.13322070045E+00  0.20000058329E-01 0.  0.
         14    1    1    2    0    0 -0.94840096227E-02  0.17682154305E-01 -0.10755244101E-01  0.22765770249E-01  0.00000000000E+00 0. -1.
     999901    1    3    3    0    0 -0.10509886809E+00 -0.10306331586E-01 -0.53774702980E-01  0.88794352930E+00  0.88000000000E+00 0.  1.
        -11    1    4    4    0    0  0.46092065790E-01  0.16379470359E-02  0.35862382925E-01  0.58425448474E-01  0.51100000000E-03 0. -1.
         11    1    4    4    0    0  0.68490811921E-01 -0.90137697549E-02  0.28667564155E-01  0.74795251978E-01  0.51100000000E-03 0.  1.
</event>
<event>
 8    1  0.1126414E+005  0.1043930E+01  0.7957747E-01            NaN
         13   -1    0    0    0    0  0.00000000000E+00  0.00000000000E+00  0.74505805969E-08  0.10566000000E+00  0.10566000000E+00 0.  1.
     999900   -1    0    0    0    0 -0.00000000000E+00 -0.00000000000E+00 -0.74505805969E-08  0.93827000000E+00  0.93827000000E+00 0. -1.
     999902    2    1    2    0    0  0.21259907849E-02  0.21239396574E-01  0.80705308706E-02  0.10211097180E+01  0.10208546865E+01 0.  0.
     999903    2    3    3    0    0 -0.36923996431E-01 -0.59146770046E-01 -0.10685501715E+00  0.12914855352E+00  0.19990804579E-01 0.  0.
         14    1    1    2    0    0 -0.21259907849E-02 -0.21239396574E-01 -0.80705308706E-02  0.22820282035E-01  0.00000000000E+00 0.  1.
     999901    1    3    3    0    0  0.39049987216E-01  0.80386166620E-01  0.11492554802E+00  0.89196116444E+00  0.88000000000E+00 0. -1.
        -11    1    4    4    0    0 -0.12905185794E-01 -0.30153454076E-01 -0.65271720358E-01  0.73050894674E-01  0.51100000000E-03 0.  1.
         11    1    4    4    0    0 -0.24018810636E-01 -0.28993315970E-01 -0.41583296791E-01  0.56097658849E-01  0.51100000000E-03 0. -1.
</event>
<event>
 8    1  0.1126414E+005  0.1043930E+01  0.7957747E-01            NaN
         13   -1    0    0    0    0  0.00000000000E+00  0.00000000000E+00  0.74505805969E-08  0.10566000000E+00  0.10566000000E+00 0.  1.
     999900   -1    0    0    0    0 -0.00000000000E+00 -0.00000000000E+00 -0.74505805969E-08  0.93827000000E+00  0.93827000000E+00 0. -1.
     999902    2    1    2    0    0  0.56581124449E-02  0.22440572605E-01  0.35892373385E-02  0.10205104321E+01  0.10202416703E+01 0.  0.
     999903    2    3    3    0    0  0.12174703063E+00 -0.21563499729E-01  0.38706900245E-01  0.13110262601E+00  0.20058674754E-01 0.  0.
         14    1    1    2    0    0 -0.56581124449E-02 -0.22440572605E-01 -0.35892373385E-02  0.23419567886E-01  0.00000000000E+00 0. -1.
     999901    1    3    3    0    0 -0.11608891819E+00  0.44004072334E-01 -0.35117662906E-01  0.88940780610E+00  0.88000000000E+00 0.  1.
        -11    1    4    4    0    0  0.99097282400E-01 -0.11033616612E-01  0.35836287102E-01  0.10595523899E+00  0.51100000000E-03 0. -1.
         11    1    4    4    0    0  0.22649748230E-01 -0.10529883117E-01  0.28706131422E-02  0.25147387025E-01  0.51100000000E-03 0.  1.
</event>
<event>
 8    1  0.1126414E+005  0.1043930E+01  0.7957747E-01            NaN
         13   -1    0    0    0    0  0.00000000000E+00  0.00000000000E+00  0.74505805969E-08  0.10566000000E+00  0.10566000000E+00 0. -1.
     999900   -1    0    0    0    0 -0.00000000000E+00 -0.00000000000E+00 -0.74505805969E-08  0.93827000000E+00  0.93827000000E+00 0.  1.
     999902    2    1    2    0    0 -0.23842288414E-01  0.15417772003E-02 -0.57984270161E-03  0.10200308784E+01  0.10197508642E+01 0.  0.
     999903    2    3    3    0    0 -0.52387606857E-01 -0.11803029614E+00 -0.12201676072E-01  0.13140982144E+00  0.21072449187E-01 0.  0.
         14    1    1    2    0    0  0.23842288414E-01 -0.15417772003E-02  0.57984270161E-03  0.23899121560E-01  0.00000000000E+00 0.  1.
     999901    1    3    3    0    0  0.28545318443E-01  0.11957207334E+00  0.11621833371E-01  0.88862105700E+00  0.88000000000E+00 0. -1.
        -11    1    4    4    0    0 -0.24123184201E-01 -0.32530463800E-01  0.23726230450E-03  0.40502796267E-01  0.51100000000E-03 0.  1.
         11    1    4    4    0    0 -0.28264422656E-01 -0.85499832336E-01 -0.12438938377E-01  0.90907025177E-01  0.51100000000E-03 0. -1.
</event>
<event>
 8    1  0.1126414E+005  0.1043930E+01  0.7957747E-01            NaN
         13   -1    0    0    0    0  0.00000000000E+00  0.00000000000E+00  0.74505805969E-08  0.10566000000E+00  0.10566000000E+00 0. -1.
     999900   -1    0    0    0    0 -0.00000000000E+00 -0.00000000000E+00 -0.74505805969E-08  0.93827000000E+00  0.93827000000E+00 0.  1.
     999902    2    1    2    0    0  0.29853777715E-02  0.23758335333E-01  0.23112239107E-02  0.10198735511E+01  0.10195897937E+01 0.  0.
     999903    2    3    3    0    0 -0.73228528187E-01 -0.22642225493E-02 -0.10513343165E+00  0.12968812828E+00  0.19960664339E-01 0.  0.
         14    1    1    2    0    0 -0.29853777715E-02 -0.23758335333E-01 -0.23112239107E-02  0.24056448910E-01  0.00000000000E+00 0.  1.
     999901    1    3    3    0    0  0.76213905958E-01  0.26022557882E-01  0.10744465556E+00  0.89018542281E+00  0.88000000000E+00 0. -1.
        -11    1    4    4    0    0 -0.26618871677E-01 -0.90222709026E-02 -0.48191058788E-01  0.55790724764E-01  0.51100000000E-03 0. -1.
         11    1    4    4    0    0 -0.46609656510E-01  0.67580483533E-02 -0.56942372863E-01  0.73897403512E-01  0.51100000000E-03 0.  1.
</event>
<event>
 8    1  0.1126414E+005  0.1043930E+01  0.7957747E-01            NaN
         13   -1    0    0    0    0  0.00000000000E+00  0.00000000000E+00  0.74505805969E-08  0.10566000000E+00  0.10566000000E+00 0. -1.
     999900   -1    0    0    0    0 -0.00000000000E+00 -0.00000000000E+00 -0.74505805969E-08  0.93827000000E+00  0.93827000000E+00 0.  1.
     999902    2    1    2    0    0 -0.16473724547E-01  0.11844809888E-01 -0.11689218413E-01  0.10205137461E+01  0.10202450612E+01 0.  0.
     999903    2    3    3    0    0 -0.99465715772E-01  0.55128123914E-01  0.64791815583E-01  0.13225113599E+00  0.18969579420E-01 0.  0.
         14    1    1    2    0    0  0.16473724547E-01 -0.11844809888E-01  0.11689218413E-01  0.23416253946E-01  0.00000000000E+00 0. -1.
     999901    1    3    3    0    0  0.82991991225E-01 -0.43283314026E-01 -0.76481033996E-01  0.88826261007E+00  0.88000000000E+00 0.  1.
        -11    1    4    4    0    0 -0.36511609393E-01  0.23637976375E-01  0.34926874004E-01  0.55785295520E-01  0.51100000000E-03 0. -1.
         11    1    4    4    0    0 -0.62954106379E-01  0.31490147538E-01  0.29864941579E-01  0.76465840468E-01  0.51100000000E-03 0.  1.
</event>
<event>
 8    1  0.1126414E+005  0.1043930E+01  0.7957747E-01            NaN
         13   -1    0    0    0    0  0.00000000000E+00  0.00000000000E+00  0.74505805969E-08  0.10566000000E+00  0.10566000000E+00 0.  1.
     999900   -1    0    0    0    0 -0.00000000000E+00 -0.00000000000E+00 -0.74505805969E-08  0.93827000000E+00  0.93827000000E+00 0.  1.
     999902    2    1    2    0    0  0.16670658246E-01  0.10065801321E-01  0.14212991219E-01  0.10198210738E+01  0.10195360623E+01 0.  0.
     999903    2    3    3    0    0 -0.48793503321E-02  0.11543904260E+00  0.59746392292E-01  0.13210421948E+00  0.23063234752E-01 0.  0.
         14    1    1    2    0    0 -0.16670658246E-01 -0.10065801321E-01 -0.14212991219E-01  0.24108926189E-01  0.00000000000E+00 0.  1.
     999901    1    3    3    0    0  0.21550008578E-01 -0.10537324128E+00 -0.45533401073E-01  0.88771685433E+00  0.88000000000E+00 0.  1.
        -11    1    4    4    0    0  0.27344419540E-02  0.17387809362E-01  0.18251027800E-01  0.25360879795E-01  0.51100000000E-03 0. -1.
         11    1    4    4    0    0 -0.76137922861E-02  0.98051233237E-01  0.41495364492E-01  0.10674333969E+00  0.51100000000E-03 0.  1.
</event>
<event>
 8    1  0.1126414E+005  0.1043930E+01  0.7957747E-01            NaN
         13   -1    0    0    0    0  0.00000000000E+00  0.00000000000E+00  0.74505805969E-08  0.10566000000E+00  0.10566000000E+00 0.  1.
     999900   -1    0    0    0    0 -0.00000000000E+00 -0.00000000000E+00 -0.74505805969E-08  0.93827000000E+00  0.93827000000E+00 0. -1.
     999902    2    1    2    0    0 -0.11903921338E-01  0.64364160329E-02 -0.13081207418E-01  0.10251085021E+01  0.10249357016E+01 0.  0.
     999903    2    3    3    0    0  0.10913386007E+00  0.55406468829E-01 -0.51577002432E-01  0.13464225525E+00  0.22096911950E-01 0.  0.
         14    1    1    2    0    0  0.11903921338E-01 -0.64364160329E-02  0.13081207418E-01  0.18821497871E-01  0.00000000000E+00 0.  1.
     999901    1    3    3    0    0 -0.12103778140E+00 -0.48970052796E-01  0.38495795014E-01  0.89046624688E+00  0.88000000000E+00 0. -1.
        -11    1    4    4    0    0  0.60580096547E-01  0.19897098098E-01 -0.20811219403E-01  0.67076155110E-01  0.51100000000E-03 0. -1.
         11    1    4    4    0    0  0.48553763520E-01  0.35509370731E-01 -0.30765783030E-01  0.67566100140E-01  0.51100000000E-03 0.  1.
</event>
<event>
 8    1  0.1126414E+005  0.1043930E+01  0.7957747E-01            NaN
         13   -1    0    0    0    0  0.00000000000E+00  0.00000000000E+00  0.74505805969E-08  0.10566000000E+00  0.10566000000E+00 0.  1.
     999900   -1    0    0    0    0 -0.00000000000E+00 -0.00000000000E+00 -0.74505805969E-08  0.93827000000E+00  0.93827000000E+00 0. -1.
     999902    2    1    2    0    0 -0.15743380514E-02  0.23658746583E-01  0.10694606190E-01  0.10179186672E+01  0.10175862733E+01 0.  0.
     999903    2    3    3    0    0 -0.88201236677E-01 -0.66183331719E-01 -0.58597750961E-01  0.12641586335E+00  0.19687116070E-01 0.  0.
         14    1    1    2    0    0  0.15743380514E-02 -0.23658746583E-01 -0.10694606190E-01  0.26011332756E-01  0.00000000000E+00 0. -1.
     999901    1    3    3    0    0  0.86626898626E-01  0.89842078301E-01  0.69292357151E-01  0.89150280390E+00  0.88000000000E+00 0. -1.
        -11    1    4    4    0    0 -0.20737161468E-01 -0.71204931014E-02 -0.73101705742E-02  0.23117763788E-01  0.51100000000E-03 0. -1.
         11    1    4    4    0    0 -0.67464075209E-01 -0.59062838617E-01 -0.51287580387E-01  0.10329809956E+00  0.51100000000E-03 0.  1.
</event>
<event>
 8    1  0.1126414E+005  0.1043930E+01  0.7957747E-01            NaN
         13   -1    0    0    0    0  0.00000000000E+00  0.00000000000E+00  0.74505805969E-08  0.10566000000E+00  0.10566000000E+00 0.  1.
     999900   -1    0    0    0    0 -0.00000000000E+00 -0.00000000000E+00 -0.74505805969E-08  0.93827000000E+00  0.93827000000E+00 0. -1.
     999902    2    1    2    0    0  0.24356719022E-01 -0.24194641401E-03 -0.13497582523E-03  0.10195717054E+01  0.10192806953E+01 0.  0.
     999903    2    3    3    0    0 -0.84795808922E-01  0.92618728454E-01 -0.12123651573E-01  0.12789849860E+00  0.21035326145E-01 0.  0.
         14    1    1    2    0    0 -0.24356719022E-01  0.24194641401E-03  0.13497582523E-03  0.24358294646E-01  0.00000000000E+00 0. -1.
     999901    1    3    3    0    0  0.10915252794E+00 -0.92860674868E-01  0.11988675748E-01  0.89167320675E+00  0.88000000000E+00 0. -1.
        -11    1    4    4    0    0 -0.25082242031E-01  0.14440137948E-01 -0.27671210227E-02  0.29078420332E-01  0.51100000000E-03 0.  1.
         11    1    4    4    0    0 -0.59713566891E-01  0.78178590506E-01 -0.93565305506E-02  0.98820078270E-01  0.51100000000E-03 0. -1.
</event>
<event>
 8    1  0.1126414E+005  0.1043930E+01  0.7957747E-01            NaN
         13   -1    0    0    0    0  0.00000000000E+00  0.00000000000E+00  0.74505805969E-08  0.10566000000E+00  0.10566000000E+00 0. -1.
     999900   -1    0    0    0    0 -0.00000000000E+00 -0.00000000000E+00 -0.74505805969E-08  0.93827000000E+00  0.93827000000E+00 0.  1.
     999902    2    1    2    0    0  0.33322610703E-02 -0.18019350974E-01 -0.14222294000E-01  0.10207335645E+01  0.10204699579E+01 0.  0.
     999903    2    3    3    0    0 -0.57728030011E-01  0.10280047987E+00  0.46664550026E-01  0.12830261566E+00  0.19583586142E-01 0.  0.
         14    1    1    2    0    0 -0.33322610703E-02  0.18019350974E-01  0.14222294000E-01  0.23196435502E-01  0.00000000000E+00 0. -1.
     999901    1    3    3    0    0  0.61060291082E-01 -0.12081983084E+00 -0.60886844026E-01  0.89243094884E+00  0.88000000000E+00 0.  1.
        -11    1    4    4    0    0 -0.24130874153E-01  0.56660893288E-01  0.16573579906E-01  0.63778527637E-01  0.51100000000E-03 0. -1.
         11    1    4    4    0    0 -0.33597155859E-01  0.46139586577E-01  0.30090970120E-01  0.64524088022E-01  0.51100000000E-03 0.  1.
</event>
<event>
 8    1  0.1126414E+005  0.1043930E+01  0.7957747E-01            NaN
         13   -1    0    0    0    0  0.00000000000E+00  0.00000000000E+00  0.74505805969E-08  0.10566000000E+00  0.10566000000E+00 0.  1.
     999900   -1    0    0    0    0 -0.00000000000E+00 -0.00000000000E+00 -0.74505805969E-08  0.93827000000E+00  0.93827000000E+00 0.  1.
     999902    2    1    2    0    0 -0.18682427085E-02  0.23038472909E-01  0.25430392537E-02  0.10206764279E+01  0.10204115062E+01 0.  0.
     999903    2    3    3    0    0  0.53900103432E-01 -0.24702729990E-01 -0.11387238880E+00  0.12997901424E+00  0.20302147522E-01 0.  0.
         14    1    1    2    0    0  0.18682427085E-02 -0.23038472909E-01 -0.25430392537E-02  0.23253572058E-01  0.00000000000E+00 0.  1.
     999901    1    3    3    0    0 -0.55768346141E-01  0.47741202899E-01  0.11641542805E+00  0.89069741370E+00  0.88000000000E+00 0. -1.
        -11    1    4    4    0    0  0.78406717347E-02 -0.12649226833E-01 -0.31325735718E-01  0.34684894580E-01  0.51100000000E-03 0. -1.
         11    1    4    4    0    0  0.46059431697E-01 -0.12053503157E-01 -0.82546653078E-01  0.95294119661E-01  0.51100000000E-03 0.  1.
</event>
<event>
 8    1  0.1126414E+005  0.1043930E+01  0.7957747E-01            NaN
         13   -1    0    0    0    0  0.00000000000E+00  0.00000000000E+00  0.74505805969E-08  0.10566000000E+00  0.10566000000E+00 0.  1.
     999900   -1    0    0    0    0 -0.00000000000E+00 -0.00000000000E+00 -0.74505805969E-08  0.93827000000E+00  0.93827000000E+00 0.  1.
     999902    2    1    2    0    0  0.14304909602E-01  0.58424046499E-02 -0.17753287160E-01  0.10203939992E+01  0.10201225270E+01 0.  0.
     999903    2    3    3    0    0 -0.47561028748E-01  0.10054657240E+00  0.64885085720E-01  0.12931298466E+00  0.11836763755E-01 0.  0.
         14    1    1    2    0    0 -0.14304909602E-01 -0.58424046499E-02  0.17753287160E-01  0.23536000846E-01  0.00000000000E+00 0.  1.
     999901    1    3    3    0    0  0.61865938351E-01 -0.94704167750E-01 -0.82638372880E-01  0.89108101449E+00  0.88000000000E+00 0.  1.
        -11    1    4    4    0    0 -0.23969220787E-01  0.37609920922E-01  0.24201913573E-01  0.50744688772E-01  0.51100000000E-03 0.  1.
         11    1    4    4    0    0 -0.23591807961E-01  0.62936651478E-01  0.40683172146E-01  0.78568295890E-01  0.51100000000E-03 0. -1.
</event>
<event>
 8    1  0.1126414E+005  0.1043930E+01  0.7957747E-01            NaN
         13   -1    0    0    0    0  0.00000000000E+00  0.00000000000E+00  0.74505805969E-08  0.10566000000E+00  0.10566000000E+00 0.  1.
     999900   -1    0    0    0    0 -0.00000000000E+00 -0.00000000000E+00 -0.74505805969E-08  0.93827000000E+00  0.93827000000E+00 0.  1.
     999902    2    1    2    0    0 -0.61413696405E-02  0.27324281725E-01 -0.59679017907E-02  0.10152952546E+01  0.10148913761E+01 0.  0.
     999903    2    3    3    0    0 -0.66878008503E-01  0.48399346505E-01  0.94607642633E-01  0.12723639517E+00  0.20574971406E-01 0.  0.
         14    1    1    2    0    0  0.61413696405E-02 -0.27324281725E-01  0.59679017907E-02  0.28634745409E-01  0.00000000000E+00 0. -1.
     999901    1    3    3    0    0  0.60736638863E-01 -0.21075064780E-01 -0.10057554442E+00  0.88805885942E+00  0.88000000000E+00 0.  1.
        -11    1    4    4    0    0 -0.20749672736E-01  0.27443540743E-01  0.38771406264E-01  0.51838016087E-01  0.51100000000E-03 0.  1.
         11    1    4    4    0    0 -0.46128335767E-01  0.20955805762E-01  0.55836236369E-01  0.75398379085E-01  0.51100000000E-03 0. -1.
</event>
<event>
 8    1  0.1126414E+005  0.1043930E+01  0.7957747E-01            NaN
         13   -1    0    0    0    0  0.00000000000E+00  0.00000000000E+00  0.74505805969E-08  0.10566000000E+00  0.10566000000E+00 0. -1.
     999900   -1    0    0    0    0 -0.00000000000E+00 -0.00000000000E+00 -0.74505805969E-08  0.93827000000E+00  0.93827000000E+00 0. -1.
     999902    2    1    2    0    0 -0.64469662304E-02 -0.20633226558E-01  0.90769939732E-02  0.10204846331E+01  0.10202152719E+01 0.  0.
     999903    2    3    3    0    0 -0.11796975295E+00 -0.22302069694E-01  0.52034094137E-01  0.13240500292E+00  0.20230989173E-01 0.  0.
         14    1    1    2    0    0  0.64469662304E-02  0.20633226558E-01 -0.90769939732E-02  0.23445366948E-01  0.00000000000E+00 0.  1.
     999901    1    3    3    0    0  0.11152278672E+00  0.16688431362E-02 -0.42957100163E-01  0.88807963013E+00  0.88000000000E+00 0.  1.
        -11    1    4    4    0    0 -0.64145449361E-01 -0.49556864768E-02  0.19827757297E-01  0.67324576364E-01  0.51100000000E-03 0. -1.
         11    1    4    4    0    0 -0.53824303588E-01 -0.17346383217E-01  0.32206336840E-01  0.65080426559E-01  0.51100000000E-03 0.  1.
</event>
<event>
 8    1  0.1126414E+005  0.1043930E+01  0.7957747E-01            NaN
         13   -1    0    0    0    0  0.00000000000E+00  0.00000000000E+00  0.74505805969E-08  0.10566000000E+00  0.10566000000E+00 0. -1.
     999900   -1    0    0    0    0 -0.00000000000E+00 -0.00000000000E+00 -0.74505805969E-08  0.93827000000E+00  0.93827000000E+00 0.  1.
     999902    2    1    2    0    0 -0.85692066367E-02 -0.29014554317E-02 -0.22856266062E-01  0.10193483271E+01  0.10190518894E+01 0.  0.
     999903    2    3    3    0    0 -0.84225351775E-01  0.88970213293E-01  0.36531540375E-01  0.12935328923E+00  0.19700539536E-01 0.  0.
         14    1    1    2    0    0  0.85692066367E-02  0.29014554317E-02  0.22856266062E-01  0.24581672935E-01  0.00000000000E+00 0. -1.
     999901    1    3    3    0    0  0.75656145139E-01 -0.91871668725E-01 -0.59387806437E-01  0.88999503783E+00  0.88000000000E+00 0.  1.
        -11    1    4    4    0    0 -0.16803633322E-01  0.17036189907E-01 -0.75371387837E-03  0.23946253672E-01  0.51100000000E-03 0. -1.
         11    1    4    4    0    0 -0.67421718454E-01  0.71934023387E-01  0.37285254253E-01  0.10540703556E+00  0.51100000000E-03 0.  1.
</event>
<event>
 8    1  0.1126414E+005  0.1043930E+01  0.7957747E-01            NaN
         13   -1    0    0    0    0  0.00000000000E+00  0.00000000000E+00  0.74505805969E-08  0.10566000000E+00  0.10566000000E+00 0. -1.
     999900   -1    0    0    0    0 -0.00000000000E+00 -0.00000000000E+00 -0.74505805969E-08  0.93827000000E+00  0.93827000000E+00 0.  1.
     999902    2    1    2    0    0  0.10992722013E-01  0.20922941180E-01  0.25330745043E-02  0.10201597272E+01  0.10198827595E+01 0.  0.
     999903    2    3    3    0    0 -0.39464587782E-01 -0.91344863220E-01  0.78993487318E-01  0.12830985484E+00  0.17947425568E-01 0.  0.
         14    1    1    2    0    0 -0.10992722013E-01 -0.20922941180E-01 -0.25330745043E-02  0.23770272849E-01  0.00000000000E+00 0. -1.
     999901    1    3    3    0    0  0.50457309795E-01  0.11226780440E+00 -0.76460412813E-01  0.89184987231E+00  0.88000000000E+00 0. -1.
        -11    1    4    4    0    0 -0.16249298420E-01 -0.46953644705E-01  0.28987889829E-01  0.57526023050E-01  0.51100000000E-03 0.  1.
         11    1    4    4    0    0 -0.23215289362E-01 -0.44391218515E-01  0.50005597489E-01  0.70783831788E-01  0.51100000000E-03 0. -1.
</event>
<event>
 8    1  0.1126414E+005  0.1043930E+01  0.7957747E-01            NaN
         13   -1    0    0    0    0  0.00000000000E+00  0.00000000000E+00  0.74505805969E-08  0.10566000000E+00  0.10566000000E+00 0. -1.
     999900   -1    0    0    0    0 -0.00000000000E+00 -0.00000000000E+00 -0.74505805969E-08  0.93827000000E+00  0.93827000000E+00 0. -1.
     999902    2    1    2    0    0 -0.10095433292E-01  0.16269371049E-01 -0.12562455816E-01  0.10210296615E+01  0.10207728171E+01 0.  0.
     999903    2    3    3    0    0 -0.76239542689E-02  0.12945885640E+00 -0.19094091316E-01  0.13375257396E+00  0.26597867145E-01 0.  0.
         14    1    1    2    0    0  0.10095433292E-01 -0.16269371049E-01  0.12562455816E-01  0.22900338508E-01  0.00000000000E+00 0. -1.
     999901    1    3    3    0    0 -0.24714790232E-02 -0.11318948535E+00  0.65316355004E-02  0.88727708754E+00  0.88000000000E+00 0. -1.
        -11    1    4    4    0    0 -0.86959954980E-02  0.78342433680E-01  0.95769067880E-03  0.78831056983E-01  0.51100000000E-03 0.  1.
         11    1    4    4    0    0  0.10720412291E-02  0.51116422724E-01 -0.20051781995E-01  0.54921516973E-01  0.51100000000E-03 0. -1.
</event>
<event>
 8    1  0.1126414E+005  0.1043930E+01  0.7957747E-01            NaN
         13   -1    0    0    0    0  0.00000000000E+00  0.00000000000E+00  0.74505805969E-08  0.10566000000E+00  0.10566000000E+00 0. -1.
     999900   -1    0    0    0    0 -0.00000000000E+00 -0.00000000000E+00 -0.74505805969E-08  0.93827000000E+00  0.93827000000E+00 0. -1.
     999902    2    1    2    0    0  0.16949571264E-01 -0.16330675514E-01 -0.16837104579E-02  0.10203330975E+01  0.10200602021E+01 0.  0.
     999903    2    3    3    0    0  0.88821890448E-01 -0.17580144657E-01 -0.94505359903E-01  0.13253635831E+00  0.20886203912E-01 0.  0.
         14    1    1    2    0    0 -0.16949571264E-01  0.16330675514E-01  0.16837104579E-02  0.23596902544E-01  0.00000000000E+00 0.  1.
     999901    1    3    3    0    0 -0.71872319184E-01  0.12494691426E-02  0.92821649446E-01  0.88779673915E+00  0.88000000000E+00 0.  1.
        -11    1    4    4    0    0  0.84364719064E-01 -0.17069523779E-01 -0.80618246732E-01  0.11793361392E+00  0.51100000000E-03 0.  1.
         11    1    4    4    0    0  0.44571713839E-02 -0.51062087837E-03 -0.13887113172E-01  0.14602744388E-01  0.51100000000E-03 0. -1.
</event>
<event>
 8    1  0.1126414E+005  0.1043930E+01  0.7957747E-01            NaN
         13   -1    0    0    0    0  0.00000000000E+00  0.00000000000E+00  0.74505805969E-08  0.10566000000E+00  0.10566000000E+00 0.  1.
     999900   -1    0    0    0    0 -0.00000000000E+00 -0.00000000000E+00 -0.74505805969E-08  0.93827000000E+00  0.93827000000E+00 0.  1.
     999902    2    1    2    0    0 -0.10139923865E-01  0.15194022829E-01 -0.14560233562E-01  0.10205702743E+01  0.10203029001E+01 0.  0.
     999903    2    3    3    0    0 -0.22883580628E-01  0.11712147889E+00 -0.57484413454E-01  0.13355612988E+00  0.17078728300E-01 0.  0.
         14    1    1    2    0    0  0.10139923865E-01 -0.15194022829E-01  0.14560233562E-01  0.23359725750E-01  0.00000000000E+00 0.  1.
     999901    1    3    3    0    0  0.12743656763E-01 -0.10192745606E+00  0.42924179891E-01  0.88701414437E+00  0.88000000000E+00 0.  1.
        -11    1    4    4    0    0 -0.76493626261E-02  0.53954148186E-01 -0.35131151727E-01  0.64838428403E-01  0.51100000000E-03 0.  1.
         11    1    4    4    0    0 -0.15234218002E-01  0.63167330701E-01 -0.22353261727E-01  0.68717701481E-01  0.51100000000E-03 0. -1.
</event>
<event>
 8    1  0.1126414E+005  0.1043930E+01  0.7957747E-01            NaN
         13   -1    0    0    0    0  0.00000000000E+00  0.00000000000E+00  0.74505805969E-08  0.10566000000E+00  0.10566000000E+00 0.  1.
     999900   -1    0    0    0    0 -0.00000000000E+00 -0.00000000000E+00 -0.74505805969E-08  0.93827000000E+00  0.93827000000E+00 0. -1.
     999902    2    1    2    0    0 -0.11830998394E-01 -0.20888680236E-01 -0.11439656916E-02  0.10198963123E+01  0.10196130981E+01 0.  0.
     999903    2    3    3    0    0 -0.46183444754E-01  0.10098416600E+00  0.61521070004E-01  0.12862756055E+00  0.20724259348E-01 0.  0.
         14    1    1    2    0    0  0.11830998394E-01  0.20888680236E-01  0.11439656916E-02  0.24033687659E-01  0.00000000000E+00 0.  1.
     999901    1    3    3    0    0  0.34352446361E-01 -0.12187284624E+00 -0.62665035695E-01  0.89126875179E+00  0.88000000000E+00 0. -1.
        -11    1    4    4    0    0 -0.38733087523E-01  0.64506595144E-01  0.35470671912E-01  0.83185230498E-01  0.51100000000E-03 0.  1.
         11    1    4    4    0    0 -0.74503572313E-02  0.36477570860E-01  0.26050398092E-01  0.45442330051E-01  0.51100000000E-03 0. -1.
</event>
<event>
 8    1  0.1126414E+005  0.1043930E+01  0.7957747E-01            NaN
         13   -1    0    0    0    0  0.00000000000E+00  0.00000000000E+00  0.74505805969E-08  0.10566000000E+00  0.10566000000E+00 0. -1.
     999900   -1    0    0    0    0 -0.00000000000E+00 -0.00000000000E+00 -0.74505805969E-08  0.93827000000E+00  0.93827000000E+00 0. -1.
     999902    2    1    2    0    0  0.22066835065E-01  0.69743983505E-02  0.10380594170E-02  0.10207639686E+01  0.10205010606E+01 0.  0.
     999903    2    3    3    0    0 -0.10640045892E+00  0.57434207540E-01 -0.40175096145E-01  0.12905293799E+00  0.20515277238E-01 0.  0.
         14    1    1    2    0    0 -0.22066835065E-01 -0.69743983505E-02 -0.10380594170E-02  0.23166031371E-01  0.00000000000E+00 0.  1.
     999901    1    3    3    0    0  0.12846729398E+00 -0.50459809190E-01  0.41213155562E-01  0.89171103064E+00  0.88000000000E+00 0.  1.
        -11    1    4    4    0    0 -0.54287355397E-01  0.39446989779E-01 -0.27226074273E-01  0.72420316210E-01  0.51100000000E-03 0. -1.
         11    1    4    4    0    0 -0.52113103522E-01  0.17987217761E-01 -0.12949021873E-01  0.56632621783E-01  0.51100000000E-03 0.  1.
</event>
<event>
 8    1  0.1126414E+005  0.1043930E+01  0.7957747E-01            NaN
         13   -1    0    0    0    0  0.00000000000E+00  0.00000000000E+00  0.74505805969E-08  0.10566000000E+00  0.10566000000E+00 0. -1.
     999900   -1    0    0    0    0 -0.00000000000E+00 -0.00000000000E+00 -0.74505805969E-08  0.93827000000E+00  0.93827000000E+00 0.  1.
     999902    2    1    2    0    0  0.39627586583E-02  0.17196165801E-01  0.15292279528E-01  0.10205790817E+01  0.10203119114E+01 0.  0.
     999903    2    3    3    0    0  0.10410542871E+00 -0.74398441197E-01 -0.79465598560E-02  0.12987252501E+00  0.20752267301E-01 0.  0.
         14    1    1    2    0    0 -0.39627586583E-02 -0.17196165801E-01 -0.15292279528E-01  0.23350918346E-01  0.00000000000E+00 0.  1.
     999901    1    3    3    0    0 -0.10014267006E+00  0.91594606998E-01  0.23238839384E-01  0.89070655665E+00  0.88000000000E+00 0. -1.
        -11    1    4    4    0    0  0.72476804226E-01 -0.44368938333E-01 -0.12980232625E-01  0.85966489981E-01  0.51100000000E-03 0.  1.
         11    1    4    4    0    0  0.31628624487E-01 -0.30029502865E-01  0.50336727686E-02  0.43906035027E-01  0.51100000000E-03 0. -1.
</event>
<event>
 8    1  0.1126414E+005  0.1043930E+01  0.7957747E-01            NaN
         13   -1    0    0    0    0  0.00000000000E+00  0.00000000000E+00  0.74505805969E-08  0.10566000000E+00  0.10566000000E+00 0. -1.
     999900   -1    0    0    0    0 -0.00000000000E+00 -0.00000000000E+00 -0.74505805969E-08  0.93827000000E+00  0.93827000000E+00 0. -1.
     999902    2    1    2    0    0  0.10634129678E-01 -0.95916706443E-04 -0.22738246720E-01  0.10188277734E+01  0.10185184879E+01 0.  0.
     999903    2    3    3    0    0 -0.95647410581E-01  0.82782881375E-02  0.79664149003E-01  0.12649815735E+00  0.20939197030E-01 0.  0.
         14    1    1    2    0    0 -0.10634129678E-01  0.95916706443E-04  0.22738246720E-01  0.25102226553E-01  0.00000000000E+00 0. -1.
     999901    1    3    3    0    0  0.10628154026E+00 -0.83742048440E-02 -0.10240239572E+00  0.89232961609E+00  0.88000000000E+00 0. -1.
        -11    1    4    4    0    0 -0.62268550143E-01  0.13962655684E-01  0.45356786308E-01  0.78293213473E-01  0.51100000000E-03 0. -1.
         11    1    4    4    0    0 -0.33378860438E-01 -0.56843675462E-02  0.34307362695E-01  0.48204943881E-01  0.51100000000E-03 0.  1.
</event>
<event>
 8    1  0.1126414E+005  0.1043930E+01  0.7957747E-01            NaN
         13   -1    0    0    0    0  0.00000000000E+00  0.00000000000E+00  0.74505805969E-08  0.10566000000E+00  0.10566000000E+00 0.  1.
     999900   -1    0    0    0    0 -0.00000000000E+00 -0.00000000000E+00 -0.74505805969E-08  0.93827000000E+00  0.93827000000E+00 0.  1.
     999902    2    1    2    0    0 -0.15622605916E-02  0.11504943333E-01  0.20241665347E-01  0.10205948464E+01  0.10203280409E+01 0.  0.
     999903    2    3    3    0    0  0.36417899202E-01 -0.45364948878E-01  0.11640330054E+00  0.13271887684E+00  0.26083134842E-01 0.  0.
         14    1    1    2    0    0  0.15622605916E-02 -0.11504943333E-01 -0.20241665347E-01  0.23335153637E-01  0.00000000000E+00 0. -1.
     999901    1    3    3    0    0 -0.37980159793E-01  0.56869892210E-01 -0.96161635193E-01  0.88787596953E+00  0.88000000000E+00 0.  1.
        -11    1    4    4    0    0  0.15069481552E-01 -0.17020577174E-01  0.21091252560E-01  0.31014373718E-01  0.51100000000E-03 0. -1.
         11    1    4    4    0    0  0.21348417650E-01 -0.28344371704E-01  0.95312047981E-01  0.10170450312E+00  0.51100000000E-03 0.  1.
</event>
<event>
 8    1  0.1126414E+005  0.1043930E+01  0.7957747E-01            NaN
         13   -1    0    0    0    0  0.00000000000E+00  0.00000000000E+00  0.74505805969E-08  0.10566000000E+00  0.10566000000E+00 0.  1.
     999900   -1    0    0    0    0 -0.00000000000E+00 -0.00000000000E+00 -0.74505805969E-08  0.93827000000E+00  0.93827000000E+00 0.  1.
     999902    2    1    2    0    0  0.21656541583E-01 -0.10593391650E-01 -0.20034443583E-02  0.10197382756E+01  0.10194512795E+01 0.  0.
     999903    2    3    3    0    0  0.92036755854E-01  0.37403551211E-01  0.85266364308E-01  0.13132784084E+00  0.10337254331E-01 0.  0.
         14    1    1    2    0    0 -0.21656541583E-01  0.10593391650E-01  0.20034443583E-02  0.24191724397E-01  0.00000000000E+00 0.  1.
     999901    1    3    3    0    0 -0.70380214270E-01 -0.47996942861E-01 -0.87269808666E-01  0.88841043476E+00  0.88000000000E+00 0.  1.
        -11    1    4    4    0    0  0.55741447230E-01  0.20402013684E-01  0.56865456903E-01  0.82202751849E-01  0.51100000000E-03 0. -1.
         11    1    4    4    0    0  0.36295308623E-01  0.17001537527E-01  0.28400907404E-01  0.49125088995E-01  0.51100000000E-03 0.  1.
</event>
<event>
 8    1  0.1126414E+005  0.1043930E+01  0.7957747E-01            NaN
         13   -1    0    0    0    0  0.00000000000E+00  0.00000000000E+00  0.74505805969E-08  0.10566000000E+00  0.10566000000E+00 0.  1.
     999900   -1    0    0    0    0 -0.00000000000E+00 -0.00000000000E+00 -0.74505805969E-08  0.93827000000E+00  0.93827000000E+00 0.  1.
     999902    2    1    2    0    0 -0.88133690238E-02  0.54725467022E-02  0.21605533692E-01  0.10199628699E+01  0.10196812407E+01 0.  0.
     999903    2    3    3    0    0  0.10934705970E+00  0.50884868606E-01  0.45895270995E-01  0.13057310309E+00  0.19922601069E-01 0.  0.
         14    1    1    2    0    0  0.88133690238E-02 -0.54725467022E-02 -0.21605533692E-01  0.23967130138E-01  0.00000000000E+00 0. -1.
     999901    1    3    3    0    0 -0.11816042872E+00 -0.45412321904E-01 -0.24289737303E-01  0.88938976677E+00  0.88000000000E+00 0. -1.
        -11    1    4    4    0    0  0.46274802523E-01  0.21879617706E-01  0.90684657686E-02  0.51986279074E-01  0.51100000000E-03 0.  1.
         11    1    4    4    0    0  0.63072257176E-01  0.29005250899E-01  0.36826805226E-01  0.78586824018E-01  0.51100000000E-03 0. -1.
</event>
<event>
 8    1  0.1126414E+005  0.1043930E+01  0.7957747E-01            NaN
         13   -1    0    0    0    0  0.00000000000E+00  0.00000000000E+00  0.74505805969E-08  0.10566000000E+00  0.10566000000E+00 0.  1.
     999900   -1    0    0    0    0 -0.00000000000E+00 -0.00000000000E+00 -0.74505805969E-08  0.93827000000E+00  0.93827000000E+00 0.  1.
     999902    2    1    2    0    0 -0.15567848127E-01 -0.63252525969E-02  0.14177081278E-01  0.10219446333E+01  0.10217081174E+01 0.  0.
     999903    2    3    3    0    0  0.59446883649E-02 -0.12101215244E+00  0.51985722263E-01  0.13343725147E+00  0.20584081255E-01 0.  0.
         14    1    1    2    0    0  0.15567848127E-01  0.63252525969E-02 -0.14177081278E-01  0.21985366709E-01  0.00000000000E+00 0. -1.
     999901    1    3    3    0    0 -0.21512536492E-01  0.11468689985E+00 -0.37808640985E-01  0.88850738182E+00  0.88000000000E+00 0.  1.
        -11    1    4    4    0    0  0.63920820609E-02 -0.39486916704E-01  0.79848977819E-02  0.40793320746E-01  0.51100000000E-03 0.  1.
         11    1    4    4    0    0 -0.44739369594E-03 -0.81525235739E-01  0.44000824481E-01  0.92643930721E-01  0.51100000000E-03 0. -1.
</event>
<event>
 8    1  0.1126414E+005  0.1043930E+01  0.7957747E-01            NaN
         13   -1    0    0    0    0  0.00000000000E+00  0.00000000000E+00  0.74505805969E-08  0.10566000000E+00  0.10566000000E+00 0. -1.
     999900   -1    0    0    0    0 -0.00000000000E+00 -0.00000000000E+00 -0.74505805969E-08  0.93827000000E+00  0.93827000000E+00 0. -1.
     999902    2    1    2    0    0 -0.15349208633E-01  0.13407043677E-01 -0.12383362111E-01  0.10200826798E+01  0.10198038923E+01 0.  0.
     999903    2    3    3    0    0  0.70671852175E-01  0.53608141127E-01 -0.94593819590E-01  0.13116518614E+00  0.19697001406E-01 0.  0.
         14    1    1    2    0    0  0.15349208633E-01 -0.13407043677E-01  0.12383362111E-01  0.23847320248E-01  0.00000000000E+00 0. -1.
     999901    1    3    3    0    0 -0.86021060809E-01 -0.40201097451E-01  0.82210457479E-01  0.88891749362E+00  0.88000000000E+00 0.  1.
        -11    1    4    4    0    0  0.10938405540E-01  0.75584302639E-02 -0.26033128388E-01  0.29236338322E-01  0.51100000000E-03 0. -1.
         11    1    4    4    0    0  0.59733446635E-01  0.46049710863E-01 -0.68560691202E-01  0.10192884781E+00  0.51100000000E-03 0.  1.
</event>
<event>
 8    1  0.1126414E+005  0.1043930E+01  0.7957747E-01            NaN
         13   -1    0    0    0    0  0.00000000000E+00  0.00000000000E+00  0.74505805969E-08  0.10566000000E+00  0.10566000000E+00 0.  1.
     999900   -1    0    0    0    0 -0.00000000000E+00 -0.00000000000E+00 -0.74505805969E-08  0.93827000000E+00  0.93827000000E+00 0.  1.
     999902    2    1    2    0    0  0.31728790063E-02 -0.17041678398E-01  0.15641972007E-01  0.10205813972E+01  0.10203142805E+01 0.  0.
     999903    2    3    3    0    0 -0.10518261454E+00 -0.10305126127E-01  0.76275291474E-01  0.13183919975E+00  0.19851359546E-01 0.  0.
         14    1    1    2    0    0 -0.31728790063E-02  0.17041678398E-01 -0.15641972007E-01  0.23348602787E-01  0.00000000000E+00 0. -1.
     999901    1    3    3    0    0  0.10835549355E+00 -0.67365522712E-02 -0.60633319467E-01  0.88874219746E+00  0.88000000000E+00 0.  1.
        -11    1    4    4    0    0 -0.45929482657E-01 -0.13840350688E-01  0.30095183980E-01  0.56630856467E-01  0.51100000000E-03 0.  1.
         11    1    4    4    0    0 -0.59253131883E-01  0.35352245609E-02  0.46180107494E-01  0.75208343286E-01  0.51100000000E-03 0. -1.
</event>
<event>
 8    1  0.1126414E+005  0.1043930E+01  0.7957747E-01            NaN
         13   -1    0    0    0    0  0.00000000000E+00  0.00000000000E+00  0.74505805969E-08  0.10566000000E+00  0.10566000000E+00 0. -1.
     999900   -1    0    0    0    0 -0.00000000000E+00 -0.00000000000E+00 -0.74505805969E-08  0.93827000000E+00  0.93827000000E+00 0.  1.
     999902    2    1    2    0    0 -0.52109514860E-02  0.24160625516E-02  0.23232144243E-01  0.10199983494E+01  0.10197175633E+01 0.  0.
     999903    2    3    3    0    0 -0.82360654273E-01  0.65381625233E-01  0.78277881380E-01  0.13267272040E+00  0.20410530009E-01 0.  0.
         14    1    1    2    0    0  0.52109514860E-02 -0.24160625516E-02 -0.23232144243E-01  0.23931650586E-01  0.00000000000E+00 0.  1.
     999901    1    3    3    0    0  0.77149702787E-01 -0.62965562681E-01 -0.55045737137E-01  0.88732562901E+00  0.88000000000E+00 0. -1.
        -11    1    4    4    0    0 -0.59642279134E-01  0.39343495747E-01  0.61413788622E-01  0.94217974250E-01  0.51100000000E-03 0. -1.
         11    1    4    4    0    0 -0.22718375139E-01  0.26038129486E-01  0.16864092759E-01  0.38454746153E-01  0.51100000000E-03 0.  1.
</event>
<event>
 8    1  0.1126414E+005  0.1043930E+01  0.7957747E-01            NaN
         13   -1    0    0    0    0  0.00000000000E+00  0.00000000000E+00  0.74505805969E-08  0.10566000000E+00  0.10566000000E+00 0.  1.
     999900   -1    0    0    0    0 -0.00000000000E+00 -0.00000000000E+00 -0.74505805969E-08  0.93827000000E+00  0.93827000000E+00 0. -1.
     999902    2    1    2    0    0 -0.20290701415E-01 -0.10177568456E-01  0.84532661898E-02  0.10197070115E+01  0.10194192641E+01 0.  0.
     999903    2    3    3    0    0 -0.10180224313E+00  0.20407659418E-01 -0.77674599667E-01  0.13122651261E+00  0.20171388385E-01 0.  0.
         14    1    1    2    0    0  0.20290701415E-01  0.10177568456E-01 -0.84532661898E-02  0.24222988521E-01  0.00000000000E+00 0.  1.
     999901    1    3    3    0    0  0.81511541712E-01 -0.30585227874E-01  0.86127865857E-01  0.88848049887E+00  0.88000000000E+00 0.  1.
        -11    1    4    4    0    0 -0.18282515549E-01  0.18454023064E-02 -0.52171723692E-02  0.19108529326E-01  0.51100000000E-03 0.  1.
         11    1    4    4    0    0 -0.83519727578E-01  0.18562257112E-01 -0.72457427298E-01  0.11211798328E+00  0.51100000000E-03 0. -1.
</event>
<event>
 7    1  0.1279960E+005  0.1043930E+01  0.7957747E-01            NaN
         13   -1    0    0    0    0  0.00000000000E+00  0.00000000000E+00  0.74505805969E-08  0.10566000000E+00  0.10566000000E+00 0. -1.
     999900   -1    0    0    0    0 -0.00000000000E+00 -0.00000000000E+00 -0.74505805969E-08  0.93827000000E+00  0.93827000000E+00 0.  1.
     999903    2    1    2    0    0 -0.10664325411E+00 -0.48066976798E-01 -0.18502173103E-01  0.12002742933E+00  0.19520130014E-01 0.  0.
         14    1    1    2    0    0  0.30234788897E-01 -0.61335215126E-03  0.24985486171E-01  0.39227454413E-01  0.00000000000E+00 0. -1.
     999901    1    1    2    0    0  0.76408465212E-01  0.48680328949E-01 -0.64833130679E-02  0.88467511626E+00  0.88000000000E+00 0.  1.
        -11    1    3    3    0    0 -0.69357052958E-01 -0.41062010606E-01 -0.14177741527E-01  0.81839837401E-01  0.51100000000E-03 0.  1.
         11    1    3    3    0    0 -0.37286201151E-01 -0.70049661923E-02 -0.43244315763E-02  0.38187591926E-01  0.51100000000E-03 0. -1.
</event>
<event>
 8    1  0.1126414E+005  0.1043930E+01  0.7957747E-01            NaN
         13   -1    0    0    0    0  0.00000000000E+00  0.00000000000E+00  0.74505805969E-08  0.10566000000E+00  0.10566000000E+00 0. -1.
     999900   -1    0    0    0    0 -0.00000000000E+00 -0.00000000000E+00 -0.74505805969E-08  0.93827000000E+00  0.93827000000E+00 0.  1.
     999902    2    1    2    0    0 -0.24909350201E-03  0.13279501373E-01 -0.19210822903E-01  0.10205748524E+01  0.10203075842E+01 0.  0.
     999903    2    3    3    0    0  0.49334114070E-01 -0.47575557228E-01  0.10667916738E+00  0.12815672039E+00  0.18612140439E-01 0.  0.
         14    1    1    2    0    0  0.24909350201E-03 -0.13279501373E-01  0.19210822903E-01  0.23355147632E-01  0.00000000000E+00 0. -1.
     999901    1    3    3    0    0 -0.49583207572E-01  0.60855058601E-01 -0.12588999028E+00  0.89241813198E+00  0.88000000000E+00 0.  1.
        -11    1    4    4    0    0  0.48873820820E-01 -0.42517372020E-01  0.91265519378E-01  0.11191976337E+00  0.51100000000E-03 0.  1.
         11    1    4    4    0    0  0.46029325013E-03 -0.50581852079E-02  0.15413648001E-01  0.16236957017E-01  0.51100000000E-03 0. -1.
</event>
<event>
 8    1  0.1126414E+005  0.1043930E+01  0.7957747E-01            NaN
         13   -1    0    0    0    0  0.00000000000E+00  0.00000000000E+00  0.74505805969E-08  0.10566000000E+00  0.10566000000E+00 0.  1.
     999900   -1    0    0    0    0 -0.00000000000E+00 -0.00000000000E+00 -0.74505805969E-08  0.93827000000E+00  0.93827000000E+00 0. -1.
     999902    2    1    2    0    0 -0.11501521556E-01 -0.21077897959E-01  0.10599050602E-01  0.10176830449E+01  0.10173445223E+01 0.  0.
     999903    2    3    3    0    0 -0.10264931667E+00 -0.76475640188E-01 -0.21356856326E-01  0.13066669192E+00  0.15240187346E-01 0.  0.
         14    1    1    2    0    0  0.11501521556E-01  0.21077897959E-01 -0.10599050602E-01  0.26246955140E-01  0.00000000000E+00 0. -1.
     999901    1    3    3    0    0  0.91147795112E-01  0.55397742229E-01  0.31955906928E-01  0.88701635294E+00  0.88000000000E+00 0.  1.
        -11    1    4    4    0    0 -0.39711049806E-01 -0.34628368551E-01 -0.15171183452E-01  0.54831718134E-01  0.51100000000E-03 0.  1.
         11    1    4    4    0    0 -0.62938266861E-01 -0.41847271637E-01 -0.61856728736E-02  0.75834973785E-01  0.51100000000E-03 0. -1.
</event>
<event>
 8    1  0.1126414E+005  0.1043930E+01  0.7957747E-01            NaN
         13   -1    0    0    0    0  0.00000000000E+00  0.00000000000E+00  0.74505805969E-08  0.10566000000E+00  0.10566000000E+00 0. -1.
     999900   -1    0    0    0    0 -0.00000000000E+00 -0.00000000000E+00 -0.74505805969E-08  0.93827000000E+00  0.93827000000E+00 0. -1.
     999902    2    1    2    0    0  0.23293616211E-01  0.45908721171E-02 -0.10180147790E-01  0.10180977707E+01  0.10177699969E+01 0.  0.
     999903    2    3    3    0    0  0.94933118118E-01  0.86990626976E-02  0.86491389029E-01  0.12990044941E+00  0.17475576504E-01 0.  0.
         14    1    1    2    0    0 -0.23293616211E-01 -0.45908721171E-02  0.10180147790E-01  0.25832229327E-01  0.00000000000E+00 0. -1.
     999901    1    3    3    0    0 -0.71639501906E-01 -0.41081905805E-02 -0.96671536819E-01  0.88819732126E+00  0.88000000000E+00 0. -1.
        -11    1    4    4    0    0  0.37098122314E-01  0.11417397636E-01  0.38833485386E-01  0.54908363263E-01  0.51100000000E-03 0.  1.
         11    1    4    4    0    0  0.57834995804E-01 -0.27183349382E-02  0.47657903642E-01  0.74992086149E-01  0.51100000000E-03 0. -1.
</event>
<event>
 8    1  0.1126414E+005  0.1043930E+01  0.7957747E-01            NaN
         13   -1    0    0    0    0  0.00000000000E+00  0.00000000000E+00  0.74505805969E-08  0.10566000000E+00  0.10566000000E+00 0.  1.
     999900   -1    0    0    0    0 -0.00000000000E+00 -0.00000000000E+00 -0.74505805969E-08  0.93827000000E+00  0.93827000000E+00 0.  1.
     999902    2    1    2    0    0 -0.70692831718E-02  0.16658280069E-01 -0.14720764256E-01  0.10206024635E+01  0.10203358342E+01 0.  0.
     999903    2    3    3    0    0  0.89018740459E-01  0.88925741153E-01 -0.35200376196E-01  0.13219101111E+00  0.20081666780E-01 0.  0.
         14    1    1    2    0    0  0.70692831718E-02 -0.16658280069E-01  0.14720764256E-01  0.23327536512E-01  0.00000000000E+00 0.  1.
     999901    1    3    3    0    0 -0.96088023631E-01 -0.72267461085E-01  0.20479611939E-01  0.88841145238E+00  0.88000000000E+00 0. -1.
        -11    1    4    4    0    0  0.39576581955E-01  0.53458691876E-01 -0.16492134828E-01  0.68530206541E-01  0.51100000000E-03 0.  1.
         11    1    4    4    0    0  0.49442158504E-01  0.35467049277E-01 -0.18708241368E-01  0.63660804566E-01  0.51100000000E-03 0. -1.
</event>
<event>
 8    1  0.1126414E+005  0.1043930E+01  0.7957747E-01            NaN
         13   -1    0    0    0    0  0.00000000000E+00  0.00000000000E+00  0.74505805969E-08  0.10566000000E+00  0.10566000000E+00 0. -1.
     999900   -1    0    0    0    0 -0.00000000000E+00 -0.00000000000E+00 -0.74505805969E-08  0.93827000000E+00  0.93827000000E+00 0. -1.
     999902    2    1    2    0    0 -0.76089496007E-02 -0.11652143232E-01  0.21675378447E-01  0.10181716890E+01  0.10178458123E+01 0.  0.
     999903    2    3    3    0    0  0.90758376700E-01  0.59580738035E-01 -0.60851719940E-01  0.12600523801E+00  0.19683518516E-01 0.  0.
         14    1    1    2    0    0  0.76089496007E-02  0.11652143232E-01 -0.21675378447E-01  0.25758311022E-01  0.00000000000E+00 0.  1.
     999901    1    3    3    0    0 -0.98367326301E-01 -0.71232881267E-01  0.82527098387E-01  0.89216645096E+00  0.88000000000E+00 0.  1.
        -11    1    4    4    0    0  0.30691541421E-01  0.31049660773E-01 -0.20659639252E-01  0.48302525441E-01  0.51100000000E-03 0.  1.
         11    1    4    4    0    0  0.60066835279E-01  0.28531077262E-01 -0.40192080688E-01  0.77702712573E-01  0.51100000000E-03 0. -1.
</event>
<event>
 8    1  0.1126414E+005  0.1043930E+01  0.7957747E-01            NaN
         13   -1    0    0    0    0  0.00000000000E+00  0.00000000000E+00  0.74505805969E-08  0.10566000000E+00  0.10566000000E+00 0. -1.
     999900   -1    0    0    0    0 -0.00000000000E+00 -0.00000000000E+00 -0.74505805969E-08  0.93827000000E+00  0.93827000000E+00 0. -1.
     999902    2    1    2    0    0 -0.38333220801E-02  0.22949508638E-01  0.41020289267E-02  0.10203037234E+01  0.10200301403E+01 0.  0.
     999903    2    3    3    0    0 -0.12250641372E+00 -0.28222092348E-01 -0.28970718695E-01  0.13024999352E+00  0.17929037138E-01 0.  0.
         14    1    1    2    0    0  0.38333220801E-02 -0.22949508638E-01 -0.41020289267E-02  0.23626276605E-01  0.00000000000E+00 0.  1.
     999901    1    3    3    0    0  0.11867309164E+00  0.51171600985E-01  0.33072747621E-01  0.89005372987E+00  0.88000000000E+00 0.  1.
        -11    1    4    4    0    0 -0.11245531996E+00 -0.20702794750E-01 -0.24722815524E-01  0.11698839014E+00  0.51100000000E-03 0. -1.
         11    1    4    4    0    0 -0.10051093755E-01 -0.75192975977E-02 -0.42479031707E-02  0.13261603387E-01  0.51100000000E-03 0.  1.
</event>
<event>
 8    1  0.1126414E+005  0.1043930E+01  0.7957747E-01            NaN
         13   -1    0    0    0    0  0.00000000000E+00  0.00000000000E+00  0.74505805969E-08  0.10566000000E+00  0.10566000000E+00 0. -1.
     999900   -1    0    0    0    0 -0.00000000000E+00 -0.00000000000E+00 -0.74505805969E-08  0.93827000000E+00  0.93827000000E+00 0. -1.
     999902    2    1    2    0    0  0.19767096328E-01 -0.10765394744E-01 -0.12188966229E-02  0.10213885375E+01  0.10211397686E+01 0.  0.
     999903    2    3    3    0    0  0.62505118403E-01  0.56544825784E-01  0.99616045617E-01  0.13204895678E+00  0.20232728249E-01 0.  0.
         14    1    1    2    0    0 -0.19767096328E-01  0.10765394744E-01  0.12188966229E-02  0.22541462469E-01  0.00000000000E+00 0. -1.
     999901    1    3    3    0    0 -0.42738022075E-01 -0.67310220528E-01 -0.10083494224E+00  0.88933958075E+00  0.88000000000E+00 0. -1.
        -11    1    4    4    0    0  0.41625979622E-01  0.47568330614E-01  0.65276528367E-01  0.90866685499E-01  0.51100000000E-03 0.  1.
         11    1    4    4    0    0  0.20879138781E-01  0.89764951692E-02  0.34339517250E-01  0.41182271279E-01  0.51100000000E-03 0. -1.
</event>
<event>
 8    1  0.1126414E+005  0.1043930E+01  0.7957747E-01            NaN
         13   -1    0    0    0    0  0.00000000000E+00  0.00000000000E+00  0.74505805969E-08  0.10566000000E+00  0.10566000000E+00 0. -1.
     999900   -1    0    0    0    0 -0.00000000000E+00 -0.00000000000E+00 -0.74505805969E-08  0.93827000000E+00  0.93827000000E+00 0. -1.
     999902    2    1    2    0    0  0.19953397785E-01 -0.12608141991E-01  0.38432957429E-02  0.10200161076E+01  0.10197357430E+01 0.  0.
     999903    2    3    3    0    0  0.86157662994E-01  0.94840027915E-01 -0.16790387516E-01  0.13077268601E+00  0.20045061904E-01 0.  0.
         14    1    1    2    0    0 -0.19953397785E-01  0.12608141991E-01 -0.38432957429E-02  0.23913892402E-01  0.00000000000E+00 0. -1.
     999901    1    3    3    0    0 -0.66204265209E-01 -0.10744816991E+00  0.20633683258E-01  0.88924342159E+00  0.88000000000E+00 0.  1.
        -11    1    4    4    0    0  0.57359616836E-01  0.48464699844E-01 -0.10220691644E-01  0.75787046606E-01  0.51100000000E-03 0. -1.
         11    1    4    4    0    0  0.28798046157E-01  0.46375328071E-01 -0.65696958711E-02  0.54985639407E-01  0.51100000000E-03 0.  1.
</event>
<event>
 8    1  0.1126414E+005  0.1043930E+01  0.7957747E-01            NaN
         13   -1    0    0    0    0  0.00000000000E+00  0.00000000000E+00  0.74505805969E-08  0.10566000000E+00  0.10566000000E+00 0.  1.
     999900   -1    0    0    0    0 -0.00000000000E+00 -0.00000000000E+00 -0.74505805969E-08  0.93827000000E+00  0.93827000000E+00 0. -1.
     999902    2    1    2    0    0  0.41317461127E-03  0.61760064953E-02 -0.23325086269E-01  0.10197975857E+01  0.10195120119E+01 0.  0.
     999903    2    3    3    0    0  0.10216815870E+00  0.38297992236E-01  0.65637407492E-01  0.12889903704E+00  0.20040549538E-01 0.  0.
         14    1    1    2    0    0 -0.41317461127E-03 -0.61760064953E-02  0.23325086269E-01  0.24132414279E-01  0.00000000000E+00 0.  1.
     999901    1    3    3    0    0 -0.10175498408E+00 -0.32121985741E-01 -0.88962493760E-01  0.89089854869E+00  0.88000000000E+00 0. -1.
        -11    1    4    4    0    0  0.73285556297E-01  0.22069495193E-01  0.36585776217E-01  0.84832868172E-01  0.51100000000E-03 0.  1.
         11    1    4    4    0    0  0.28882602399E-01  0.16228497043E-01  0.29051631275E-01  0.44066168864E-01  0.51100000000E-03 0. -1.
</event>
<event>
 8    1  0.1126414E+005  0.1043930E+01  0.7957747E-01            NaN
         13   -1    0    0    0    0  0.00000000000E+00  0.00000000000E+00  0.74505805969E-08  0.10566000000E+00  0.10566000000E+00 0.  1.
     999900   -1    0    0    0    0 -0.00000000000E+00 -0.00000000000E+00 -0.74505805969E-08  0.93827000000E+00  0.93827000000E+00 0. -1.
     999902    2    1    2    0    0  0.96357218728E-02  0.10973169959E-01 -0.15837102223E-01  0.10223876835E+01  0.10221607036E+01 0.  0.
     999903    2    3    3    0    0 -0.62757887979E-01  0.17160292627E-01 -0.11479263387E+00  0.13386570147E+00  0.22575409076E-01 0.  0.
         14    1    1    2    0    0 -0.96357218728E-02 -0.10973169959E-01  0.15837102223E-01  0.21542316537E-01  0.00000000000E+00 0. -1.
     999901    1    3    3    0    0  0.72393609852E-01 -0.61871226677E-02  0.98955531642E-01  0.88852198199E+00  0.88000000000E+00 0.  1.
        -11    1    4    4    0    0 -0.16970630768E-01  0.82649132393E-03 -0.50347532786E-01  0.53139632810E-01  0.51100000000E-03 0. -1.
         11    1    4    4    0    0 -0.45787257211E-01  0.16333801303E-01 -0.64445101080E-01  0.80726068665E-01  0.51100000000E-03 0.  1.
</event>
<event>
 8    1  0.1126414E+005  0.1043930E+01  0.7957747E-01            NaN
         13   -1    0    0    0    0  0.00000000000E+00  0.00000000000E+00  0.74505805969E-08  0.10566000000E+00  0.10566000000E+00 0.  1.
     999900   -1    0    0    0    0 -0.00000000000E+00 -0.00000000000E+00 -0.74505805969E-08  0.93827000000E+00  0.93827000000E+00 0.  1.
     999902    2    1    2    0    0 -0.24171379675E-01  0.25813115211E-02  0.20407786953E-02  0.10195356658E+01  0.10192437835E+01 0.  0.
     999903    2    3    3    0    0  0.11493988211E+00 -0.35650341351E-01 -0.35333457603E-01  0.12700531000E+00  0.19994304335E-01 0.  0.
         14    1    1    2    0    0  0.24171379675E-01 -0.25813115211E-02 -0.20407786953E-02  0.24394334224E-01  0.00000000000E+00 0. -1.
     999901    1    3    3    0    0 -0.13911126178E+00  0.38231652872E-01  0.37374236298E-01  0.89253035577E+00  0.88000000000E+00 0.  1.
        -11    1    4    4    0    0  0.80280182094E-01 -0.27858092678E-01 -0.15710567414E-01  0.86417961178E-01  0.51100000000E-03 0. -1.
         11    1    4    4    0    0  0.34659700013E-01 -0.77922486723E-02 -0.19622890188E-01  0.40587348825E-01  0.51100000000E-03 0.  1.
</event>
<event>
 8    1  0.1126414E+005  0.1043930E+01  0.7957747E-01            NaN
         13   -1    0    0    0    0  0.00000000000E+00  0.00000000000E+00  0.74505805969E-08  0.10566000000E+00  0.10566000000E+00 0.  1.
     999900   -1    0    0    0    0 -0.00000000000E+00 -0.00000000000E+00 -0.74505805969E-08  0.93827000000E+00  0.93827000000E+00 0. -1.
     999902    2    1    2    0    0  0.59141674217E-02 -0.22256901655E-01  0.22842994237E-02  0.10207877211E+01  0.10205253581E+01 0.  0.
     999903    2    3    3    0    0  0.92262572546E-02  0.12212726800E+00 -0.32517790459E-01  0.12833663348E+00  0.20314807002E-01 0.  0.
         14    1    1    2    0    0 -0.59141674217E-02  0.22256901655E-01 -0.22842994237E-02  0.23142278872E-01  0.00000000000E+00 0. -1.
     999901    1    3    3    0    0 -0.33120898329E-02 -0.14438416966E+00  0.34802089883E-01  0.89245108765E+00  0.88000000000E+00 0.  1.
        -11    1    4    4    0    0 -0.52777058493E-02  0.30377584949E-01 -0.35847382405E-02  0.31044537614E-01  0.51100000000E-03 0.  1.
         11    1    4    4    0    0  0.14503963104E-01  0.91749683053E-01 -0.28933052219E-01  0.97292095864E-01  0.51100000000E-03 0. -1.
</event>
<event>
 8    1  0.1126414E+005  0.1043930E+01  0.7957747E-01            NaN
         13   -1    0    0    0    0  0.00000000000E+00  0.00000000000E+00  0.74505805969E-08  0.10566000000E+00  0.10566000000E+00 0. -1.
     999900   -1    0    0    0    0 -0.00000000000E+00 -0.00000000000E+00 -0.74505805969E-08  0.93827000000E+00  0.93827000000E+00 0.  1.
     999902    2    1    2    0    0 -0.96839466442E-03 -0.23352161972E-01  0.15980115350E-02  0.10205032013E+01  0.10202342716E+01 0.  0.
     999903    2    3    3    0    0  0.80099177386E-01 -0.67644849989E-01 -0.77947435063E-01  0.13209942399E+00  0.19564029152E-01 0.  0.
         14    1    1    2    0    0  0.96839466442E-03  0.23352161972E-01 -0.15980115350E-02  0.23426798711E-01  0.00000000000E+00 0.  1.
     999901    1    3    3    0    0 -0.81067572050E-01  0.44292688017E-01  0.79545446598E-01  0.88840377730E+00  0.88000000000E+00 0. -1.
        -11    1    4    4    0    0  0.59753786375E-01 -0.44330082824E-01 -0.64047082624E-01  0.98173118230E-01  0.51100000000E-03 0.  1.
         11    1    4    4    0    0  0.20345391010E-01 -0.23314767166E-01 -0.13900352439E-01  0.33926305756E-01  0.51100000000E-03 0. -1.
</event>
<event>
 8    1  0.1126414E+005  0.1043930E+01  0.7957747E-01            NaN
         13   -1    0    0    0    0  0.00000000000E+00  0.00000000000E+00  0.74505805969E-08  0.10566000000E+00  0.10566000000E+00 0.  1.
     999900   -1    0    0    0    0 -0.00000000000E+00 -0.00000000000E+00 -0.74505805969E-08  0.93827000000E+00  0.93827000000E+00 0.  1.
     999902    2    1    2    0    0  0.65372688203E-02  0.23940759012E-01 -0.88316269564E-03  0.10190970420E+01  0.10187944372E+01 0.  0.
     999903    2    3    3    0    0 -0.25917996205E-01 -0.78741226824E-01  0.94917297601E-01  0.12737137645E+00  0.18500022320E-01 0.  0.
         14    1    1    2    0    0 -0.65372688203E-02 -0.23940759012E-01  0.88316269564E-03  0.24832957980E-01  0.00000000000E+00 0. -1.
     999901    1    3    3    0    0  0.32455265025E-01  0.10268198584E+00 -0.95800460297E-01  0.89172566557E+00  0.88000000000E+00 0.  1.
        -11    1    4    4    0    0 -0.82035574076E-02 -0.32131520102E-01  0.25186448780E-01  0.41645543115E-01  0.51100000000E-03 0.  1.
         11    1    4    4    0    0 -0.17714438797E-01 -0.46609706721E-01  0.69730848821E-01  0.85725833334E-01  0.51100000000E-03 0. -1.
</event>
<event>
 8    1  0.1126414E+005  0.1043930E+01  0.7957747E-01            NaN
         13   -1    0    0    0    0  0.00000000000E+00  0.00000000000E+00  0.74505805969E-08  0.10566000000E+00  0.10566000000E+00 0. -1.
     999900   -1    0    0    0    0 -0.00000000000E+00 -0.00000000000E+00 -0.74505805969E-08  0.93827000000E+00  0.93827000000E+00 0.  1.
     999902    2    1    2    0    0 -0.12639499522E-01  0.16837245343E-01  0.71609876729E-02  0.10216919802E+01  0.10214499366E+01 0.  0.
     999903    2    3    3    0    0  0.78181265156E-02 -0.12548990183E+00 -0.23541979612E-01  0.12949345776E+00  0.20136837778E-01 0.  0.
         14    1    1    2    0    0  0.12639499522E-01 -0.16837245343E-01 -0.71609876729E-02  0.22238019772E-01  0.00000000000E+00 0.  1.
     999901    1    3    3    0    0 -0.20457626038E-01  0.14232714718E+00  0.30702967285E-01  0.89219852246E+00  0.88000000000E+00 0.  1.
        -11    1    4    4    0    0  0.59438264412E-02 -0.18698459286E-01 -0.93674335174E-02  0.21747905282E-01  0.51100000000E-03 0. -1.
         11    1    4    4    0    0  0.18743000744E-02 -0.10679144255E+00 -0.14174546095E-01  0.10774555248E+00  0.51100000000E-03 0.  1.
</event>
<event>
 8    1  0.1126414E+005  0.1043930E+01  0.7957747E-01            NaN
         13   -1    0    0    0    0  0.00000000000E+00  0.00000000000E+00  0.74505805969E-08  0.10566000000E+00  0.10566000000E+00 0. -1.
     999900   -1    0    0    0    0 -0.00000000000E+00 -0.00000000000E+00 -0.74505805969E-08  0.93827000000E+00  0.93827000000E+00 0. -1.
     999902    2    1    2    0    0 -0.80253830916E-02 -0.67014973797E-02  0.20861139274E-01  0.10205953911E+01  0.10203285982E+01 0.  0.
     999903    2    3    3    0    0  0.35393421471E-01 -0.50112279953E-01 -0.11129451889E+00  0.12861175525E+00  0.19763065777E-01 0.  0.
         14    1    1    2    0    0  0.80253830916E-02  0.67014973797E-02 -0.20861139274E-01  0.23334608904E-01  0.00000000000E+00 0.  1.
     999901    1    3    3    0    0 -0.43418804562E-01  0.43410782573E-01  0.13215565816E+00  0.89198363585E+00  0.88000000000E+00 0.  1.
        -11    1    4    4    0    0  0.28104288410E-01 -0.30002005799E-01 -0.87086899784E-01  0.96303481838E-01  0.51100000000E-03 0. -1.
         11    1    4    4    0    0  0.72891330608E-02 -0.20110274154E-01 -0.24207619102E-01  0.32308273413E-01  0.51100000000E-03 0.  1.
</event>
<event>
 8    1  0.1126414E+005  0.1043930E+01  0.7957747E-01            NaN
         13   -1    0    0    0    0  0.00000000000E+00  0.00000000000E+00  0.74505805969E-08  0.10566000000E+00  0.10566000000E+00 0. -1.
     999900   -1    0    0    0    0 -0.00000000000E+00 -0.00000000000E+00 -0.74505805969E-08  0.93827000000E+00  0.93827000000E+00 0. -1.
     999902    2    1    2    0    0  0.88914814444E-02 -0.27608933241E-02 -0.13121761053E-01  0.10278408239E+01  0.10277148913E+01 0.  0.
     999903    2    3    3    0    0 -0.12781359492E+00 -0.71542741454E-02  0.40376957857E-01  0.13566948799E+00  0.19708185161E-01 0.  0.
         14    1    1    2    0    0 -0.88914814444E-02  0.27608933241E-02  0.13121761053E-01  0.16089176093E-01  0.00000000000E+00 0. -1.
     999901    1    3    3    0    0  0.13670507636E+00  0.43933808213E-02 -0.53498718911E-01  0.89217133591E+00  0.88000000000E+00 0. -1.
        -11    1    4    4    0    0 -0.11939088710E+00 -0.54890391261E-02  0.42431297753E-01  0.12682661244E+00  0.51100000000E-03 0. -1.
         11    1    4    4    0    0 -0.84227078219E-02 -0.16652350193E-02 -0.20543398954E-02  0.88428755576E-02  0.51100000000E-03 0.  1.
</event>
<event>
 8    1  0.1126414E+005  0.1043930E+01  0.7957747E-01            NaN
         13   -1    0    0    0    0  0.00000000000E+00  0.00000000000E+00  0.74505805969E-08  0.10566000000E+00  0.10566000000E+00 0.  1.
     999900   -1    0    0    0    0 -0.00000000000E+00 -0.00000000000E+00 -0.74505805969E-08  0.93827000000E+00  0.93827000000E+00 0. -1.
     999902    2    1    2    0    0  0.22742922953E-01 -0.59720370093E-02 -0.62984821945E-02  0.10195871027E+01  0.10192964649E+01 0.  0.
     999903    2    3    3    0    0  0.33446423420E-02  0.36314424318E-01  0.12204770074E+00  0.12906075230E+00  0.20763248344E-01 0.  0.
         14    1    1    2    0    0 -0.22742922953E-01  0.59720370093E-02  0.62984821945E-02  0.24342897289E-01  0.00000000000E+00 0.  1.
     999901    1    3    3    0    0  0.19398280611E-01 -0.42286461328E-01 -0.12834618294E+00  0.89052635041E+00  0.88000000000E+00 0. -1.
        -11    1    4    4    0    0  0.58046566558E-02  0.32214287702E-01  0.75846448686E-01  0.82609922348E-01  0.51100000000E-03 0. -1.
         11    1    4    4    0    0 -0.24600143137E-02  0.41001366169E-02  0.46201252055E-01  0.46450829952E-01  0.51100000000E-03 0.  1.
</event>
<event>
 8    1  0.1126414E+005  0.1043930E+01  0.7957747E-01            NaN
         13   -1    0    0    0    0  0.00000000000E+00  0.00000000000E+00  0.74505805969E-08  0.10566000000E+00  0.10566000000E+00 0.  1.
     999900   -1    0    0    0    0 -0.00000000000E+00 -0.00000000000E+00 -0.74505805969E-08  0.93827000000E+00  0.93827000000E+00 0. -1.
     999902    2    1    2    0    0 -0.54943007928E-02 -0.16393856098E-01  0.16550501020E-01  0.10199954028E+01  0.10197145467E+01 0.  0.
     999903    2    3    3    0    0  0.49086839884E-01 -0.10472263097E+00 -0.56396503408E-01  0.13089341830E+00  0.24003626203E-01 0.  0.
         14    1    1    2    0    0  0.54943007928E-02  0.16393856098E-01 -0.16550501020E-01  0.23934597197E-01  0.00000000000E+00 0. -1.
     999901    1    3    3    0    0 -0.54581140677E-01  0.88328774873E-01  0.72947004428E-01  0.88910198450E+00  0.88000000000E+00 0.  1.
        -11    1    4    4    0    0  0.40282852931E-01 -0.92192767825E-01 -0.39506562219E-01  0.10808905707E+00  0.51100000000E-03 0. -1.
         11    1    4    4    0    0  0.88039869523E-02 -0.12529863146E-01 -0.16889941189E-01  0.22804361229E-01  0.51100000000E-03 0.  1.
</event>
<event>
 8    1  0.1126414E+005  0.1043930E+01  0.7957747E-01            NaN
         13   -1    0    0    0    0  0.00000000000E+00  0.00000000000E+00  0.74505805969E-08  0.10566000000E+00  0.10566000000E+00 0.  1.
     999900   -1    0    0    0    0 -0.00000000000E+00 -0.00000000000E+00 -0.74505805969E-08  0.93827000000E+00  0.93827000000E+00 0.  1.
     999902    2    1    2    0    0  0.19265032468E-01 -0.28081813645E-02  0.72457001787E-02  0.10231567593E+01  0.10229458571E+01 0.  0.
     999903    2    3    3    0    0  0.10080920404E+00 -0.63949300782E-01 -0.59445255500E-01  0.13476755856E+00  0.19404838297E-01 0.  0.
         14    1    1    2    0    0 -0.19265032468E-01  0.28081813645E-02 -0.72457001787E-02  0.20773240711E-01  0.00000000000E+00 0. -1.
     999901    1    3    3    0    0 -0.81544171573E-01  0.61141119417E-01  0.66690955679E-01  0.88838920073E+00  0.88000000000E+00 0.  1.
        -11    1    4    4    0    0  0.56302543218E-01 -0.36995171437E-01 -0.44084102931E-01  0.80512659468E-01  0.51100000000E-03 0. -1.
         11    1    4    4    0    0  0.44506660822E-01 -0.26954129345E-01 -0.15361152569E-01  0.54254899093E-01  0.51100000000E-03 0.  1.
</event>
<event>
 8    1  0.1126414E+005  0.1043930E+01  0.7957747E-01            NaN
         13   -1    0    0    0    0  0.00000000000E+00  0.00000000000E+00  0.74505805969E-08  0.10566000000E+00  0.10566000000E+00 0. -1.
     999900   -1    0    0    0    0 -0.00000000000E+00 -0.00000000000E+00 -0.74505805969E-08  0.93827000000E+00  0.93827000000E+00 0. -1.
     999902    2    1    2    0    0  0.73728744400E-02 -0.19204912820E-01 -0.12255349062E-01  0.10199846135E+01  0.10197035011E+01 0.  0.
     999903    2    3    3    0    0 -0.11182472078E-01  0.12055798672E+00 -0.37850711253E-01  0.12839440969E+00  0.19828571640E-01 0.  0.
         14    1    1    2    0    0 -0.73728744400E-02  0.19204912820E-01  0.12255349062E-01  0.23945386498E-01  0.00000000000E+00 0. -1.
     999901    1    3    3    0    0  0.18555346518E-01 -0.13976289954E+00  0.25595362191E-01  0.89159020381E+00  0.88000000000E+00 0. -1.
        -11    1    4    4    0    0 -0.51024337482E-02  0.76496154703E-01 -0.33607056711E-01  0.83710166027E-01  0.51100000000E-03 0. -1.
         11    1    4    4    0    0 -0.60800383297E-02  0.44061832015E-01 -0.42436545421E-02  0.44684243660E-01  0.51100000000E-03 0.  1.
</event>
<event>
 8    1  0.1126414E+005  0.1043930E+01  0.7957747E-01            NaN
         13   -1    0    0    0    0  0.00000000000E+00  0.00000000000E+00  0.74505805969E-08  0.10566000000E+00  0.10566000000E+00 0. -1.
     999900   -1    0    0    0    0 -0.00000000000E+00 -0.00000000000E+00 -0.74505805969E-08  0.93827000000E+00  0.93827000000E+00 0.  1.
     999902    2    1    2    0    0  0.23059084965E-02 -0.24554919818E-01 -0.64571299800E-03  0.10192585946E+01  0.10189599621E+01 0.  0.
     999903    2    3    3    0    0 -0.12721484363E-01  0.40833078343E-01  0.11966154084E+00  0.12854245113E+00  0.19367522633E-01 0.  0.
         14    1    1    2    0    0 -0.23059084965E-02  0.24554919818E-01  0.64571299800E-03  0.24671405443E-01  0.00000000000E+00 0. -1.
     999901    1    3    3    0    0  0.15027392859E-01 -0.65387998161E-01 -0.12030725384E+00  0.89071614343E+00  0.88000000000E+00 0.  1.
        -11    1    4    4    0    0  0.16015492963E-02  0.14884050586E-01  0.23084588746E-01  0.27518344437E-01  0.51100000000E-03 0.  1.
         11    1    4    4    0    0 -0.14323033659E-01  0.25949027757E-01  0.96576952099E-01  0.10102410669E+00  0.51100000000E-03 0. -1.
</event>
<event>
 8    1  0.1126414E+005  0.1043930E+01  0.7957747E-01            NaN
         13   -1    0    0    0    0  0.00000000000E+00  0.00000000000E+00  0.74505805969E-08  0.10566000000E+00  0.10566000000E+00 0.  1.
     999900   -1    0    0    0    0 -0.00000000000E+00 -0.00000000000E+00 -0.74505805969E-08  0.93827000000E+00  0.93827000000E+00 0.  1.
     999902    2    1    2    0    0  0.19586220137E-01  0.13381954708E-01 -0.15438519713E-02  0.10201585842E+01  0.10198815895E+01 0.  0.
     999903    2    3    3    0    0 -0.11432760736E+00  0.18514751323E-01 -0.51976544030E-01  0.12858541544E+00  0.20470713533E-01 0.  0.
         14    1    1    2    0    0 -0.19586220137E-01 -0.13381954708E-01  0.15438519713E-02  0.23771415818E-01  0.00000000000E+00 0. -1.
     999901    1    3    3    0    0  0.13391382750E+00 -0.51327966151E-02  0.50432692059E-01  0.89157316874E+00  0.88000000000E+00 0.  1.
        -11    1    4    4    0    0 -0.50633520464E-01  0.17043092151E-01 -0.29455496079E-01  0.61009079282E-01  0.51100000000E-03 0.  1.
         11    1    4    4    0    0 -0.63694086897E-01  0.14716591725E-02 -0.22521047952E-01  0.67576336156E-01  0.51100000000E-03 0. -1.
</event>
<event>
 8    1  0.1126414E+005  0.1043930E+01  0.7957747E-01            NaN
         13   -1    0    0    0    0  0.00000000000E+00  0.00000000000E+00  0.74505805969E-08  0.10566000000E+00  0.10566000000E+00 0. -1.
     999900   -1    0    0    0    0 -0.00000000000E+00 -0.00000000000E+00 -0.74505805969E-08  0.93827000000E+00  0.93827000000E+00 0. -1.
     999902    2    1    2    0    0  0.84260446945E-02 -0.11886463614E-01  0.25144982704E-01  0.10148687474E+01  0.10144525706E+01 0.  0.
     999903    2    3    3    0    0 -0.10927254279E-01 -0.86776274088E-01  0.92994192063E-01  0.12887408090E+00  0.17637526436E-01 0.  0.
         14    1    1    2    0    0 -0.84260446945E-02  0.11886463614E-01 -0.25144982704E-01  0.29061252582E-01  0.00000000000E+00 0.  1.
     999901    1    3    3    0    0  0.19353298973E-01  0.74889810474E-01 -0.67849209359E-01  0.88599466652E+00  0.88000000000E+00 0. -1.
        -11    1    4    4    0    0 -0.89401125700E-03 -0.53736135495E-01  0.47281354974E-01  0.71583232417E-01  0.51100000000E-03 0. -1.
         11    1    4    4    0    0 -0.10033243022E-01 -0.33040138593E-01  0.45712837089E-01  0.57290848479E-01  0.51100000000E-03 0.  1.
</event>
<event>
 8    1  0.1126414E+005  0.1043930E+01  0.7957747E-01            NaN
         13   -1    0    0    0    0  0.00000000000E+00  0.00000000000E+00  0.74505805969E-08  0.10566000000E+00  0.10566000000E+00 0.  1.
     999900   -1    0    0    0    0 -0.00000000000E+00 -0.00000000000E+00 -0.74505805969E-08  0.93827000000E+00  0.93827000000E+00 0. -1.
     999902    2    1    2    0    0  0.87953747837E-02  0.16737730953E-01 -0.12688805459E-01  0.10211590527E+01  0.10209051351E+01 0.  0.
     999903    2    3    3    0    0  0.10425848181E+00  0.80177598236E-01 -0.12130209437E-01  0.13372559969E+00  0.20907313133E-01 0.  0.
         14    1    1    2    0    0 -0.87953747837E-02 -0.16737730953E-01  0.12688805459E-01  0.22770947258E-01  0.00000000000E+00 0.  1.
     999901    1    3    3    0    0 -0.95463107031E-01 -0.63439867283E-01 -0.55859602201E-03  0.88743345305E+00  0.88000000000E+00 0.  1.
        -11    1    4    4    0    0  0.83676278070E-01  0.69043330979E-01 -0.27792860140E-02  0.10852044331E+00  0.51100000000E-03 0.  1.
         11    1    4    4    0    0  0.20582203745E-01  0.11134267257E-01 -0.93509234233E-02  0.25205156381E-01  0.51100000000E-03 0. -1.
</event>
<event>
 8    1  0.1126414E+005  0.1043930E+01  0.7957747E-01            NaN
         13   -1    0    0    0    0  0.00000000000E+00  0.00000000000E+00  0.74505805969E-08  0.10566000000E+00  0.10566000000E+00 0. -1.
     999900   -1    0    0    0    0 -0.00000000000E+00 -0.00000000000E+00 -0.74505805969E-08  0.93827000000E+00  0.93827000000E+00 0. -1.
     999902    2    1    2    0    0  0.14638074953E-02 -0.14758516507E-01 -0.18386160418E-01  0.10203078190E+01  0.10200343318E+01 0.  0.
     999903    2    3    3    0    0 -0.44916067072E-01  0.49179903328E-01 -0.11193414744E+00  0.13183134760E+00  0.20350304061E-01 0.  0.
         14    1    1    2    0    0 -0.14638074953E-02  0.14758516507E-01  0.18386160418E-01  0.23622181033E-01  0.00000000000E+00 0. -1.
     999901    1    3    3    0    0  0.46379874567E-01 -0.63938419835E-01  0.93547987019E-01  0.88847647137E+00  0.88000000000E+00 0.  1.
        -11    1    4    4    0    0 -0.11811403436E-01  0.75509092691E-02 -0.11331230875E-01  0.18032842151E-01  0.51100000000E-03 0.  1.
         11    1    4    4    0    0 -0.33104663636E-01  0.41628994058E-01 -0.10060291656E+00  0.11379850545E+00  0.51100000000E-03 0. -1.
</event>
<event>
 8    1  0.1126414E+005  0.1043930E+01  0.7957747E-01            NaN
         13   -1    0    0    0    0  0.00000000000E+00  0.00000000000E+00  0.74505805969E-08  0.10566000000E+00  0.10566000000E+00 0.  1.
     999900   -1    0    0    0    0 -0.00000000000E+00 -0.00000000000E+00 -0.74505805969E-08  0.93827000000E+00  0.93827000000E+00 0.  1.
     999902    2    1    2    0    0 -0.81958508914E-03 -0.14889442386E-01  0.17916233838E-01  0.10206199453E+01  0.10203537201E+01 0.  0.
     999903    2    3    3    0    0  0.42814712192E-01  0.10596778528E+00 -0.54872515214E-01  0.12831471539E+00  0.19783886424E-01 0.  0.
         14    1    1    2    0    0  0.81958508914E-03  0.14889442386E-01 -0.17916233838E-01  0.23310054681E-01  0.00000000000E+00 0.  1.
     999901    1    3    3    0    0 -0.43634297281E-01 -0.12085722766E+00  0.72788749052E-01  0.89230522993E+00  0.88000000000E+00 0. -1.
        -11    1    4    4    0    0  0.13750919093E-01  0.15011746495E-01 -0.73062892248E-02  0.21635232653E-01  0.51100000000E-03 0.  1.
         11    1    4    4    0    0  0.29063793099E-01  0.90956038782E-01 -0.47566225989E-01  0.10667948273E+00  0.51100000000E-03 0. -1.
</event>
<event>
 8    1  0.1126414E+005  0.1043930E+01  0.7957747E-01            NaN
         13   -1    0    0    0    0  0.00000000000E+00  0.00000000000E+00  0.74505805969E-08  0.10566000000E+00  0.10566000000E+00 0.  1.
     999900   -1    0    0    0    0 -0.00000000000E+00 -0.00000000000E+00 -0.74505805969E-08  0.93827000000E+00  0.93827000000E+00 0.  1.
     999902    2    1    2    0    0  0.72555161595E-02 -0.78592693542E-02 -0.18766275713E-01  0.10223294506E+01  0.10221012288E+01 0.  0.
     999903    2    3    3    0    0  0.10125512716E+00 -0.83021518457E-01 -0.25813419720E-01  0.13410934681E+00  0.13183738531E-01 0.  0.
         14    1    1    2    0    0 -0.72555161595E-02  0.78592693542E-02  0.18766275713E-01  0.21600549383E-01  0.00000000000E+00 0.  1.
     999901    1    3    3    0    0 -0.93999611004E-01  0.75162249103E-01  0.70471440069E-02  0.88822010380E+00  0.88000000000E+00 0. -1.
        -11    1    4    4    0    0  0.78731364216E-01 -0.70862728179E-01 -0.18998726844E-01  0.10761675845E+00  0.51100000000E-03 0. -1.
         11    1    4    4    0    0  0.22523762948E-01 -0.12158790278E-01 -0.68146928765E-02  0.26492588366E-01  0.51100000000E-03 0.  1.
</event>
<event>
 8    1  0.1147921E+005  0.1043930E+01  0.7957747E-01            NaN
         13   -1    0    0    0    0  0.00000000000E+00  0.00000000000E+00  0.74505805969E-08  0.10566000000E+00  0.10566000000E+00 0. -1.
     999900   -1    0    0    0    0 -0.00000000000E+00 -0.00000000000E+00 -0.74505805969E-08  0.93827000000E+00  0.93827000000E+00 0.  1.
     999902    2    1    2    0    0  0.10034192288E-02 -0.27109139173E-02  0.29012832834E-01  0.10147735192E+01  0.10143545706E+01 0.  0.
     999903    2    3    3    0    0 -0.70794526503E-01  0.79851645877E-01  0.66472428958E-01  0.12720676528E+00  0.19360449121E-01 0.  0.
         14    1    1    2    0    0 -0.10034192288E-02  0.27109139173E-02 -0.29012832834E-01  0.29156480814E-01  0.00000000000E+00 0.  1.
     999901    1    3    3    0    0  0.71797945732E-01 -0.82562559795E-01 -0.37459596124E-01  0.88756675390E+00  0.88000000000E+00 0. -1.
        -11    1    4    4    0    0 -0.43788534312E-01  0.47008739490E-01  0.50740852807E-01  0.81866675701E-01  0.51100000000E-03 0. -1.
         11    1    4    4    0    0 -0.27005992191E-01  0.32842906388E-01  0.15731576150E-01  0.45340089583E-01  0.51100000000E-03 0.  1.
</event>
<event>
 8    1  0.1126414E+005  0.1043930E+01  0.7957747E-01            NaN
         13   -1    0    0    0    0  0.00000000000E+00  0.00000000000E+00  0.74505805969E-08  0.10566000000E+00  0.10566000000E+00 0. -1.
     999900   -1    0    0    0    0 -0.00000000000E+00 -0.00000000000E+00 -0.74505805969E-08  0.93827000000E+00  0.93827000000E+00 0.  1.
     999902    2    1    2    0    0  0.38627329956E-02  0.20815979770E-01  0.12745618685E-03  0.10227582744E+01  0.10225391170E+01 0.  0.
     999903    2    3    3    0    0 -0.10782857150E-01 -0.68918674227E-01  0.10993075106E+00  0.13128557992E+00  0.16884306308E-01 0.  0.
         14    1    1    2    0    0 -0.38627329956E-02 -0.20815979770E-01 -0.12745618685E-03  0.21171725604E-01  0.00000000000E+00 0. -1.
     999901    1    3    3    0    0  0.14645590145E-01  0.89734653996E-01 -0.10980329487E+00  0.89147269448E+00  0.88000000000E+00 0.  1.
        -11    1    4    4    0    0  0.57820176667E-03 -0.34202825326E-01  0.64282803716E-01  0.72819692063E-01  0.51100000000E-03 0. -1.
         11    1    4    4    0    0 -0.11361058916E-01 -0.34715848900E-01  0.45647947345E-01  0.58465887853E-01  0.51100000000E-03 0.  1.
</event>
<event>
 8    1  0.1126414E+005  0.1043930E+01  0.7957747E-01            NaN
         13   -1    0    0    0    0  0.00000000000E+00  0.00000000000E+00  0.74505805969E-08  0.10566000000E+00  0.10566000000E+00 0. -1.
     999900   -1    0    0    0    0 -0.00000000000E+00 -0.00000000000E+00 -0.74505805969E-08  0.93827000000E+00  0.93827000000E+00 0. -1.
     999902    2    1    2    0    0  0.12800204948E-01  0.20153782282E-01 -0.47597119707E-02  0.10195850817E+01  0.10192943951E+01 0.  0.
     999903    2    3    3    0    0  0.44418314846E-01 -0.83198124147E-01  0.85435104069E-01  0.12839687139E+00  0.17078788571E-01 0.  0.
         14    1    1    2    0    0 -0.12800204948E-01 -0.20153782282E-01  0.47597119707E-02  0.24344918259E-01  0.00000000000E+00 0.  1.
     999901    1    3    3    0    0 -0.31618109897E-01  0.10335190643E+00 -0.90194816040E-01  0.89118821036E+00  0.88000000000E+00 0. -1.
        -11    1    4    4    0    0  0.13686372057E-01 -0.43709855711E-01  0.40528929802E-01  0.61161454678E-01  0.51100000000E-03 0.  1.
         11    1    4    4    0    0  0.30731942789E-01 -0.39488268436E-01  0.44906174266E-01  0.67235416708E-01  0.51100000000E-03 0. -1.
</event>
<event>
 8    1  0.1126414E+005  0.1043930E+01  0.7957747E-01            NaN
         13   -1    0    0    0    0  0.00000000000E+00  0.00000000000E+00  0.74505805969E-08  0.10566000000E+00  0.10566000000E+00 0.  1.
     999900   -1    0    0    0    0 -0.00000000000E+00 -0.00000000000E+00 -0.74505805969E-08  0.93827000000E+00  0.93827000000E+00 0. -1.
     999902    2    1    2    0    0  0.12005041949E-01  0.17616170554E-01  0.10814310349E-01  0.10200260295E+01  0.10197459002E+01 0.  0.
     999903    2    3    3    0    0  0.82101474263E-01 -0.84065588008E-01 -0.50519658050E-01  0.12928782693E+00  0.18852882508E-01 0.  0.
         14    1    1    2    0    0 -0.12005041949E-01 -0.17616170554E-01 -0.10814310349E-01  0.23903970497E-01  0.00000000000E+00 0. -1.
     999901    1    3    3    0    0 -0.70096432314E-01  0.10168175856E+00  0.61333968399E-01  0.89073820258E+00  0.88000000000E+00 0. -1.
        -11    1    4    4    0    0  0.37566588525E-02 -0.89878648941E-02 -0.40687552700E-03  0.97632407419E-02  0.51100000000E-03 0.  1.
         11    1    4    4    0    0  0.78344815410E-01 -0.75077723114E-01 -0.50112782523E-01  0.11952458619E+00  0.51100000000E-03 0. -1.
</event>
<event>
 8    1  0.1126414E+005  0.1043930E+01  0.7957747E-01            NaN
         13   -1    0    0    0    0  0.00000000000E+00  0.00000000000E+00  0.74505805969E-08  0.10566000000E+00  0.10566000000E+00 0. -1.
     999900   -1    0    0    0    0 -0.00000000000E+00 -0.00000000000E+00 -0.74505805969E-08  0.93827000000E+00  0.93827000000E+00 0. -1.
     999902    2    1    2    0    0 -0.23909525262E-01  0.18108043034E-02  0.50833574732E-02  0.10194190854E+01  0.10191243726E+01 0.  0.
     999903    2    3    3    0    0 -0.29984710711E-01 -0.57265066150E-01  0.11206873911E+00  0.13095257607E+00  0.20268305696E-01 0.  0.
         14    1    1    2    0    0  0.23909525262E-01 -0.18108043034E-02 -0.50833574732E-02  0.24510914582E-01  0.00000000000E+00 0. -1.
     999901    1    3    3    0    0  0.60751854497E-02  0.59075870453E-01 -0.10698538164E+00  0.88846650935E+00  0.88000000000E+00 0. -1.
        -11    1    4    4    0    0 -0.18631425597E-01 -0.47593304495E-01  0.72865322772E-01  0.89004882092E-01  0.51100000000E-03 0.  1.
         11    1    4    4    0    0 -0.11353285114E-01 -0.96717616546E-02  0.39203416340E-01  0.41947693978E-01  0.51100000000E-03 0. -1.
</event>
<event>
 8    1  0.1126414E+005  0.1043930E+01  0.7957747E-01            NaN
         13   -1    0    0    0    0  0.00000000000E+00  0.00000000000E+00  0.74505805969E-08  0.10566000000E+00  0.10566000000E+00 0.  1.
     999900   -1    0    0    0    0 -0.00000000000E+00 -0.00000000000E+00 -0.74505805969E-08  0.93827000000E+00  0.93827000000E+00 0. -1.
     999902    2    1    2    0    0  0.12114651561E-01 -0.19468451525E-01  0.65215798803E-02  0.10200906126E+01  0.10198120128E+01 0.  0.
     999903    2    3    3    0    0 -0.57076726679E-01  0.10826197910E+00  0.31247720585E-01  0.12783846676E+00  0.19693772993E-01 0.  0.
         14    1    1    2    0    0 -0.12114651561E-01  0.19468451525E-01 -0.65215798803E-02  0.23839387395E-01  0.00000000000E+00 0. -1.
     999901    1    3    3    0    0  0.69191378240E-01 -0.12773043063E+00 -0.24726140705E-01  0.89225214584E+00  0.88000000000E+00 0. -1.
        -11    1    4    4    0    0 -0.29945271204E-01  0.42233149215E-01  0.20319674161E-01  0.55619317140E-01  0.51100000000E-03 0.  1.
         11    1    4    4    0    0 -0.27131455475E-01  0.66028829886E-01  0.10928046425E-01  0.72219149620E-01  0.51100000000E-03 0. -1.
</event>
<event>
 8    1  0.1126414E+005  0.1043930E+01  0.7957747E-01            NaN
         13   -1    0    0    0    0  0.00000000000E+00  0.00000000000E+00  0.74505805969E-08  0.10566000000E+00  0.10566000000E+00 0.  1.
     999900   -1    0    0    0    0 -0.00000000000E+00 -0.00000000000E+00 -0.74505805969E-08  0.93827000000E+00  0.93827000000E+00 0. -1.
     999902    2    1    2    0    0 -0.24623674936E-02 -0.34800916966E-03 -0.23783364294E-01  0.10200169747E+01  0.10197366306E+01 0.  0.
     999903    2    3    3    0    0 -0.11665398028E+00  0.28277029737E-01  0.44799458858E-01  0.12953243188E+00  0.19076631519E-01 0.  0.
         14    1    1    2    0    0  0.24623674936E-02  0.34800916966E-03  0.23783364294E-01  0.23913025346E-01  0.00000000000E+00 0.  1.
     999901    1    3    3    0    0  0.11419161278E+00 -0.28625038907E-01 -0.68582823152E-01  0.89048454277E+00  0.88000000000E+00 0. -1.
        -11    1    4    4    0    0 -0.71018402366E-01  0.22432640090E-01  0.35854808432E-01  0.82659937242E-01  0.51100000000E-03 0. -1.
         11    1    4    4    0    0 -0.45635577911E-01  0.58443896473E-02  0.89446504259E-02  0.46872494641E-01  0.51100000000E-03 0.  1.
</event>
<event>
 8    1  0.1126414E+005  0.1043930E+01  0.7957747E-01            NaN
         13   -1    0    0    0    0  0.00000000000E+00  0.00000000000E+00  0.74505805969E-08  0.10566000000E+00  0.10566000000E+00 0. -1.
     999900   -1    0    0    0    0 -0.00000000000E+00 -0.00000000000E+00 -0.74505805969E-08  0.93827000000E+00  0.93827000000E+00 0. -1.
     999902    2    1    2    0    0 -0.16459116250E-01 -0.11716883279E-02  0.16383739467E-01  0.10206769942E+01  0.10204120855E+01 0.  0.
     999903    2    3    3    0    0  0.43032247525E-01 -0.12030596175E+00  0.18475453699E-01  0.13065644793E+00  0.20111345968E-01 0.  0.
         14    1    1    2    0    0  0.16459116250E-01  0.11716883279E-02 -0.16383739467E-01  0.23253005831E-01  0.00000000000E+00 0.  1.
     999901    1    3    3    0    0 -0.59491363775E-01  0.11913427342E+00 -0.20917142329E-02  0.89002054624E+00  0.88000000000E+00 0.  1.
        -11    1    4    4    0    0  0.40787590562E-02 -0.38472732707E-01  0.65550376922E-02  0.39243051328E-01  0.51100000000E-03 0. -1.
         11    1    4    4    0    0  0.38953488469E-01 -0.81833229038E-01  0.11920416007E-01  0.91413396598E-01  0.51100000000E-03 0.  1.
</event>
<event>
 8    1  0.1126414E+005  0.1043930E+01  0.7957747E-01            NaN
         13   -1    0    0    0    0  0.00000000000E+00  0.00000000000E+00  0.74505805969E-08  0.10566000000E+00  0.10566000000E+00 0.  1.
     999900   -1    0    0    0    0 -0.00000000000E+00 -0.00000000000E+00 -0.74505805969E-08  0.93827000000E+00  0.93827000000E+00 0.  1.
     999902    2    1    2    0    0  0.60218191616E-03  0.10025109080E-02  0.23212526315E-01  0.10206880330E+01  0.10204233787E+01 0.  0.
     999903    2    3    3    0    0 -0.11511144013E+00 -0.36820503919E-01  0.49342769862E-01  0.13192315275E+00  0.19042482357E-01 0.  0.
         14    1    1    2    0    0 -0.60218191616E-03 -0.10025109080E-02 -0.23212526315E-01  0.23241966980E-01  0.00000000000E+00 0. -1.
     999901    1    3    3    0    0  0.11571362205E+00  0.37823014827E-01 -0.26130243547E-01  0.88876488027E+00  0.88000000000E+00 0.  1.
        -11    1    4    4    0    0 -0.10036453931E-01 -0.10422485088E-02  0.98393984831E-02  0.14102892362E-01  0.51100000000E-03 0. -1.
         11    1    4    4    0    0 -0.10507498620E+00 -0.35778255410E-01  0.39503371379E-01  0.11782026038E+00  0.51100000000E-03 0.  1.
</event>
<event>
 7    1  0.1126414E+005  0.1043930E+01  0.7957747E-01            NaN
         13   -1    0    0    0    0  0.00000000000E+00  0.00000000000E+00  0.74505805969E-08  0.10566000000E+00  0.10566000000E+00 0.  1.
     999900   -1    0    0    0    0 -0.00000000000E+00 -0.00000000000E+00 -0.74505805969E-08  0.93827000000E+00  0.93827000000E+00 0.  1.
     999902    2    1    2    0    0  0.63420487315E-02 -0.20345128910E-01 -0.36618372095E-02  0.10223069821E+01  0.10220782801E+01 0.  0.
         14    1    1    2    0    0 -0.63420487315E-02  0.20345128910E-01  0.36618372095E-02  0.21623017926E-01  0.00000000000E+00 0.  1.
     999901    1    3    3    0    0 -0.62934109159E-01 -0.11150043199E+00  0.44981410542E-01  0.89040236732E+00  0.88000000000E+00 0. -1.
        -11    1    3    3    0    0  0.10388527230E-01  0.46923847256E-01 -0.27058541877E-01  0.55156094394E-01  0.51100000000E-03 0.  1.
         11    1    3    3    0    0  0.58887630660E-01  0.44231455825E-01 -0.21584705875E-01  0.76748520362E-01  0.51100000000E-03 0. -1.
</event>
<event>
 8    1  0.1126414E+005  0.1043930E+01  0.7957747E-01            NaN
         13   -1    0    0    0    0  0.00000000000E+00  0.00000000000E+00  0.74505805969E-08  0.10566000000E+00  0.10566000000E+00 0. -1.
     999900   -1    0    0    0    0 -0.00000000000E+00 -0.00000000000E+00 -0.74505805969E-08  0.93827000000E+00  0.93827000000E+00 0. -1.
     999902    2    1    2    0    0 -0.72758805914E-02 -0.18367283434E-01  0.12881106780E-01  0.10203457160E+01  0.10200731159E+01 0.  0.
     999903    2    3    3    0    0  0.73738758485E-01  0.77903882978E-01 -0.66549399135E-01  0.12785441942E+00  0.20285722930E-01 0.  0.
         14    1    1    2    0    0  0.72758805914E-02  0.18367283434E-01 -0.12881106780E-01  0.23584283983E-01  0.00000000000E+00 0.  1.
     999901    1    3    3    0    0 -0.81014639076E-01 -0.96271166411E-01  0.79430505915E-01  0.89249129659E+00  0.88000000000E+00 0.  1.
        -11    1    4    4    0    0  0.25486628361E-01  0.37242053492E-01 -0.19604909891E-01  0.49205206903E-01  0.51100000000E-03 0.  1.
         11    1    4    4    0    0  0.48252130124E-01  0.40661829485E-01 -0.46944489244E-01  0.78649212519E-01  0.51100000000E-03 0. -1.
</event>
<event>
 8    1  0.1126414E+005  0.1043930E+01  0.7957747E-01            NaN
         13   -1    0    0    0    0  0.00000000000E+00  0.00000000000E+00  0.74505805969E-08  0.10566000000E+00  0.10566000000E+00 0. -1.
     999900   -1    0    0    0    0 -0.00000000000E+00 -0.00000000000E+00 -0.74505805969E-08  0.93827000000E+00  0.93827000000E+00 0.  1.
     999902    2    1    2    0    0 -0.26632636226E-02 -0.22350263868E-01 -0.72574924996E-02  0.10202805081E+01  0.10200063808E+01 0.  0.
     999903    2    3    3    0    0 -0.51107219377E-03 -0.34542165764E-01 -0.12631179739E+00  0.13217735990E+00  0.17965575418E-01 0.  0.
         14    1    1    2    0    0  0.26632636226E-02  0.22350263868E-01  0.72574924996E-02  0.23649491865E-01  0.00000000000E+00 0. -1.
     999901    1    3    3    0    0 -0.21521914288E-02  0.12191901896E-01  0.11905430489E+00  0.88810314824E+00  0.88000000000E+00 0. -1.
        -11    1    4    4    0    0  0.66180823497E-02 -0.14662018325E-01 -0.36105373017E-01  0.39530151493E-01  0.51100000000E-03 0.  1.
         11    1    4    4    0    0 -0.71291545435E-02 -0.19880147439E-01 -0.90206424368E-01  0.92647208404E-01  0.51100000000E-03 0. -1.
</event>
<event>
 8    1  0.1126414E+005  0.1043930E+01  0.7957747E-01            NaN
         13   -1    0    0    0    0  0.00000000000E+00  0.00000000000E+00  0.74505805969E-08  0.10566000000E+00  0.10566000000E+00 0. -1.
     999900   -1    0    0    0    0 -0.00000000000E+00 -0.00000000000E+00 -0.74505805969E-08  0.93827000000E+00  0.93827000000E+00 0.  1.
     999902    2    1    2    0    0  0.13243747251E-01  0.67327608598E-02 -0.25132793083E-01  0.10147343805E+01  0.10143142899E+01 0.  0.
     999903    2    3    3    0    0 -0.20699377133E-01 -0.12170648023E+00  0.50679325279E-02  0.12425088364E+00  0.13102160189E-01 0.  0.
         14    1    1    2    0    0 -0.13243747251E-01 -0.67327608598E-02  0.25132793083E-01  0.29195619504E-01  0.00000000000E+00 0. -1.
     999901    1    3    3    0    0  0.33943124384E-01  0.12843924109E+00 -0.30200725611E-01  0.89048349686E+00  0.88000000000E+00 0. -1.
        -11    1    4    4    0    0 -0.77738678441E-02 -0.48109516395E-01 -0.43716586370E-02  0.48931902776E-01  0.51100000000E-03 0.  1.
         11    1    4    4    0    0 -0.12925509289E-01 -0.73596963835E-01  0.94395911649E-02  0.75318980865E-01  0.51100000000E-03 0. -1.
</event>
<event>
 8    1  0.1126414E+005  0.1043930E+01  0.7957747E-01            NaN
         13   -1    0    0    0    0  0.00000000000E+00  0.00000000000E+00  0.74505805969E-08  0.10566000000E+00  0.10566000000E+00 0. -1.
     999900   -1    0    0    0    0 -0.00000000000E+00 -0.00000000000E+00 -0.74505805969E-08  0.93827000000E+00  0.93827000000E+00 0.  1.
     999902    2    1    2    0    0 -0.21707070228E-01 -0.77449341034E-02  0.46577839170E-02  0.10204166877E+01  0.10201457449E+01 0.  0.
     999903    2    3    3    0    0  0.76653046405E-01  0.85314326304E-01  0.54955695125E-01  0.12864058448E+00  0.19340314154E-01 0.  0.
         14    1    1    2    0    0  0.21707070228E-01  0.77449341034E-02 -0.46577839170E-02  0.23513312254E-01  0.00000000000E+00 0. -1.
     999901    1    3    3    0    0 -0.98360116633E-01 -0.93059260408E-01 -0.50297911208E-01  0.89177610327E+00  0.88000000000E+00 0. -1.
        -11    1    4    4    0    0  0.45836881480E-01  0.39486188515E-01  0.22299445487E-01  0.64480269674E-01  0.51100000000E-03 0. -1.
         11    1    4    4    0    0  0.30816164925E-01  0.45828137790E-01  0.32656249639E-01  0.64160314802E-01  0.51100000000E-03 0.  1.
</event>
<event>
 8    1  0.1126414E+005  0.1043930E+01  0.7957747E-01            NaN
         13   -1    0    0    0    0  0.00000000000E+00  0.00000000000E+00  0.74505805969E-08  0.10566000000E+00  0.10566000000E+00 0. -1.
     999900   -1    0    0    0    0 -0.00000000000E+00 -0.00000000000E+00 -0.74505805969E-08  0.93827000000E+00  0.93827000000E+00 0.  1.
     999902    2    1    2    0    0  0.22622957096E-01 -0.21059156632E-02 -0.89340474022E-02  0.10195158592E+01  0.10192234970E+01 0.  0.
     999903    2    3    3    0    0  0.10714811777E+00 -0.15721444078E-01  0.72122034760E-01  0.13165327193E+00  0.20077678288E-01 0.  0.
         14    1    1    2    0    0 -0.22622957096E-01  0.21059156632E-02  0.89340474022E-02  0.24414140811E-01  0.00000000000E+00 0.  1.
     999901    1    3    3    0    0 -0.84525160677E-01  0.13615528415E-01 -0.81056082162E-01  0.88786258726E+00  0.88000000000E+00 0.  1.
        -11    1    4    4    0    0  0.78900250157E-01 -0.75235696143E-02  0.42626428194E-01  0.89995150292E-01  0.51100000000E-03 0. -1.
         11    1    4    4    0    0  0.28247867616E-01 -0.81978744636E-02  0.29495606566E-01  0.41658121636E-01  0.51100000000E-03 0.  1.
</event>
<event>
 8    1  0.1126414E+005  0.1043930E+01  0.7957747E-01            NaN
         13   -1    0    0    0    0  0.00000000000E+00  0.00000000000E+00  0.74505805969E-08  0.10566000000E+00  0.10566000000E+00 0. -1.
     999900   -1    0    0    0    0 -0.00000000000E+00 -0.00000000000E+00 -0.74505805969E-08  0.93827000000E+00  0.93827000000E+00 0. -1.
     999902    2    1    2    0    0  0.94710843416E-02 -0.79933348734E-02  0.19157876048E-01  0.10211129218E+01  0.10208579627E+01 0.  0.
     999903    2    3    3    0    0  0.14061087773E-01 -0.73829662154E-01 -0.10442904862E+00  0.13002975060E+00  0.18808951100E-01 0.  0.
         14    1    1    2    0    0 -0.94710843416E-02  0.79933348734E-02 -0.19157876048E-01  0.22817078158E-01  0.00000000000E+00 0.  1.
     999901    1    3    3    0    0 -0.45900034312E-02  0.65836327281E-01  0.12358692467E+00  0.89108317124E+00  0.88000000000E+00 0.  1.
        -11    1    4    4    0    0  0.60228744741E-02 -0.43884542786E-02 -0.12125619009E-01  0.14241674945E-01  0.51100000000E-03 0.  1.
         11    1    4    4    0    0  0.80382132987E-02 -0.69441207875E-01 -0.92303429614E-01  0.11578807565E+00  0.51100000000E-03 0. -1.
</event>
<event>
 8    1  0.1126414E+005  0.1043930E+01  0.7957747E-01            NaN
         13   -1    0    0    0    0  0.00000000000E+00  0.00000000000E+00  0.74505805969E-08  0.10566000000E+00  0.10566000000E+00 0. -1.
     999900   -1    0    0    0    0 -0.00000000000E+00 -0.00000000000E+00 -0.74505805969E-08  0.93827000000E+00  0.93827000000E+00 0.  1.
     999902    2    1    2    0    0 -0.16108046170E-01 -0.16487840384E-01  0.18542682340E-02  0.10208052007E+01  0.10205432384E+01 0.  0.
     999903    2    3    3    0    0  0.22752879046E-01  0.74295682478E-02  0.12719107502E+00  0.13075378135E+00  0.18603488470E-01 0.  0.
         14    1    1    2    0    0  0.16108046170E-01  0.16487840384E-01 -0.18542682340E-02  0.23124799299E-01  0.00000000000E+00 0.  1.
     999901    1    3    3    0    0 -0.38860925217E-01 -0.23917408632E-01 -0.12533680679E+00  0.89005141935E+00  0.88000000000E+00 0.  1.
        -11    1    4    4    0    0  0.18330540597E-01  0.12736103001E-01  0.10954251120E+00  0.11179463278E+00  0.51100000000E-03 0. -1.
         11    1    4    4    0    0  0.44223384499E-02 -0.53065347534E-02  0.17648563826E-01  0.18959148572E-01  0.51100000000E-03 0.  1.
</event>
<event>
 8    1  0.1126414E+005  0.1043930E+01  0.7957747E-01            NaN
         13   -1    0    0    0    0  0.00000000000E+00  0.00000000000E+00  0.74505805969E-08  0.10566000000E+00  0.10566000000E+00 0.  1.
     999900   -1    0    0    0    0 -0.00000000000E+00 -0.00000000000E+00 -0.74505805969E-08  0.93827000000E+00  0.93827000000E+00 0.  1.
     999902    2    1    2    0    0 -0.16687271376E-01 -0.39039243122E-02 -0.18475415454E-01  0.10187298685E+01  0.10184181353E+01 0.  0.
     999903    2    3    3    0    0  0.47346948034E-01 -0.57296557501E-01  0.10070920571E+00  0.12679033667E+00  0.20219207891E-01 0.  0.
         14    1    1    2    0    0  0.16687271376E-01  0.39039243122E-02  0.18475415454E-01  0.25200131491E-01  0.00000000000E+00 0.  1.
     999901    1    3    3    0    0 -0.64034219410E-01  0.53392633189E-01 -0.11918462117E+00  0.89193953184E+00  0.88000000000E+00 0.  1.
        -11    1    4    4    0    0  0.20906070428E-01 -0.26660045634E-01  0.29700523863E-01  0.45057785705E-01  0.51100000000E-03 0.  1.
         11    1    4    4    0    0  0.26440877606E-01 -0.30636511868E-01  0.71008681851E-01  0.81732550965E-01  0.51100000000E-03 0. -1.
</event>
<event>
 8    1  0.1126414E+005  0.1043930E+01  0.7957747E-01            NaN
         13   -1    0    0    0    0  0.00000000000E+00  0.00000000000E+00  0.74505805969E-08  0.10566000000E+00  0.10566000000E+00 0.  1.
     999900   -1    0    0    0    0 -0.00000000000E+00 -0.00000000000E+00 -0.74505805969E-08  0.93827000000E+00  0.93827000000E+00 0. -1.
     999902    2    1    2    0    0  0.21795788551E-01 -0.25837592501E-02 -0.75644798675E-02  0.10207146265E+01  0.10204505844E+01 0.  0.
     999903    2    3    3    0    0 -0.11425866474E+00  0.55339763895E-01  0.89160326698E-03  0.12833720965E+00  0.18764660619E-01 0.  0.
         14    1    1    2    0    0 -0.21795788551E-01  0.25837592501E-02  0.75644798675E-02  0.23215373486E-01  0.00000000000E+00 0.  1.
     999901    1    3    3    0    0  0.13605445329E+00 -0.57923523145E-01 -0.84560831345E-02  0.89237741687E+00  0.88000000000E+00 0. -1.
        -11    1    4    4    0    0 -0.17365151871E-01  0.92905649795E-02 -0.66470138496E-02  0.20791993922E-01  0.51100000000E-03 0.  1.
         11    1    4    4    0    0 -0.96893512865E-01  0.46049198915E-01  0.75386171166E-02  0.10754521572E+00  0.51100000000E-03 0. -1.
</event>
<event>
 8    1  0.1126414E+005  0.1043930E+01  0.7957747E-01            NaN
         13   -1    0    0    0    0  0.00000000000E+00  0.00000000000E+00  0.74505805969E-08  0.10566000000E+00  0.10566000000E+00 0. -1.
     999900   -1    0    0    0    0 -0.00000000000E+00 -0.00000000000E+00 -0.74505805969E-08  0.93827000000E+00  0.93827000000E+00 0. -1.
     999902    2    1    2    0    0 -0.41296944653E-03  0.12450786567E-01 -0.21256724342E-01  0.10192917988E+01  0.10189939794E+01 0.  0.
     999903    2    3    3    0    0 -0.82753637147E-01  0.99748027365E-01  0.21020045549E-02  0.13084009833E+00  0.17801109048E-01 0.  0.
         14    1    1    2    0    0  0.41296944653E-03 -0.12450786567E-01  0.21256724342E-01  0.24638201226E-01  0.00000000000E+00 0. -1.
     999901    1    3    3    0    0  0.82340667700E-01 -0.87297240798E-01 -0.23358728896E-01  0.88845170045E+00  0.88000000000E+00 0. -1.
        -11    1    4    4    0    0 -0.14079408079E-01  0.21149847766E-01  0.69721467321E-02  0.26351807214E-01  0.51100000000E-03 0. -1.
         11    1    4    4    0    0 -0.68674229067E-01  0.78598179600E-01 -0.48701421773E-02  0.10448829112E+00  0.51100000000E-03 0.  1.
</event>
<event>
 8    1  0.1126414E+005  0.1043930E+01  0.7957747E-01            NaN
         13   -1    0    0    0    0  0.00000000000E+00  0.00000000000E+00  0.74505805969E-08  0.10566000000E+00  0.10566000000E+00 0. -1.
     999900   -1    0    0    0    0 -0.00000000000E+00 -0.00000000000E+00 -0.74505805969E-08  0.93827000000E+00  0.93827000000E+00 0. -1.
     999902    2    1    2    0    0 -0.12983997162E-01 -0.20180507466E-01 -0.15888749589E-02  0.10198808506E+01  0.10195972675E+01 0.  0.
     999903    2    3    3    0    0 -0.38548660987E-01  0.11739039650E+00 -0.28003572762E-01  0.12843424988E+00  0.21086773074E-01 0.  0.
         14    1    1    2    0    0  0.12983997162E-01  0.20180507466E-01  0.15888749589E-02  0.24049149413E-01  0.00000000000E+00 0.  1.
     999901    1    3    3    0    0  0.25564663825E-01 -0.13757090397E+00  0.26414697803E-01  0.89144660071E+00  0.88000000000E+00 0.  1.
        -11    1    4    4    0    0 -0.22365916433E-01  0.67799930302E-01 -0.54571382611E-02  0.71603814465E-01  0.51100000000E-03 0.  1.
         11    1    4    4    0    0 -0.16182744554E-01  0.49590466202E-01 -0.22546434501E-01  0.56830435413E-01  0.51100000000E-03 0. -1.
</event>
<event>
 8    1  0.1126414E+005  0.1043930E+01  0.7957747E-01            NaN
         13   -1    0    0    0    0  0.00000000000E+00  0.00000000000E+00  0.74505805969E-08  0.10566000000E+00  0.10566000000E+00 0. -1.
     999900   -1    0    0    0    0 -0.00000000000E+00 -0.00000000000E+00 -0.74505805969E-08  0.93827000000E+00  0.93827000000E+00 0.  1.
     999902    2    1    2    0    0 -0.62667047640E-02 -0.22636138203E-01 -0.28124164503E-02  0.10202746406E+01  0.10200003756E+01 0.  0.
     999903    2    3    3    0    0 -0.39218933843E-01  0.32017884281E-01 -0.11846194290E+00  0.13041637969E+00  0.20296070808E-01 0.  0.
         14    1    1    2    0    0  0.62667047640E-02  0.22636138203E-01  0.28124164503E-02  0.23655359385E-01  0.00000000000E+00 0.  1.
     999901    1    3    3    0    0  0.32952229079E-01 -0.54654022484E-01  0.11564952645E+00  0.88985826093E+00  0.88000000000E+00 0. -1.
        -11    1    4    4    0    0 -0.30557494775E-01  0.33894693742E-01 -0.10071898585E+00  0.11057660685E+00  0.51100000000E-03 0. -1.
         11    1    4    4    0    0 -0.86614390676E-02 -0.18768094606E-02 -0.17742957049E-01  0.19839772840E-01  0.51100000000E-03 0.  1.
</event>
<event>
 8    1  0.1126414E+005  0.1043930E+01  0.7957747E-01            NaN
         13   -1    0    0    0    0  0.00000000000E+00  0.00000000000E+00  0.74505805969E-08  0.10566000000E+00  0.10566000000E+00 0. -1.
     999900   -1    0    0    0    0 -0.00000000000E+00 -0.00000000000E+00 -0.74505805969E-08  0.93827000000E+00  0.93827000000E+00 0. -1.
     999902    2    1    2    0    0 -0.82960761633E-02  0.12546415653E-01 -0.17671981510E-01  0.10207236139E+01  0.10204597785E+01 0.  0.
     999903    2    3    3    0    0 -0.41034452501E-01 -0.23604648413E-01  0.11879927685E+00  0.12886986744E+00  0.15911280127E-01 0.  0.
         14    1    1    2    0    0  0.82960761633E-02 -0.12546415653E-01  0.17671981510E-01  0.23206386103E-01  0.00000000000E+00 0. -1.
     999901    1    3    3    0    0  0.32738376337E-01  0.36151064066E-01 -0.13647125836E+00  0.89185374646E+00  0.88000000000E+00 0. -1.
        -11    1    4    4    0    0 -0.17692381265E-01 -0.35130559454E-02  0.57528576542E-01  0.60292289365E-01  0.51100000000E-03 0. -1.
         11    1    4    4    0    0 -0.23342071236E-01 -0.20091592468E-01  0.61270700304E-01  0.68577578071E-01  0.51100000000E-03 0.  1.
</event>
<event>
 8    1  0.1126414E+005  0.1043930E+01  0.7957747E-01            NaN
         13   -1    0    0    0    0  0.00000000000E+00  0.00000000000E+00  0.74505805969E-08  0.10566000000E+00  0.10566000000E+00 0. -1.
     999900   -1    0    0    0    0 -0.00000000000E+00 -0.00000000000E+00 -0.74505805969E-08  0.93827000000E+00  0.93827000000E+00 0.  1.
     999902    2    1    2    0    0  0.62408303288E-02 -0.21566776917E-01  0.12502305364E-01  0.10182321116E+01  0.10179077815E+01 0.  0.
     999903    2    3    3    0    0  0.57239000752E-01 -0.11435285825E+00 -0.20441151367E-01  0.13127363363E+00  0.21495274346E-01 0.  0.
         14    1    1    2    0    0 -0.62408303288E-02  0.21566776917E-01 -0.12502305364E-01  0.25697888419E-01  0.00000000000E+00 0. -1.
     999901    1    3    3    0    0 -0.50998170423E-01  0.92786081332E-01  0.32943456731E-01  0.88695847796E+00  0.88000000000E+00 0. -1.
        -11    1    4    4    0    0  0.55081245037E-01 -0.93013007401E-01 -0.14964658358E-01  0.10913095446E+00  0.51100000000E-03 0.  1.
         11    1    4    4    0    0  0.21577557150E-02 -0.21339850848E-01 -0.54764930092E-02  0.22142679166E-01  0.51100000000E-03 0. -1.
</event>
<event>
 8    1  0.1126414E+005  0.1043930E+01  0.7957747E-01            NaN
         13   -1    0    0    0    0  0.00000000000E+00  0.00000000000E+00  0.74505805969E-08  0.10566000000E+00  0.10566000000E+00 0. -1.
     999900   -1    0    0    0    0 -0.00000000000E+00 -0.00000000000E+00 -0.74505805969E-08  0.93827000000E+00  0.93827000000E+00 0.  1.
     999902    2    1    2    0    0 -0.17484890672E-01 -0.10537589325E-01  0.10074154416E-01  0.10211648780E+01  0.10209110918E+01 0.  0.
     999903    2    3    3    0    0  0.43413839058E-01 -0.10804164395E+00  0.59118912321E-01  0.13233357558E+00  0.21432946203E-01 0.  0.
         14    1    1    2    0    0  0.17484890672E-01  0.10537589325E-01 -0.10074154416E-01  0.22765121959E-01  0.00000000000E+00 0.  1.
     999901    1    3    3    0    0 -0.60898729730E-01  0.97504054627E-01 -0.49044757905E-01  0.88883130246E+00  0.88000000000E+00 0.  1.
        -11    1    4    4    0    0  0.27837367202E-01 -0.87426738053E-01  0.39533585070E-01  0.99907552312E-01  0.51100000000E-03 0.  1.
         11    1    4    4    0    0  0.15576471856E-01 -0.20614905899E-01  0.19585327251E-01  0.32426023272E-01  0.51100000000E-03 0. -1.
</event>
<event>
 8    1  0.1126414E+005  0.1043930E+01  0.7957747E-01            NaN
         13   -1    0    0    0    0  0.00000000000E+00  0.00000000000E+00  0.74505805969E-08  0.10566000000E+00  0.10566000000E+00 0. -1.
     999900   -1    0    0    0    0 -0.00000000000E+00 -0.00000000000E+00 -0.74505805969E-08  0.93827000000E+00  0.93827000000E+00 0. -1.
     999902    2    1    2    0    0  0.20808074315E-01  0.93061646951E-02  0.68115708109E-02  0.10201397046E+01  0.10198622646E+01 0.  0.
     999903    2    3    3    0    0  0.99965381338E-01 -0.80366441956E-01 -0.21265570116E-01  0.13160417831E+00  0.20386093763E-01 0.  0.
         14    1    1    2    0    0 -0.20808074315E-01 -0.93061646951E-02 -0.68115708109E-02  0.23790295394E-01  0.00000000000E+00 0.  1.
     999901    1    3    3    0    0 -0.79157307023E-01  0.89672606651E-01  0.28077140927E-01  0.88853552629E+00  0.88000000000E+00 0.  1.
        -11    1    4    4    0    0  0.18438729714E-01 -0.25012916846E-01 -0.86219846148E-02  0.32252635587E-01  0.51100000000E-03 0. -1.
         11    1    4    4    0    0  0.81526651624E-01 -0.55353525110E-01 -0.12643585502E-01  0.99351542728E-01  0.51100000000E-03 0.  1.
</event>
<event>
 8    1  0.1126414E+005  0.1043930E+01  0.7957747E-01            NaN
         13   -1    0    0    0    0  0.00000000000E+00  0.00000000000E+00  0.74505805969E-08  0.10566000000E+00  0.10566000000E+00 0.  1.
     999900   -1    0    0    0    0 -0.00000000000E+00 -0.00000000000E+00 -0.74505805969E-08  0.93827000000E+00  0.93827000000E+00 0. -1.
     999902    2    1    2    0    0  0.13243199284E-01  0.19873252352E-01  0.25915274511E-02  0.10199082494E+01  0.10196253198E+01 0.  0.
     999903    2    3    3    0    0 -0.59926890806E-01  0.41550343943E-01  0.10647345662E+00  0.13051788879E+00  0.19510484520E-01 0.  0.
         14    1    1    2    0    0 -0.13243199284E-01 -0.19873252352E-01 -0.25915274511E-02  0.24021750578E-01  0.00000000000E+00 0. -1.
     999901    1    3    3    0    0  0.73170090090E-01 -0.21677091592E-01 -0.10388192916E+00  0.88939036064E+00  0.88000000000E+00 0. -1.
        -11    1    4    4    0    0 -0.26086797104E-01  0.29645390541E-01  0.59430651014E-01  0.71355683477E-01  0.51100000000E-03 0. -1.
         11    1    4    4    0    0 -0.33840093702E-01  0.11904953402E-01  0.47042805601E-01  0.59162205309E-01  0.51100000000E-03 0.  1.
</event>
<event>
 8    1  0.1126414E+005  0.1043930E+01  0.7957747E-01            NaN
         13   -1    0    0    0    0  0.00000000000E+00  0.00000000000E+00  0.74505805969E-08  0.10566000000E+00  0.10566000000E+00 0.  1.
     999900   -1    0    0    0    0 -0.00000000000E+00 -0.00000000000E+00 -0.74505805969E-08  0.93827000000E+00  0.93827000000E+00 0.  1.
     999902    2    1    2    0    0  0.13392969504E-01 -0.36018112669E-02  0.18133282989E-01  0.10211010572E+01  0.10208458299E+01 0.  0.
     999903    2    3    3    0    0  0.44006216516E-01  0.28175611740E-01  0.12271591826E+00  0.13381051681E+00  0.10753865512E-01 0.  0.
         14    1    1    2    0    0 -0.13392969504E-01  0.36018112669E-02 -0.18133282989E-01  0.22828942781E-01  0.00000000000E+00 0. -1.
     999901    1    3    3    0    0 -0.30613247012E-01 -0.31777423006E-01 -0.10458263528E+00  0.88729054041E+00  0.88000000000E+00 0.  1.
        -11    1    4    4    0    0  0.42409177614E-02  0.44191095754E-02  0.23863000939E-01  0.24641790676E-01  0.51100000000E-03 0.  1.
         11    1    4    4    0    0  0.39765298755E-01  0.23756502164E-01  0.98852917326E-01  0.10916872613E+00  0.51100000000E-03 0. -1.
</event>
<event>
 8    1  0.1126414E+005  0.1043930E+01  0.7957747E-01            NaN
         13   -1    0    0    0    0  0.00000000000E+00  0.00000000000E+00  0.74505805969E-08  0.10566000000E+00  0.10566000000E+00 0.  1.
     999900   -1    0    0    0    0 -0.00000000000E+00 -0.00000000000E+00 -0.74505805969E-08  0.93827000000E+00  0.93827000000E+00 0.  1.
     999902    2    1    2    0    0  0.19616806921E-01  0.67611061238E-02 -0.10672478661E-01  0.10205969018E+01  0.10203301439E+01 0.  0.
     999903    2    3    3    0    0  0.46643669026E-01  0.59858769766E-01 -0.10758806724E+00  0.13327371128E+00  0.20687815934E-01 0.  0.
         14    1    1    2    0    0 -0.19616806921E-01 -0.67611061238E-02  0.10672478661E-01  0.23333098177E-01  0.00000000000E+00 0.  1.
     999901    1    3    3    0    0 -0.27026862106E-01 -0.53097663642E-01  0.96915588581E-01  0.88732319054E+00  0.88000000000E+00 0. -1.
        -11    1    4    4    0    0  0.32669896135E-01  0.52698856355E-01 -0.93381650243E-01  0.11209319916E+00  0.51100000000E-03 0.  1.
         11    1    4    4    0    0  0.13973772892E-01  0.71599134106E-02 -0.14206416999E-01  0.21180512124E-01  0.51100000000E-03 0. -1.
</event>
<event>
 8    1  0.1126414E+005  0.1043930E+01  0.7957747E-01            NaN
         13   -1    0    0    0    0  0.00000000000E+00  0.00000000000E+00  0.74505805969E-08  0.10566000000E+00  0.10566000000E+00 0. -1.
     999900   -1    0    0    0    0 -0.00000000000E+00 -0.00000000000E+00 -0.74505805969E-08  0.93827000000E+00  0.93827000000E+00 0. -1.
     999902    2    1    2    0    0  0.64580709808E-02  0.49030495327E-02 -0.22378408204E-01  0.10201279049E+01  0.10198501864E+01 0.  0.
     999903    2    3    3    0    0 -0.23392537989E-01 -0.59787411980E-01 -0.11415614348E+00  0.13249111697E+00  0.20013133628E-01 0.  0.
         14    1    1    2    0    0 -0.64580709808E-02 -0.49030495327E-02  0.22378408204E-01  0.23802095060E-01  0.00000000000E+00 0. -1.
     999901    1    3    3    0    0  0.29850608970E-01  0.64690461513E-01  0.91777735272E-01  0.88763678797E+00  0.88000000000E+00 0.  1.
        -11    1    4    4    0    0 -0.26168850198E-01 -0.44308380955E-01 -0.89582160523E-01  0.10331149959E+00  0.51100000000E-03 0. -1.
         11    1    4    4    0    0  0.27763122088E-02 -0.15479031025E-01 -0.24573982953E-01  0.29179617374E-01  0.51100000000E-03 0.  1.
</event>
<event>
 8    1  0.1126414E+005  0.1043930E+01  0.7957747E-01            NaN
         13   -1    0    0    0    0  0.00000000000E+00  0.00000000000E+00  0.74505805969E-08  0.10566000000E+00  0.10566000000E+00 0. -1.
     999900   -1    0    0    0    0 -0.00000000000E+00 -0.00000000000E+00 -0.74505805969E-08  0.93827000000E+00  0.93827000000E+00 0. -1.
     999902    2    1    2    0    0 -0.24648650395E-02 -0.97082635048E-03  0.28430708012E-01  0.10153761347E+01  0.10149745671E+01 0.  0.
     999903    2    3    3    0    0  0.11995592218E+00  0.15488184421E-01 -0.25367206043E-01  0.12512225873E+00  0.19564696916E-01 0.  0.
         14    1    1    2    0    0  0.24648650395E-02  0.97082635048E-03 -0.28430708012E-01  0.28553865264E-01  0.00000000000E+00 0.  1.
     999901    1    3    3    0    0 -0.12242078722E+00 -0.16459010772E-01  0.53797914055E-01  0.89025387600E+00  0.88000000000E+00 0.  1.
        -11    1    4    4    0    0  0.29862118914E-01  0.12214884080E-01 -0.89380571272E-02  0.33482824333E-01  0.51100000000E-03 0. -1.
         11    1    4    4    0    0  0.90093803267E-01  0.32733003407E-02 -0.16429148916E-01  0.91639434401E-01  0.51100000000E-03 0.  1.
</event>
<event>
 8    1  0.1126414E+005  0.1043930E+01  0.7957747E-01            NaN
         13   -1    0    0    0    0  0.00000000000E+00  0.00000000000E+00  0.74505805969E-08  0.10566000000E+00  0.10566000000E+00 0.  1.
     999900   -1    0    0    0    0 -0.00000000000E+00 -0.00000000000E+00 -0.74505805969E-08  0.93827000000E+00  0.93827000000E+00 0.  1.
     999902    2    1    2    0    0 -0.14974201716E-01  0.13369098413E-01  0.12724327840E-01  0.10201630476E+01  0.10198861581E+01 0.  0.
     999903    2    3    3    0    0  0.28589453312E-01  0.12313859314E+00 -0.28651399261E-01  0.13131036865E+00  0.21000958888E-01 0.  0.
         14    1    1    2    0    0  0.14974201716E-01 -0.13369098413E-01 -0.12724327840E-01  0.23766952442E-01  0.00000000000E+00 0. -1.
     999901    1    3    3    0    0 -0.43563655027E-01 -0.10976949472E+00  0.41375727102E-01  0.88885267891E+00  0.88000000000E+00 0. -1.
        -11    1    4    4    0    0  0.31265445151E-01  0.10084676122E+00 -0.21585278044E-01  0.10776726153E+00  0.51100000000E-03 0.  1.
         11    1    4    4    0    0 -0.26759918392E-02  0.22291831923E-01 -0.70661212174E-02  0.23543107120E-01  0.51100000000E-03 0. -1.
</event>
<event>
 8    1  0.1126414E+005  0.1043930E+01  0.7957747E-01            NaN
         13   -1    0    0    0    0  0.00000000000E+00  0.00000000000E+00  0.74505805969E-08  0.10566000000E+00  0.10566000000E+00 0. -1.
     999900   -1    0    0    0    0 -0.00000000000E+00 -0.00000000000E+00 -0.74505805969E-08  0.93827000000E+00  0.93827000000E+00 0.  1.
     999902    2    1    2    0    0 -0.15347570782E-01 -0.16083764966E-01 -0.89715426437E-02  0.10199565980E+01  0.10196748197E+01 0.  0.
     999903    2    3    3    0    0  0.75411040551E-01  0.53000869113E-01 -0.88260556583E-01  0.12906010577E+00  0.19252737193E-01 0.  0.
         14    1    1    2    0    0  0.15347570782E-01  0.16083764966E-01  0.89715426437E-02  0.23973401965E-01  0.00000000000E+00 0. -1.
     999901    1    3    3    0    0 -0.90758611333E-01 -0.69084634079E-01  0.79289013939E-01  0.89089649226E+00  0.88000000000E+00 0. -1.
        -11    1    4    4    0    0  0.73913877594E-01  0.50697496081E-01 -0.79305604128E-01  0.11967931056E+00  0.51100000000E-03 0.  1.
         11    1    4    4    0    0  0.14971629572E-02  0.23033730321E-02 -0.89549524548E-02  0.93807952068E-02  0.51100000000E-03 0. -1.
</event>
<event>
 8    1  0.1126414E+005  0.1043930E+01  0.7957747E-01            NaN
         13   -1    0    0    0    0  0.00000000000E+00  0.00000000000E+00  0.74505805969E-08  0.10566000000E+00  0.10566000000E+00 0.  1.
     999900   -1    0    0    0    0 -0.00000000000E+00 -0.00000000000E+00 -0.74505805969E-08  0.93827000000E+00  0.93827000000E+00 0. -1.
     999902    2    1    2    0    0  0.94066703427E-03 -0.23836006763E-01  0.15381199579E-03  0.10200749433E+01  0.10197959728E+01 0.  0.
     999903    2    3    3    0    0  0.88429526510E-01 -0.14399116998E-01 -0.93254001915E-01  0.13076713655E+00  0.19406684377E-01 0.  0.
         14    1    1    2    0    0 -0.94066703427E-03  0.23836006763E-01 -0.15381199579E-03  0.23855056717E-01  0.00000000000E+00 0. -1.
     999901    1    3    3    0    0 -0.87488859476E-01 -0.94368897645E-02  0.93407813911E-01  0.88930780674E+00  0.88000000000E+00 0.  1.
        -11    1    4    4    0    0  0.32134845217E-01 -0.14773196882E-01 -0.35568062949E-01  0.50162175453E-01  0.51100000000E-03 0.  1.
         11    1    4    4    0    0  0.56294681293E-01  0.37407988370E-03 -0.57685938966E-01  0.80604961094E-01  0.51100000000E-03 0. -1.
</event>
<event>
 8    1  0.1126414E+005  0.1043930E+01  0.7957747E-01            NaN
         13   -1    0    0    0    0  0.00000000000E+00  0.00000000000E+00  0.74505805969E-08  0.10566000000E+00  0.10566000000E+00 0. -1.
     999900   -1    0    0    0    0 -0.00000000000E+00 -0.00000000000E+00 -0.74505805969E-08  0.93827000000E+00  0.93827000000E+00 0. -1.
     999902    2    1    2    0    0  0.60669145924E-02 -0.21628542917E-01 -0.79203147303E-02  0.10201112530E+01  0.10198331412E+01 0.  0.
     999903    2    3    3    0    0  0.70337167602E-01 -0.78145543534E-01  0.77165804205E-01  0.13187452535E+00  0.19552134844E-01 0.  0.
         14    1    1    2    0    0 -0.60669145924E-02  0.21628542917E-01  0.79203147303E-02  0.23818746962E-01  0.00000000000E+00 0. -1.
     999901    1    3    3    0    0 -0.64270253010E-01  0.56517000616E-01 -0.85086118935E-01  0.88823672769E+00  0.88000000000E+00 0. -1.
        -11    1    4    4    0    0  0.48103587672E-01 -0.44602811542E-01  0.38502117241E-01  0.76066024593E-01  0.51100000000E-03 0. -1.
         11    1    4    4    0    0  0.22233579930E-01 -0.33542731992E-01  0.38663686964E-01  0.55808500756E-01  0.51100000000E-03 0.  1.
</event>
<event>
 8    1  0.1126414E+005  0.1043930E+01  0.7957747E-01            NaN
         13   -1    0    0    0    0  0.00000000000E+00  0.00000000000E+00  0.74505805969E-08  0.10566000000E+00  0.10566000000E+00 0. -1.
     999900   -1    0    0    0    0 -0.00000000000E+00 -0.00000000000E+00 -0.74505805969E-08  0.93827000000E+00  0.93827000000E+00 0. -1.
     999902    2    1    2    0    0  0.10714743469E-01  0.11369268439E-01 -0.99033400899E-02  0.10254329154E+01  0.10252660737E+01 0.  0.
     999903    2    3    3    0    0 -0.52433421014E-01 -0.15955682465E-01 -0.12299291822E+00  0.13553202416E+00  0.15421549774E-01 0.  0.
         14    1    1    2    0    0 -0.10714743469E-01 -0.11369268439E-01  0.99033400899E-02  0.18497084565E-01  0.00000000000E+00 0. -1.
     999901    1    3    3    0    0  0.63148164483E-01  0.27324950905E-01  0.11308957813E+00  0.88990089128E+00  0.88000000000E+00 0.  1.
        -11    1    4    4    0    0 -0.51318861763E-01 -0.17783730458E-01 -0.11406468371E+00  0.12633645489E+00  0.51100000000E-03 0. -1.
         11    1    4    4    0    0 -0.11145592508E-02  0.18280479927E-02 -0.89282345064E-02  0.91955692694E-02  0.51100000000E-03 0.  1.
</event>
<event>
 8    1  0.1126414E+005  0.1043930E+01  0.7957747E-01            NaN
         13   -1    0    0    0    0  0.00000000000E+00  0.00000000000E+00  0.74505805969E-08  0.10566000000E+00  0.10566000000E+00 0.  1.
     999900   -1    0    0    0    0 -0.00000000000E+00 -0.00000000000E+00 -0.74505805969E-08  0.93827000000E+00  0.93827000000E+00 0. -1.
     999902    2    1    2    0    0 -0.17690799411E-01  0.16185007108E-01 -0.22696978423E-02  0.10198453500E+01  0.10195609190E+01 0.  0.
     999903    2    3    3    0    0  0.32254375856E-01  0.10376002377E+00 -0.71078445074E-01  0.13142059357E+00  0.20315997791E-01 0.  0.
         14    1    1    2    0    0  0.17690799411E-01 -0.16185007108E-01  0.22696978423E-02  0.24084650033E-01  0.00000000000E+00 0. -1.
     999901    1    3    3    0    0 -0.49945175268E-01 -0.87575016664E-01  0.68808747232E-01  0.88842475639E+00  0.88000000000E+00 0.  1.
        -11    1    4    4    0    0  0.19601578911E-01  0.41153181042E-01 -0.38754005054E-01  0.59832601768E-01  0.51100000000E-03 0. -1.
         11    1    4    4    0    0  0.12652796946E-01  0.62606842730E-01 -0.32324440021E-01  0.71587991806E-01  0.51100000000E-03 0.  1.
</event>
<event>
 8    1  0.1126414E+005  0.1043930E+01  0.7957747E-01            NaN
         13   -1    0    0    0    0  0.00000000000E+00  0.00000000000E+00  0.74505805969E-08  0.10566000000E+00  0.10566000000E+00 0.  1.
     999900   -1    0    0    0    0 -0.00000000000E+00 -0.00000000000E+00 -0.74505805969E-08  0.93827000000E+00  0.93827000000E+00 0. -1.
     999902    2    1    2    0    0  0.10142733058E-01 -0.19723102073E-01 -0.94200388379E-02  0.10198340891E+01  0.10195493889E+01 0.  0.
     999903    2    3    3    0    0 -0.78087606724E-01 -0.40131231795E-01  0.92544547918E-01  0.12932981537E+00  0.21295955144E-01 0.  0.
         14    1    1    2    0    0 -0.10142733058E-01  0.19723102073E-01  0.94200388379E-02  0.24095910877E-01  0.00000000000E+00 0.  1.
     999901    1    3    3    0    0  0.88230339782E-01  0.20408129722E-01 -0.10196458676E+00  0.89050427375E+00  0.88000000000E+00 0. -1.
        -11    1    4    4    0    0 -0.19278587193E-01 -0.17395170113E-01  0.37590698491E-01  0.45690016431E-01  0.51100000000E-03 0.  1.
         11    1    4    4    0    0 -0.58809019531E-01 -0.22736061682E-01  0.54953849427E-01  0.83639798941E-01  0.51100000000E-03 0. -1.
</event>
<event>
 8    1  0.1126414E+005  0.1043930E+01  0.7957747E-01            NaN
         13   -1    0    0    0    0  0.00000000000E+00  0.00000000000E+00  0.74505805969E-08  0.10566000000E+00  0.10566000000E+00 0.  1.
     999900   -1    0    0    0    0 -0.00000000000E+00 -0.00000000000E+00 -0.74505805969E-08  0.93827000000E+00  0.93827000000E+00 0. -1.
     999902    2    1    2    0    0  0.18817768976E-01  0.13966795945E-01  0.74286120838E-02  0.10193461822E+01  0.10190496922E+01 0.  0.
     999903    2    3    3    0    0  0.74141376635E-01 -0.25183224582E-01 -0.10233460011E+00  0.12994110668E+00  0.16768491227E-01 0.  0.
         14    1    1    2    0    0 -0.18817768976E-01 -0.13966795945E-01 -0.74286120838E-02  0.24583817761E-01  0.00000000000E+00 0.  1.
     999901    1    3    3    0    0 -0.55323607659E-01  0.39150020527E-01  0.10976321219E+00  0.88940507555E+00  0.88000000000E+00 0.  1.
        -11    1    4    4    0    0  0.19616401707E-01 -0.13130260253E-01 -0.38133480350E-01  0.44851202825E-01  0.51100000000E-03 0. -1.
         11    1    4    4    0    0  0.54524974928E-01 -0.12052964329E-01 -0.64201119755E-01  0.85089903860E-01  0.51100000000E-03 0.  1.
</event>
<event>
 8    1  0.1126414E+005  0.1043930E+01  0.7957747E-01            NaN
         13   -1    0    0    0    0  0.00000000000E+00  0.00000000000E+00  0.74505805969E-08  0.10566000000E+00  0.10566000000E+00 0.  1.
     999900   -1    0    0    0    0 -0.00000000000E+00 -0.00000000000E+00 -0.74505805969E-08  0.93827000000E+00  0.93827000000E+00 0.  1.
     999902    2    1    2    0    0 -0.12154136227E-01  0.68527754761E-03  0.16952002475E-01  0.10230598534E+01  0.10228469585E+01 0.  0.
     999903    2    3    3    0    0  0.48501560361E-01  0.37184634244E-01  0.11801801825E+00  0.13445102147E+00  0.20340259638E-01 0.  0.
         14    1    1    2    0    0  0.12154136227E-01 -0.68527754761E-03 -0.16952002475E-01  0.20870146637E-01  0.00000000000E+00 0. -1.
     999901    1    3    3    0    0 -0.60655696588E-01 -0.36499356696E-01 -0.10106601577E+00  0.88860883189E+00  0.88000000000E+00 0. -1.
        -11    1    4    4    0    0  0.15738509142E-01  0.13084660759E-01  0.61496513830E-01  0.64815054975E-01  0.51100000000E-03 0.  1.
         11    1    4    4    0    0  0.32763051219E-01  0.24099973485E-01  0.56521504420E-01  0.69635966498E-01  0.51100000000E-03 0. -1.
</event>
<event>
 8    1  0.1126414E+005  0.1043930E+01  0.7957747E-01            NaN
         13   -1    0    0    0    0  0.00000000000E+00  0.00000000000E+00  0.74505805969E-08  0.10566000000E+00  0.10566000000E+00 0. -1.
     999900   -1    0    0    0    0 -0.00000000000E+00 -0.00000000000E+00 -0.74505805969E-08  0.93827000000E+00  0.93827000000E+00 0. -1.
     999902    2    1    2    0    0  0.32097952423E-02  0.17518753752E-01  0.15256585584E-01  0.10204784985E+01  0.10202089948E+01 0.  0.
     999903    2    3    3    0    0  0.12865673231E-01 -0.77727096253E-01 -0.98774732171E-01  0.12797183223E+00  0.20330152221E-01 0.  0.
         14    1    1    2    0    0 -0.32097952423E-02 -0.17518753752E-01 -0.15256585584E-01  0.23451501491E-01  0.00000000000E+00 0.  1.
     999901    1    3    3    0    0 -0.96558779892E-02  0.95245850005E-01  0.11403131775E+00  0.89250666628E+00  0.88000000000E+00 0. -1.
        -11    1    4    4    0    0  0.12791592262E-01 -0.33716488342E-01 -0.55919535349E-01  0.66540829371E-01  0.51100000000E-03 0.  1.
         11    1    4    4    0    0  0.74080969588E-04 -0.44010607911E-01 -0.42855196822E-01  0.61431002859E-01  0.51100000000E-03 0. -1.
</event>
<event>
 8    1  0.1126414E+005  0.1043930E+01  0.7957747E-01            NaN
         13   -1    0    0    0    0  0.00000000000E+00  0.00000000000E+00  0.74505805969E-08  0.10566000000E+00  0.10566000000E+00 0.  1.
     999900   -1    0    0    0    0 -0.00000000000E+00 -0.00000000000E+00 -0.74505805969E-08  0.93827000000E+00  0.93827000000E+00 0.  1.
     999902    2    1    2    0    0 -0.42763871060E-02 -0.19118681388E-01 -0.12016958130E-01  0.10209469900E+01  0.10206882667E+01 0.  0.
     999903    2    3    3    0    0  0.86287421594E-01 -0.62247895693E-01  0.73943307030E-01  0.13108683261E+00  0.19895360904E-01 0.  0.
         14    1    1    2    0    0  0.42763871060E-02  0.19118681388E-01  0.12016958130E-01  0.22983009972E-01  0.00000000000E+00 0. -1.
     999901    1    3    3    0    0 -0.90563808700E-01  0.43129214305E-01 -0.85960265160E-01  0.88986015742E+00  0.88000000000E+00 0.  1.
        -11    1    4    4    0    0  0.38709950955E-01 -0.34116157870E-01  0.25358893887E-01  0.57495279380E-01  0.51100000000E-03 0.  1.
         11    1    4    4    0    0  0.47577470639E-01 -0.28131737823E-01  0.48584413143E-01  0.73591553230E-01  0.51100000000E-03 0. -1.
</event>
<event>
 8    1  0.1126414E+005  0.1043930E+01  0.7957747E-01            NaN
         13   -1    0    0    0    0  0.00000000000E+00  0.00000000000E+00  0.74505805969E-08  0.10566000000E+00  0.10566000000E+00 0.  1.
     999900   -1    0    0    0    0 -0.00000000000E+00 -0.00000000000E+00 -0.74505805969E-08  0.93827000000E+00  0.93827000000E+00 0. -1.
     999902    2    1    2    0    0  0.84744958536E-02 -0.58236343498E-02 -0.21887734007E-01  0.10197472645E+01  0.10194604841E+01 0.  0.
     999903    2    3    3    0    0 -0.96380450416E-01  0.10641442917E-01  0.80455093934E-01  0.12748064909E+00  0.19387166412E-01 0.  0.
         14    1    1    2    0    0 -0.84744958536E-02  0.58236343498E-02  0.21887734007E-01  0.24182735515E-01  0.00000000000E+00 0.  1.
     999901    1    3    3    0    0  0.10485494627E+00 -0.16465077267E-01 -0.10234282794E+00  0.89226661540E+00  0.88000000000E+00 0. -1.
        -11    1    4    4    0    0 -0.72083989429E-01  0.58563122243E-02  0.48626958618E-01  0.87150674985E-01  0.51100000000E-03 0.  1.
         11    1    4    4    0    0 -0.24296460987E-01  0.47851306931E-02  0.31828135316E-01  0.40329974100E-01  0.51100000000E-03 0. -1.
</event>
<event>
 8    1  0.1126414E+005  0.1043930E+01  0.7957747E-01            NaN
         13   -1    0    0    0    0  0.00000000000E+00  0.00000000000E+00  0.74505805969E-08  0.10566000000E+00  0.10566000000E+00 0.  1.
     999900   -1    0    0    0    0 -0.00000000000E+00 -0.00000000000E+00 -0.74505805969E-08  0.93827000000E+00  0.93827000000E+00 0. -1.
     999902    2    1    2    0    0 -0.17336265579E-01  0.12144210422E-01 -0.10071239943E-01  0.10204894833E+01  0.10202202349E+01 0.  0.
     999903    2    3    3    0    0 -0.76567015706E-01 -0.62972320817E-01  0.82463487121E-01  0.13048192670E+00  0.19932019558E-01 0.  0.
         14    1    1    2    0    0  0.17336265579E-01 -0.12144210422E-01  0.10071239943E-01  0.23440516739E-01  0.00000000000E+00 0.  1.
     999901    1    3    3    0    0  0.59230750126E-01  0.75116531239E-01 -0.92534727064E-01  0.89000755656E+00  0.88000000000E+00 0. -1.
        -11    1    4    4    0    0 -0.37908122307E-01 -0.26638011176E-01  0.26548729107E-01  0.53401362477E-01  0.51100000000E-03 0.  1.
         11    1    4    4    0    0 -0.38658893399E-01 -0.36334309641E-01  0.55914758014E-01  0.77080564221E-01  0.51100000000E-03 0. -1.
</event>
<event>
 8    1  0.1126414E+005  0.1043930E+01  0.7957747E-01            NaN
         13   -1    0    0    0    0  0.00000000000E+00  0.00000000000E+00  0.74505805969E-08  0.10566000000E+00  0.10566000000E+00 0. -1.
     999900   -1    0    0    0    0 -0.00000000000E+00 -0.00000000000E+00 -0.74505805969E-08  0.93827000000E+00  0.93827000000E+00 0. -1.
     999902    2    1    2    0    0 -0.15803958848E-01 -0.16354883829E-01  0.62516332103E-02  0.10203433458E+01  0.10200706902E+01 0.  0.
     999903    2    3    3    0    0 -0.47910070653E-03  0.11514351386E+00 -0.53675700772E-01  0.12842520757E+00  0.18806774437E-01 0.  0.
         14    1    1    2    0    0  0.15803958848E-01  0.16354883829E-01 -0.62516332103E-02  0.23586654238E-01  0.00000000000E+00 0. -1.
     999901    1    3    3    0    0 -0.15324858142E-01 -0.13149839769E+00  0.59927333983E-01  0.89191813819E+00  0.88000000000E+00 0. -1.
        -11    1    4    4    0    0  0.48242242086E-02  0.89979804423E-01 -0.35135567131E-01  0.96718186200E-01  0.51100000000E-03 0.  1.
         11    1    4    4    0    0 -0.53033249151E-02  0.25163709440E-01 -0.18540133641E-01  0.31707021373E-01  0.51100000000E-03 0. -1.
</event>
<event>
 8    1  0.1126414E+005  0.1043930E+01  0.7957747E-01            NaN
         13   -1    0    0    0    0  0.00000000000E+00  0.00000000000E+00  0.74505805969E-08  0.10566000000E+00  0.10566000000E+00 0.  1.
     999900   -1    0    0    0    0 -0.00000000000E+00 -0.00000000000E+00 -0.74505805969E-08  0.93827000000E+00  0.93827000000E+00 0. -1.
     999902    2    1    2    0    0 -0.17126268787E-01  0.13890832597E-01 -0.95108884888E-02  0.10199149774E+01  0.10196322081E+01 0.  0.
     999903    2    3    3    0    0 -0.20789883205E-01 -0.12510527315E+00 -0.14455987147E-01  0.12898411950E+00  0.18557448736E-01 0.  0.
         14    1    1    2    0    0  0.17126268787E-01 -0.13890832597E-01  0.95108884888E-02  0.24015022645E-01  0.00000000000E+00 0.  1.
     999901    1    3    3    0    0  0.36636144187E-02  0.13899610575E+00  0.49450986583E-02  0.89093085786E+00  0.88000000000E+00 0. -1.
        -11    1    4    4    0    0 -0.15596808756E-01 -0.90208452334E-01 -0.20155369727E-02  0.91570458261E-01  0.51100000000E-03 0. -1.
         11    1    4    4    0    0 -0.51930744496E-02 -0.34896820818E-01 -0.12440450174E-01  0.37413661235E-01  0.51100000000E-03 0.  1.
</event>
<event>
 8    1  0.1126414E+005  0.1043930E+01  0.7957747E-01            NaN
         13   -1    0    0    0    0  0.00000000000E+00  0.00000000000E+00  0.74505805969E-08  0.10566000000E+00  0.10566000000E+00 0.  1.
     999900   -1    0    0    0    0 -0.00000000000E+00 -0.00000000000E+00 -0.74505805969E-08  0.93827000000E+00  0.93827000000E+00 0. -1.
     999902    2    1    2    0    0  0.14894514239E-01 -0.15350510479E-01 -0.10865285372E-01  0.10199396029E+01  0.10196574201E+01 0.  0.
     999903    2    3    3    0    0  0.21315282553E-02  0.11631387179E+00 -0.51957408985E-01  0.12910462044E+00  0.20855946074E-01 0.  0.
         14    1    1    2    0    0 -0.14894514239E-01  0.15350510479E-01  0.10865285372E-01  0.23990397091E-01  0.00000000000E+00 0.  1.
     999901    1    3    3    0    0  0.12762985984E-01 -0.13166438227E+00  0.41092123613E-01  0.89083498247E+00  0.88000000000E+00 0. -1.
        -11    1    4    4    0    0  0.58015180404E-02  0.48623460192E-01 -0.31759218867E-01  0.58367864418E-01  0.51100000000E-03 0.  1.
         11    1    4    4    0    0 -0.36699897852E-02  0.67690411598E-01 -0.20198190118E-01  0.70736756021E-01  0.51100000000E-03 0. -1.
</event>
<event>
 8    1  0.1126414E+005  0.1043930E+01  0.7957747E-01            NaN
         13   -1    0    0    0    0  0.00000000000E+00  0.00000000000E+00  0.74505805969E-08  0.10566000000E+00  0.10566000000E+00 0. -1.
     999900   -1    0    0    0    0 -0.00000000000E+00 -0.00000000000E+00 -0.74505805969E-08  0.93827000000E+00  0.93827000000E+00 0. -1.
     999902    2    1    2    0    0  0.13828673448E-01 -0.17302367943E-01  0.67022405314E-02  0.10207886048E+01  0.10205262620E+01 0.  0.
     999903    2    3    3    0    0 -0.23281467840E-01  0.12451157780E+00  0.11878248591E-01  0.12864783736E+00  0.19079138227E-01 0.  0.
         14    1    1    2    0    0 -0.13828673448E-01  0.17302367943E-01 -0.67022405314E-02  0.23141395246E-01  0.00000000000E+00 0.  1.
     999901    1    3    3    0    0  0.37110141288E-01 -0.14181394574E+00 -0.51760080598E-02  0.89214076740E+00  0.88000000000E+00 0.  1.
        -11    1    4    4    0    0 -0.24931792175E-01  0.89193991668E-01  0.11123309975E-01  0.93279963318E-01  0.51100000000E-03 0.  1.
         11    1    4    4    0    0  0.16503243352E-02  0.35317586133E-01  0.75493861618E-03  0.35367874039E-01  0.51100000000E-03 0. -1.
</event>
<event>
 8    1  0.1126414E+005  0.1043930E+01  0.7957747E-01            NaN
         13   -1    0    0    0    0  0.00000000000E+00  0.00000000000E+00  0.74505805969E-08  0.10566000000E+00  0.10566000000E+00 0. -1.
     999900   -1    0    0    0    0 -0.00000000000E+00 -0.00000000000E+00 -0.74505805969E-08  0.93827000000E+00  0.93827000000E+00 0. -1.
     999902    2    1    2    0    0  0.18283070145E-01 -0.12080898689E-01  0.87206189680E-02  0.10203446664E+01  0.10200720417E+01 0.  0.
     999903    2    3    3    0    0 -0.13040014042E-01 -0.13689034440E-01 -0.12652421313E+00  0.12946033813E+00  0.19853740427E-01 0.  0.
         14    1    1    2    0    0 -0.18283070145E-01  0.12080898689E-01 -0.87206189680E-02  0.23585333626E-01  0.00000000000E+00 0.  1.
     999901    1    3    3    0    0  0.31323084187E-01  0.16081357503E-02  0.13524483210E+00  0.89088432825E+00  0.88000000000E+00 0.  1.
        -11    1    4    4    0    0 -0.13656313937E-01 -0.46181044331E-02 -0.41214294957E-01  0.43665787851E-01  0.51100000000E-03 0. -1.
         11    1    4    4    0    0  0.61629989533E-03 -0.90709300066E-02 -0.85309918178E-01  0.85794550277E-01  0.51100000000E-03 0.  1.
</event>
<event>
 8    1  0.1126414E+005  0.1043930E+01  0.7957747E-01            NaN
         13   -1    0    0    0    0  0.00000000000E+00  0.00000000000E+00  0.74505805969E-08  0.10566000000E+00  0.10566000000E+00 0. -1.
     999900   -1    0    0    0    0 -0.00000000000E+00 -0.00000000000E+00 -0.74505805969E-08  0.93827000000E+00  0.93827000000E+00 0.  1.
     999902    2    1    2    0    0  0.22190828743E-01  0.60848537421E-02 -0.51836154962E-02  0.10203433895E+01  0.10200707349E+01 0.  0.
     999903    2    3    3    0    0  0.11292338738E+00  0.62657805722E-01  0.26429271396E-01  0.13330772465E+00  0.19868342416E-01 0.  0.
         14    1    1    2    0    0 -0.22190828743E-01 -0.60848537421E-02  0.51836154962E-02  0.23586610502E-01  0.00000000000E+00 0.  1.
     999901    1    3    3    0    0 -0.90732558635E-01 -0.56572951980E-01 -0.31612886893E-01  0.88703566485E+00  0.88000000000E+00 0.  1.
        -11    1    4    4    0    0  0.67038439127E-01  0.31441557522E-01  0.23676919929E-01  0.77740475419E-01  0.51100000000E-03 0.  1.
         11    1    4    4    0    0  0.45884948251E-01  0.31216248200E-01  0.27523514670E-02  0.55567249232E-01  0.51100000000E-03 0. -1.
</event>
<event>
 8    1  0.1126414E+005  0.1043930E+01  0.7957747E-01            NaN
         13   -1    0    0    0    0  0.00000000000E+00  0.00000000000E+00  0.74505805969E-08  0.10566000000E+00  0.10566000000E+00 0. -1.
     999900   -1    0    0    0    0 -0.00000000000E+00 -0.00000000000E+00 -0.74505805969E-08  0.93827000000E+00  0.93827000000E+00 0. -1.
     999902    2    1    2    0    0  0.22989933834E-01  0.57647212737E-02 -0.38273936592E-02  0.10199212930E+01  0.10196386742E+01 0.  0.
     999903    2    3    3    0    0 -0.63456550801E-01 -0.19014615589E-01 -0.10905110467E+00  0.12910198496E+00  0.19669510541E-01 0.  0.
         14    1    1    2    0    0 -0.22989933834E-01 -0.57647212737E-02  0.38273936592E-02  0.24008706989E-01  0.00000000000E+00 0.  1.
     999901    1    3    3    0    0  0.86446484635E-01  0.24779336862E-01  0.10522371101E+00  0.89081930805E+00  0.88000000000E+00 0.  1.
        -11    1    4    4    0    0 -0.51058879912E-01 -0.76068440472E-02 -0.89184017069E-01  0.10304816018E+00  0.51100000000E-03 0.  1.
         11    1    4    4    0    0 -0.12397670889E-01 -0.11407771541E-01 -0.19867087601E-01  0.26053824781E-01  0.51100000000E-03 0. -1.
</event>
<event>
 8    1  0.1126414E+005  0.1043930E+01  0.7957747E-01            NaN
         13   -1    0    0    0    0  0.00000000000E+00  0.00000000000E+00  0.74505805969E-08  0.10566000000E+00  0.10566000000E+00 0.  1.
     999900   -1    0    0    0    0 -0.00000000000E+00 -0.00000000000E+00 -0.74505805969E-08  0.93827000000E+00  0.93827000000E+00 0.  1.
     999902    2    1    2    0    0 -0.13293718893E-01 -0.31415192334E-01 -0.50941083285E-03  0.10098140687E+01  0.10092376115E+01 0.  0.
     999903    2    3    3    0    0 -0.26415939004E-01  0.10591112627E+00 -0.40754415077E-01  0.11815809756E+00  0.19632757546E-01 0.  0.
         14    1    1    2    0    0  0.13293718893E-01  0.31415192334E-01  0.50941083285E-03  0.34115931334E-01  0.00000000000E+00 0. -1.
     999901    1    3    3    0    0  0.13122220111E-01 -0.13732631861E+00  0.40245004245E-01  0.89165597111E+00  0.88000000000E+00 0. -1.
        -11    1    4    4    0    0 -0.18211057266E-01  0.96619768162E-01 -0.38257972074E-01  0.10550334476E+00  0.51100000000E-03 0. -1.
         11    1    4    4    0    0 -0.82048817373E-02  0.92913581108E-02 -0.24964430036E-02  0.12654752804E-01  0.51100000000E-03 0.  1.
</event>
<event>
 8    1  0.1126414E+005  0.1043930E+01  0.7957747E-01            NaN
         13   -1    0    0    0    0  0.00000000000E+00  0.00000000000E+00  0.74505805969E-08  0.10566000000E+00  0.10566000000E+00 0.  1.
     999900   -1    0    0    0    0 -0.00000000000E+00 -0.00000000000E+00 -0.74505805969E-08  0.93827000000E+00  0.93827000000E+00 0.  1.
     999902    2    1    2    0    0  0.75827862020E-02  0.20277934109E-01 -0.10967647354E-01  0.10196610374E+01  0.10193721836E+01 0.  0.
     999903    2    3    3    0    0  0.82186575134E-01 -0.70087696338E-01 -0.69456178074E-01  0.12996862945E+00  0.20019132334E-01 0.  0.
         14    1    1    2    0    0 -0.75827862020E-02 -0.20277934109E-01  0.10967647354E-01  0.24268962623E-01  0.00000000000E+00 0.  1.
     999901    1    3    3    0    0 -0.74603788932E-01  0.90365630447E-01  0.58488530720E-01  0.88969240792E+00  0.88000000000E+00 0.  1.
        -11    1    4    4    0    0  0.46843838301E-01 -0.42517853736E-01 -0.51889930389E-01  0.81822607327E-01  0.51100000000E-03 0. -1.
         11    1    4    4    0    0  0.35342736832E-01 -0.27569842602E-01 -0.17566247685E-01  0.48146022127E-01  0.51100000000E-03 0.  1.
</event>
<event>
 8    1  0.1126414E+005  0.1043930E+01  0.7957747E-01            NaN
         13   -1    0    0    0    0  0.00000000000E+00  0.00000000000E+00  0.74505805969E-08  0.10566000000E+00  0.10566000000E+00 0.  1.
     999900   -1    0    0    0    0 -0.00000000000E+00 -0.00000000000E+00 -0.74505805969E-08  0.93827000000E+00  0.93827000000E+00 0. -1.
     999902    2    1    2    0    0  0.11616758929E-01 -0.14881786062E-01 -0.17677623987E-01  0.10180666082E+01  0.10177380330E+01 0.  0.
     999903    2    3    3    0    0 -0.31254668298E-01  0.28521564761E-01  0.11684977314E+00  0.12575532245E+00  0.19240522185E-01 0.  0.
         14    1    1    2    0    0 -0.11616758929E-01  0.14881786062E-01  0.17677623987E-01  0.25863391778E-01  0.00000000000E+00 0.  1.
     999901    1    3    3    0    0  0.42871427227E-01 -0.43403350823E-01 -0.13452739713E+00  0.89231128577E+00  0.88000000000E+00 0. -1.
        -11    1    4    4    0    0 -0.24090220387E-01  0.24128118944E-01  0.66776677179E-01  0.74979267656E-01  0.51100000000E-03 0.  1.
         11    1    4    4    0    0 -0.71644479112E-02  0.43934458172E-02  0.50073095966E-01  0.50776054796E-01  0.51100000000E-03 0. -1.
</event>
<event>
 8    1  0.1126414E+005  0.1043930E+01  0.7957747E-01            NaN
         13   -1    0    0    0    0  0.00000000000E+00  0.00000000000E+00  0.74505805969E-08  0.10566000000E+00  0.10566000000E+00 0. -1.
     999900   -1    0    0    0    0 -0.00000000000E+00 -0.00000000000E+00 -0.74505805969E-08  0.93827000000E+00  0.93827000000E+00 0.  1.
     999902    2    1    2    0    0 -0.69129002383E-02 -0.21979534306E-01 -0.80162647419E-02  0.10195343320E+01  0.10192424174E+01 0.  0.
     999903    2    3    3    0    0  0.51885272893E-01  0.99024999886E-01 -0.58348768778E-01  0.12788827920E+00  0.21279121087E-01 0.  0.
         14    1    1    2    0    0  0.69129002383E-02  0.21979534306E-01  0.80162647419E-02  0.24395668026E-01  0.00000000000E+00 0. -1.
     999901    1    3    3    0    0 -0.58798173131E-01 -0.12100453419E+00  0.50332504036E-01  0.89164605277E+00  0.88000000000E+00 0. -1.
        -11    1    4    4    0    0  0.29861992115E-01  0.48031424662E-01 -0.40419473638E-01  0.69517992623E-01  0.51100000000E-03 0.  1.
         11    1    4    4    0    0  0.22023280778E-01  0.50993575223E-01 -0.17929295140E-01  0.58370286580E-01  0.51100000000E-03 0. -1.
</event>
<event>
 8    1  0.1126414E+005  0.1043930E+01  0.7957747E-01            NaN
         13   -1    0    0    0    0  0.00000000000E+00  0.00000000000E+00  0.74505805969E-08  0.10566000000E+00  0.10566000000E+00 0.  1.
     999900   -1    0    0    0    0 -0.00000000000E+00 -0.00000000000E+00 -0.74505805969E-08  0.93827000000E+00  0.93827000000E+00 0. -1.
     999902    2    1    2    0    0 -0.64642534317E-02  0.75869280915E-02  0.22048417539E-01  0.10197332902E+01  0.10194461743E+01 0.  0.
     999903    2    3    3    0    0 -0.67321660721E-01 -0.10280506531E+00 -0.33705578254E-01  0.12900408089E+00  0.20122112821E-01 0.  0.
         14    1    1    2    0    0  0.64642534317E-02 -0.75869280915E-02 -0.22048417539E-01  0.24196709824E-01  0.00000000000E+00 0. -1.
     999901    1    3    3    0    0  0.60857407289E-01  0.11039199340E+00  0.55753995794E-01  0.89072920929E+00  0.88000000000E+00 0.  1.
        -11    1    4    4    0    0 -0.28045909533E-01 -0.42898038502E-01 -0.38617934410E-02  0.51400285198E-01  0.51100000000E-03 0. -1.
         11    1    4    4    0    0 -0.39275751188E-01 -0.59907026812E-01 -0.29843784813E-01  0.77603795692E-01  0.51100000000E-03 0.  1.
</event>
<event>
 8    1  0.1126414E+005  0.1043930E+01  0.7957747E-01            NaN
         13   -1    0    0    0    0  0.00000000000E+00  0.00000000000E+00  0.74505805969E-08  0.10566000000E+00  0.10566000000E+00 0.  1.
     999900   -1    0    0    0    0 -0.00000000000E+00 -0.00000000000E+00 -0.74505805969E-08  0.93827000000E+00  0.93827000000E+00 0.  1.
     999902    2    1    2    0    0 -0.24305399594E-01 -0.89618615085E-02  0.11293153772E-01  0.10156704400E+01  0.10152772232E+01 0.  0.
     999903    2    3    3    0    0 -0.12590292853E+00  0.77558946536E-02  0.23388114164E-01  0.12958476165E+00  0.18262126158E-01 0.  0.
         14    1    1    2    0    0  0.24305399594E-01  0.89618615085E-02 -0.11293153772E-01  0.28259560033E-01  0.00000000000E+00 0. -1.
     999901    1    3    3    0    0  0.10159752894E+00 -0.16717756162E-01 -0.12094960391E-01  0.88608567832E+00  0.88000000000E+00 0.  1.
        -11    1    4    4    0    0 -0.96205476356E-01 -0.18575902841E-02  0.18454677896E-01  0.97978469981E-01  0.51100000000E-03 0.  1.
         11    1    4    4    0    0 -0.29697452178E-01  0.96134849378E-02  0.49334362674E-02  0.31606291666E-01  0.51100000000E-03 0. -1.
</event>
<event>
 8    1  0.1126414E+005  0.1043930E+01  0.7957747E-01            NaN
         13   -1    0    0    0    0  0.00000000000E+00  0.00000000000E+00  0.74505805969E-08  0.10566000000E+00  0.10566000000E+00 0. -1.
     999900   -1    0    0    0    0 -0.00000000000E+00 -0.00000000000E+00 -0.74505805969E-08  0.93827000000E+00  0.93827000000E+00 0. -1.
     999902    2    1    2    0    0  0.52839279049E-02 -0.23125675853E-01  0.33816992206E-02  0.10199685170E+01  0.10196870221E+01 0.  0.
     999903    2    3    3    0    0  0.90572019296E-02 -0.31219688760E-01 -0.12501358561E+00  0.13060632992E+00  0.19311006061E-01 0.  0.
         14    1    1    2    0    0 -0.52839279049E-02  0.23125675853E-01 -0.33816992206E-02  0.23961482996E-01  0.00000000000E+00 0.  1.
     999901    1    3    3    0    0 -0.37732740247E-02  0.80940129073E-02  0.12839528483E+00  0.88936218708E+00  0.88000000000E+00 0.  1.
        -11    1    4    4    0    0  0.72435436697E-02 -0.14510781028E-01 -0.29912216593E-01  0.34029891470E-01  0.51100000000E-03 0. -1.
         11    1    4    4    0    0  0.18136582599E-02 -0.16708907732E-01 -0.95101369020E-01  0.96576438453E-01  0.51100000000E-03 0.  1.
</event>
<event>
 8    1  0.1126414E+005  0.1043930E+01  0.7957747E-01            NaN
         13   -1    0    0    0    0  0.00000000000E+00  0.00000000000E+00  0.74505805969E-08  0.10566000000E+00  0.10566000000E+00 0.  1.
     999900   -1    0    0    0    0 -0.00000000000E+00 -0.00000000000E+00 -0.74505805969E-08  0.93827000000E+00  0.93827000000E+00 0.  1.
     999902    2    1    2    0    0  0.19808507974E-01 -0.93729748060E-02 -0.99976381374E-02  0.10198430240E+01  0.10195585374E+01 0.  0.
     999903    2    3    3    0    0  0.12226496991E+00 -0.24434216659E-01 -0.42652332159E-01  0.13316918506E+00  0.19210845898E-01 0.  0.
         14    1    1    2    0    0 -0.19808507974E-01  0.93729748060E-02  0.99976381374E-02  0.24086976007E-01  0.00000000000E+00 0.  1.
     999901    1    3    3    0    0 -0.10245646194E+00  0.15061241853E-01  0.32654694022E-01  0.88667383893E+00  0.88000000000E+00 0. -1.
        -11    1    4    4    0    0  0.19689036098E-01  0.96535078276E-03 -0.12222908058E-01  0.23200229460E-01  0.51100000000E-03 0. -1.
         11    1    4    4    0    0  0.10257593382E+00 -0.25399567442E-01 -0.30429424101E-01  0.10996895560E+00  0.51100000000E-03 0.  1.
</event>
<event>
 8    1  0.1126414E+005  0.1043930E+01  0.7957747E-01            NaN
         13   -1    0    0    0    0  0.00000000000E+00  0.00000000000E+00  0.74505805969E-08  0.10566000000E+00  0.10566000000E+00 0. -1.
     999900   -1    0    0    0    0 -0.00000000000E+00 -0.00000000000E+00 -0.74505805969E-08  0.93827000000E+00  0.93827000000E+00 0.  1.
     999902    2    1    2    0    0  0.21868408463E-01  0.70545967095E-02 -0.10298719792E-01  0.10187494866E+01  0.10184382447E+01 0.  0.
     999903    2    3    3    0    0  0.12348580314E+00  0.40848202328E-01 -0.12612281923E-01  0.13225444704E+00  0.20367864298E-01 0.  0.
         14    1    1    2    0    0 -0.21868408463E-01 -0.70545967095E-02  0.10298719792E-01  0.25180513354E-01  0.00000000000E+00 0. -1.
     999901    1    3    3    0    0 -0.10161739467E+00 -0.33793605619E-01  0.23135621306E-02  0.88649503961E+00  0.88000000000E+00 0. -1.
        -11    1    4    4    0    0  0.68719270741E-01  0.12455869507E-01 -0.38789699604E-02  0.69948512388E-01  0.51100000000E-03 0. -1.
         11    1    4    4    0    0  0.54766532395E-01  0.28392332821E-01 -0.87333119624E-02  0.62305934649E-01  0.51100000000E-03 0.  1.
</event>
<event>
 8    1  0.1126414E+005  0.1043930E+01  0.7957747E-01            NaN
         13   -1    0    0    0    0  0.00000000000E+00  0.00000000000E+00  0.74505805969E-08  0.10566000000E+00  0.10566000000E+00 0. -1.
     999900   -1    0    0    0    0 -0.00000000000E+00 -0.00000000000E+00 -0.74505805969E-08  0.93827000000E+00  0.93827000000E+00 0. -1.
     999902    2    1    2    0    0  0.11646102614E-03  0.23200867714E-01 -0.57598069690E-02  0.10200245780E+01  0.10197444143E+01 0.  0.
     999903    2    3    3    0    0 -0.11280926037E+00 -0.54662441113E-01  0.22910210780E-01  0.12893710565E+00  0.19646571244E-01 0.  0.
         14    1    1    2    0    0 -0.11646102614E-03 -0.23200867714E-01  0.57598069690E-02  0.23905422025E-01  0.00000000000E+00 0.  1.
     999901    1    3    3    0    0  0.11292572140E+00  0.77863308827E-01 -0.28670017749E-01  0.89108747232E+00  0.88000000000E+00 0. -1.
        -11    1    4    4    0    0 -0.23545284434E-01 -0.87765259146E-02  0.12383153498E-01  0.28018055567E-01  0.51100000000E-03 0.  1.
         11    1    4    4    0    0 -0.89263975938E-01 -0.45885915198E-01  0.10527057282E-01  0.10091905008E+00  0.51100000000E-03 0. -1.
</event>
<event>
 8    1  0.1126414E+005  0.1043930E+01  0.7957747E-01            NaN
         13   -1    0    0    0    0  0.00000000000E+00  0.00000000000E+00  0.74505805969E-08  0.10566000000E+00  0.10566000000E+00 0.  1.
     999900   -1    0    0    0    0 -0.00000000000E+00 -0.00000000000E+00 -0.74505805969E-08  0.93827000000E+00  0.93827000000E+00 0. -1.
     999902    2    1    2    0    0  0.20515829439E-01 -0.11068012775E-01 -0.35713378038E-02  0.10203470693E+01  0.10200745009E+01 0.  0.
     999903    2    3    3    0    0  0.40622132321E-01  0.76604599602E-01 -0.95963717399E-01  0.13095002518E+00  0.20504919463E-01 0.  0.
         14    1    1    2    0    0 -0.20515829439E-01  0.11068012775E-01  0.35713378038E-02  0.23582930650E-01  0.00000000000E+00 0. -1.
     999901    1    3    3    0    0 -0.20106302882E-01 -0.87672612377E-01  0.92392379596E-01  0.88939704417E+00  0.88000000000E+00 0.  1.
        -11    1    4    4    0    0  0.20705486335E-01  0.47790340613E-01 -0.43476716465E-01  0.67846295520E-01  0.51100000000E-03 0.  1.
         11    1    4    4    0    0  0.19916645986E-01  0.28814258989E-01 -0.52487000935E-01  0.63103729656E-01  0.51100000000E-03 0. -1.
</event>
<event>
 8    1  0.1126414E+005  0.1043930E+01  0.7957747E-01            NaN
         13   -1    0    0    0    0  0.00000000000E+00  0.00000000000E+00  0.74505805969E-08  0.10566000000E+00  0.10566000000E+00 0. -1.
     999900   -1    0    0    0    0 -0.00000000000E+00 -0.00000000000E+00 -0.74505805969E-08  0.93827000000E+00  0.93827000000E+00 0.  1.
     999902    2    1    2    0    0 -0.21344737046E-01  0.48901517033E-02  0.91606178574E-02  0.10201933553E+01  0.10199171799E+01 0.  0.
     999903    2    3    3    0    0 -0.11740218765E+00  0.19015229839E-01  0.57212624158E-01  0.13355050330E+00  0.20435262132E-01 0.  0.
         14    1    1    2    0    0  0.21344737046E-01 -0.48901517033E-02 -0.91606178574E-02  0.23736644725E-01  0.00000000000E+00 0.  1.
     999901    1    3    3    0    0  0.96057450602E-01 -0.14125078136E-01 -0.48052006300E-01  0.88664285197E+00  0.88000000000E+00 0.  1.
        -11    1    4    4    0    0 -0.31335187386E-01  0.99384493551E-02  0.24607944359E-01  0.41066760167E-01  0.51100000000E-03 0.  1.
         11    1    4    4    0    0 -0.86067000262E-01  0.90767804840E-02  0.32604679799E-01  0.92483743133E-01  0.51100000000E-03 0. -1.
</event>
<event>
 8    1  0.1126414E+005  0.1043930E+01  0.7957747E-01            NaN
         13   -1    0    0    0    0  0.00000000000E+00  0.00000000000E+00  0.74505805969E-08  0.10566000000E+00  0.10566000000E+00 0.  1.
     999900   -1    0    0    0    0 -0.00000000000E+00 -0.00000000000E+00 -0.74505805969E-08  0.93827000000E+00  0.93827000000E+00 0.  1.
     999902    2    1    2    0    0 -0.18004822009E-01  0.10242564418E-01 -0.11579192522E-01  0.10201989772E+01  0.10199229342E+01 0.  0.
     999903    2    3    3    0    0  0.55292608573E-01  0.27463640160E-01 -0.11383722196E+00  0.13108380846E+00  0.20310776558E-01 0.  0.
         14    1    1    2    0    0  0.18004822009E-01 -0.10242564418E-01  0.11579192522E-01  0.23731022753E-01  0.00000000000E+00 0.  1.
     999901    1    3    3    0    0 -0.73297430582E-01 -0.17221075742E-01  0.10225802944E+00  0.88911516879E+00  0.88000000000E+00 0. -1.
        -11    1    4    4    0    0  0.16300176547E-01 -0.94568007259E-03 -0.22742773723E-01  0.28001516814E-01  0.51100000000E-03 0. -1.
         11    1    4    4    0    0  0.38992432026E-01  0.28409320232E-01 -0.91094448235E-01  0.10308229165E+00  0.51100000000E-03 0.  1.
</event>
<event>
 8    1  0.1126414E+005  0.1043930E+01  0.7957747E-01            NaN
         13   -1    0    0    0    0  0.00000000000E+00  0.00000000000E+00  0.74505805969E-08  0.10566000000E+00  0.10566000000E+00 0. -1.
     999900   -1    0    0    0    0 -0.00000000000E+00 -0.00000000000E+00 -0.74505805969E-08  0.93827000000E+00  0.93827000000E+00 0.  1.
     999902    2    1    2    0    0 -0.13287362908E-01 -0.35519971175E-02 -0.10033336055E-01  0.10269053552E+01  0.10267642232E+01 0.  0.
     999903    2    3    3    0    0  0.97997342445E-01 -0.87057184010E-01  0.26370147930E-01  0.13523130296E+00  0.20240755497E-01 0.  0.
         14    1    1    2    0    0  0.13287362908E-01  0.35519971175E-02  0.10033336055E-01  0.17024644753E-01  0.00000000000E+00 0. -1.
     999901    1    3    3    0    0 -0.11128470535E+00  0.83505186893E-01 -0.36403483984E-01  0.89167405229E+00  0.88000000000E+00 0.  1.
        -11    1    4    4    0    0  0.57365563896E-01 -0.44003759168E-01  0.23252700183E-01  0.75947929062E-01  0.51100000000E-03 0. -1.
         11    1    4    4    0    0  0.40631778549E-01 -0.43053424843E-01  0.31174477468E-02  0.59283373893E-01  0.51100000000E-03 0.  1.
</event>
<event>
 8    1  0.1126414E+005  0.1043930E+01  0.7957747E-01            NaN
         13   -1    0    0    0    0  0.00000000000E+00  0.00000000000E+00  0.74505805969E-08  0.10566000000E+00  0.10566000000E+00 0.  1.
     999900   -1    0    0    0    0 -0.00000000000E+00 -0.00000000000E+00 -0.74505805969E-08  0.93827000000E+00  0.93827000000E+00 0.  1.
     999902    2    1    2    0    0 -0.75980181443E-03 -0.25237669904E-01 -0.40501106727E-02  0.10183581272E+01  0.10180370104E+01 0.  0.
     999903    2    3    3    0    0 -0.51872883040E-01  0.11041871772E+00 -0.25450878366E-01  0.12624087291E+00  0.20147495271E-01 0.  0.
         14    1    1    2    0    0  0.75980181443E-03  0.25237669904E-01  0.40501106727E-02  0.25571872779E-01  0.00000000000E+00 0. -1.
     999901    1    3    3    0    0  0.51113081225E-01 -0.13565638763E+00  0.21400767693E-01  0.89211725431E+00  0.88000000000E+00 0.  1.
        -11    1    4    4    0    0 -0.29531720573E-01  0.83093537234E-01 -0.15237975064E-01  0.89493661536E-01  0.51100000000E-03 0. -1.
         11    1    4    4    0    0 -0.22341162466E-01  0.27325180490E-01 -0.10212903302E-01  0.36747211377E-01  0.51100000000E-03 0.  1.
</event>
<event>
 8    1  0.1126414E+005  0.1043930E+01  0.7957747E-01            NaN
         13   -1    0    0    0    0  0.00000000000E+00  0.00000000000E+00  0.74505805969E-08  0.10566000000E+00  0.10566000000E+00 0. -1.
     999900   -1    0    0    0    0 -0.00000000000E+00 -0.00000000000E+00 -0.74505805969E-08  0.93827000000E+00  0.93827000000E+00 0.  1.
     999902    2    1    2    0    0  0.18016246713E-01  0.70330810121E-03  0.15333284627E-01  0.10202616793E+01  0.10199871101E+01 0.  0.
     999903    2    3    3    0    0 -0.93385240260E-01  0.65969674644E-01  0.58116305027E-01  0.12981214297E+00  0.20022149740E-01 0.  0.
         14    1    1    2    0    0 -0.18016246713E-01 -0.70330810121E-03 -0.15333284627E-01  0.23668320712E-01  0.00000000000E+00 0.  1.
     999901    1    3    3    0    0  0.11140148697E+00 -0.65266366543E-01 -0.42783020401E-01  0.89044953632E+00  0.88000000000E+00 0. -1.
        -11    1    4    4    0    0 -0.63722429340E-01  0.38563984699E-01  0.46414785709E-01  0.87762875809E-01  0.51100000000E-03 0.  1.
         11    1    4    4    0    0 -0.29662810920E-01  0.27405689945E-01  0.11701519318E-01  0.42049267156E-01  0.51100000000E-03 0. -1.
</event>
<event>
 8    1  0.1126414E+005  0.1043930E+01  0.7957747E-01            NaN
         13   -1    0    0    0    0  0.00000000000E+00  0.00000000000E+00  0.74505805969E-08  0.10566000000E+00  0.10566000000E+00 0. -1.
     999900   -1    0    0    0    0 -0.00000000000E+00 -0.00000000000E+00 -0.74505805969E-08  0.93827000000E+00  0.93827000000E+00 0. -1.
     999902    2    1    2    0    0 -0.77033126548E-02  0.34880608211E-02  0.21743485896E-01  0.10206000456E+01  0.10203333604E+01 0.  0.
     999903    2    3    3    0    0 -0.84388861537E-01  0.60643352600E-01  0.81784212603E-01  0.13338401234E+00  0.17422432387E-01 0.  0.
         14    1    1    2    0    0  0.77033126548E-02 -0.34880608211E-02 -0.21743485896E-01  0.23329954416E-01  0.00000000000E+00 0.  1.
     999901    1    3    3    0    0  0.76685548882E-01 -0.57155291779E-01 -0.60040726707E-01  0.88721603325E+00  0.88000000000E+00 0. -1.
        -11    1    4    4    0    0 -0.56498574281E-01  0.39698194410E-01  0.43602848461E-01  0.81667037720E-01  0.51100000000E-03 0. -1.
         11    1    4    4    0    0 -0.27890287256E-01  0.20945158190E-01  0.38181364142E-01  0.51716974617E-01  0.51100000000E-03 0.  1.
</event>
<event>
 8    1  0.1126414E+005  0.1043930E+01  0.7957747E-01            NaN
         13   -1    0    0    0    0  0.00000000000E+00  0.00000000000E+00  0.74505805969E-08  0.10566000000E+00  0.10566000000E+00 0.  1.
     999900   -1    0    0    0    0 -0.00000000000E+00 -0.00000000000E+00 -0.74505805969E-08  0.93827000000E+00  0.93827000000E+00 0. -1.
     999902    2    1    2    0    0  0.90437347678E-04 -0.49129184785E-02 -0.24942069612E-01  0.10185085173E+01  0.10181912139E+01 0.  0.
     999903    2    3    3    0    0  0.11570340934E+00  0.50830387016E-01  0.11387358554E-01  0.12845598920E+00  0.20006550133E-01 0.  0.
         14    1    1    2    0    0 -0.90437347678E-04  0.49129184785E-02  0.24942069612E-01  0.25421482715E-01  0.00000000000E+00 0.  1.
     999901    1    3    3    0    0 -0.11561297200E+00 -0.55743305495E-01 -0.36329428166E-01  0.89005252809E+00  0.88000000000E+00 0. -1.
        -11    1    4    4    0    0  0.60306230678E-01  0.32638887055E-01  0.14394880324E-01  0.70068624272E-01  0.51100000000E-03 0.  1.
         11    1    4    4    0    0  0.55397178666E-01  0.18191499961E-01 -0.30075217697E-02  0.58387364927E-01  0.51100000000E-03 0. -1.
</event>
<event>
 8    1  0.1126414E+005  0.1043930E+01  0.7957747E-01            NaN
         13   -1    0    0    0    0  0.00000000000E+00  0.00000000000E+00  0.74505805969E-08  0.10566000000E+00  0.10566000000E+00 0.  1.
     999900   -1    0    0    0    0 -0.00000000000E+00 -0.00000000000E+00 -0.74505805969E-08  0.93827000000E+00  0.93827000000E+00 0. -1.
     999902    2    1    2    0    0 -0.51160324311E-02  0.17319942314E-01  0.15496938340E-01  0.10201327462E+01  0.10198551420E+01 0.  0.
     999903    2    3    3    0    0  0.10078819188E+00 -0.21999557553E-02 -0.77393159744E-01  0.12871516648E+00  0.20366479309E-01 0.  0.
         14    1    1    2    0    0  0.51160324311E-02 -0.17319942314E-01 -0.15496938340E-01  0.23797253781E-01  0.00000000000E+00 0. -1.
     999901    1    3    3    0    0 -0.10590422431E+00  0.19519898070E-01  0.92890098084E-01  0.89141757974E+00  0.88000000000E+00 0.  1.
        -11    1    4    4    0    0  0.18695994724E-01 -0.56854371455E-02 -0.22953195692E-01  0.30149207747E-01  0.51100000000E-03 0.  1.
         11    1    4    4    0    0  0.82092197153E-01  0.34854813902E-02 -0.54439964051E-01  0.98565958733E-01  0.51100000000E-03 0. -1.
</event>
<event>
 8    1  0.1126414E+005  0.1043930E+01  0.7957747E-01            NaN
         13   -1    0    0    0    0  0.00000000000E+00  0.00000000000E+00  0.74505805969E-08  0.10566000000E+00  0.10566000000E+00 0. -1.
     999900   -1    0    0    0    0 -0.00000000000E+00 -0.00000000000E+00 -0.74505805969E-08  0.93827000000E+00  0.93827000000E+00 0. -1.
     999902    2    1    2    0    0  0.28741663733E-02  0.10615012038E-01  0.20827258232E-01  0.10203776329E+01  0.10201057786E+01 0.  0.
     999903    2    3    3    0    0 -0.11532069084E+00 -0.51449142661E-01 -0.19356451001E-01  0.12940248502E+00  0.20602303647E-01 0.  0.
         14    1    1    2    0    0 -0.28741663733E-02 -0.10615012038E-01 -0.20827258232E-01  0.23552367150E-01  0.00000000000E+00 0.  1.
     999901    1    3    3    0    0  0.11819485722E+00  0.62064154698E-01  0.40183709233E-01  0.89097514783E+00  0.88000000000E+00 0.  1.
        -11    1    4    4    0    0 -0.91049403362E-01 -0.36779190809E-01 -0.22853620285E-01  0.10082287345E+00  0.51100000000E-03 0.  1.
         11    1    4    4    0    0 -0.24271287483E-01 -0.14669951852E-01  0.34971692835E-02  0.28579611568E-01  0.51100000000E-03 0. -1.
</event>
<event>
 8    1  0.1126414E+005  0.1043930E+01  0.7957747E-01            NaN
         13   -1    0    0    0    0  0.00000000000E+00  0.00000000000E+00  0.74505805969E-08  0.10566000000E+00  0.10566000000E+00 0.  1.
     999900   -1    0    0    0    0 -0.00000000000E+00 -0.00000000000E+00 -0.74505805969E-08  0.93827000000E+00  0.93827000000E+00 0.  1.
     999902    2    1    2    0    0 -0.38272996941E-02  0.19244805416E-01  0.12433146605E-01  0.10207008396E+01  0.10204364802E+01 0.  0.
     999903    2    3    3    0    0  0.11273817470E+00  0.52130840407E-01 -0.36394123954E-01  0.13106433885E+00  0.20635118195E-01 0.  0.
         14    1    1    2    0    0  0.38272996941E-02 -0.19244805416E-01 -0.12433146605E-01  0.23229160401E-01  0.00000000000E+00 0. -1.
     999901    1    3    3    0    0 -0.11656547439E+00 -0.32886034992E-01  0.48827270559E-01  0.88963650075E+00  0.88000000000E+00 0.  1.
        -11    1    4    4    0    0  0.39980285809E-01  0.15026581192E-01 -0.29753702093E-02  0.42817465415E-01  0.51100000000E-03 0.  1.
         11    1    4    4    0    0  0.72757888892E-01  0.37104259215E-01 -0.33418753744E-01  0.88246873433E-01  0.51100000000E-03 0. -1.
</event>
<event>
 8    1  0.1126414E+005  0.1043930E+01  0.7957747E-01            NaN
         13   -1    0    0    0    0  0.00000000000E+00  0.00000000000E+00  0.74505805969E-08  0.10566000000E+00  0.10566000000E+00 0. -1.
     999900   -1    0    0    0    0 -0.00000000000E+00 -0.00000000000E+00 -0.74505805969E-08  0.93827000000E+00  0.93827000000E+00 0. -1.
     999902    2    1    2    0    0  0.17279764886E-01 -0.13462971779E-01 -0.93852088312E-02  0.10200988433E+01  0.10198204382E+01 0.  0.
     999903    2    3    3    0    0 -0.66181777612E-01  0.62446458942E-01  0.87296765198E-01  0.12764409666E+00  0.19816717060E-01 0.  0.
         14    1    1    2    0    0 -0.17279764886E-01  0.13462971779E-01  0.93852088312E-02  0.23831156675E-01  0.00000000000E+00 0. -1.
     999901    1    3    3    0    0  0.83461542498E-01 -0.75909430721E-01 -0.96681974029E-01  0.89245474667E+00  0.88000000000E+00 0. -1.
        -11    1    4    4    0    0 -0.29389148779E-01  0.17196152345E-01  0.24570458514E-01  0.41992835985E-01  0.51100000000E-03 0.  1.
         11    1    4    4    0    0 -0.36792628833E-01  0.45250306597E-01  0.62726306684E-01  0.85651260672E-01  0.51100000000E-03 0. -1.
</event>
<event>
 8    1  0.1126414E+005  0.1043930E+01  0.7957747E-01            NaN
         13   -1    0    0    0    0  0.00000000000E+00  0.00000000000E+00  0.74505805969E-08  0.10566000000E+00  0.10566000000E+00 0. -1.
     999900   -1    0    0    0    0 -0.00000000000E+00 -0.00000000000E+00 -0.74505805969E-08  0.93827000000E+00  0.93827000000E+00 0.  1.
     999902    2    1    2    0    0  0.14571328511E-01  0.97437399289E-02  0.15943710132E-01  0.10202347267E+01  0.10199595245E+01 0.  0.
     999903    2    3    3    0    0  0.84322272519E-01 -0.21386262815E-01  0.98727654787E-01  0.13305523376E+00  0.19721245680E-01 0.  0.
         14    1    1    2    0    0 -0.14571328511E-01 -0.97437399289E-02 -0.15943710132E-01  0.23695273266E-01  0.00000000000E+00 0.  1.
     999901    1    3    3    0    0 -0.69750944008E-01  0.31130002744E-01 -0.82783944655E-01  0.88717949297E+00  0.88000000000E+00 0.  1.
        -11    1    4    4    0    0  0.26253197611E-01 -0.82593819120E-02  0.18564227884E-01  0.33201497742E-01  0.51100000000E-03 0. -1.
         11    1    4    4    0    0  0.58069074908E-01 -0.13126880903E-01  0.80163426903E-01  0.99853736018E-01  0.51100000000E-03 0.  1.
</event>
<event>
 8    1  0.1126414E+005  0.1043930E+01  0.7957747E-01            NaN
         13   -1    0    0    0    0  0.00000000000E+00  0.00000000000E+00  0.74505805969E-08  0.10566000000E+00  0.10566000000E+00 0.  1.
     999900   -1    0    0    0    0 -0.00000000000E+00 -0.00000000000E+00 -0.74505805969E-08  0.93827000000E+00  0.93827000000E+00 0.  1.
     999902    2    1    2    0    0 -0.14563371306E-01  0.18018528686E-01 -0.18586898893E-02  0.10206874982E+01  0.10204228316E+01 0.  0.
     999903    2    3    3    0    0  0.83035723539E-01 -0.59959814349E-01 -0.75461289373E-01  0.12882229097E+00  0.20264889246E-01 0.  0.
         14    1    1    2    0    0  0.14563371306E-01 -0.18018528686E-01  0.18586898893E-02  0.23242501757E-01  0.00000000000E+00 0.  1.
     999901    1    3    3    0    0 -0.97599094845E-01  0.77978343035E-01  0.73602599484E-01  0.89186520728E+00  0.88000000000E+00 0.  1.
        -11    1    4    4    0    0  0.53628640300E-01 -0.41939169267E-01 -0.38283475170E-01  0.78107685738E-01  0.51100000000E-03 0.  1.
         11    1    4    4    0    0  0.29407083239E-01 -0.18020645082E-01 -0.37177814203E-01  0.50714605230E-01  0.51100000000E-03 0. -1.
</event>
<event>
 8    1  0.1126414E+005  0.1043930E+01  0.7957747E-01            NaN
         13   -1    0    0    0    0  0.00000000000E+00  0.00000000000E+00  0.74505805969E-08  0.10566000000E+00  0.10566000000E+00 0.  1.
     999900   -1    0    0    0    0 -0.00000000000E+00 -0.00000000000E+00 -0.74505805969E-08  0.93827000000E+00  0.93827000000E+00 0. -1.
     999902    2    1    2    0    0 -0.32831485285E-02  0.24249442532E-01  0.69038015759E-02  0.10185040880E+01  0.10181866726E+01 0.  0.
     999903    2    3    3    0    0  0.57329923867E-01  0.10480103097E+00 -0.49010786170E-01  0.13098566895E+00  0.22027529288E-01 0.  0.
         14    1    1    2    0    0  0.32831485285E-02 -0.24249442532E-01 -0.69038015759E-02  0.25425912050E-01  0.00000000000E+00 0. -1.
     999901    1    3    3    0    0 -0.60613072395E-01 -0.80551588435E-01  0.55914587746E-01  0.88751841900E+00  0.88000000000E+00 0.  1.
        -11    1    4    4    0    0  0.24577544211E-01  0.58192824797E-01 -0.16086552663E-01  0.65188180178E-01  0.51100000000E-03 0.  1.
         11    1    4    4    0    0  0.32752379656E-01  0.46608206170E-01 -0.32924233507E-01  0.65797488771E-01  0.51100000000E-03 0. -1.
</event>
<event>
 8    1  0.1126414E+005  0.1043930E+01  0.7957747E-01            NaN
         13   -1    0    0    0    0  0.00000000000E+00  0.00000000000E+00  0.74505805969E-08  0.10566000000E+00  0.10566000000E+00 0.  1.
     999900   -1    0    0    0    0 -0.00000000000E+00 -0.00000000000E+00 -0.74505805969E-08  0.93827000000E+00  0.93827000000E+00 0.  1.
     999902    2    1    2    0    0 -0.12380376510E-01  0.18396253897E-01  0.74327459485E-02  0.10205432176E+01  0.10202752165E+01 0.  0.
     999903    2    3    3    0    0 -0.10761187221E+00 -0.39653903959E-01 -0.60004425837E-01  0.13094407709E+00  0.19826070388E-01 0.  0.
         14    1    1    2    0    0  0.12380376510E-01 -0.18396253897E-01 -0.74327459485E-02  0.23386782428E-01  0.00000000000E+00 0. -1.
     999901    1    3    3    0    0  0.95231495698E-01  0.58050157856E-01  0.67437171785E-01  0.88959914048E+00  0.88000000000E+00 0. -1.
        -11    1    4    4    0    0 -0.55699821427E-01 -0.24087720271E-01 -0.42118740936E-01  0.73871089297E-01  0.51100000000E-03 0.  1.
         11    1    4    4    0    0 -0.51912050781E-01 -0.15566183688E-01 -0.17885684901E-01  0.57072987798E-01  0.51100000000E-03 0. -1.
</event>
<event>
 7    1  0.1126414E+005  0.1043930E+01  0.7957747E-01            NaN
         13   -1    0    0    0    0  0.00000000000E+00  0.00000000000E+00  0.74505805969E-08  0.10566000000E+00  0.10566000000E+00 0.  1.
     999900   -1    0    0    0    0 -0.00000000000E+00 -0.00000000000E+00 -0.74505805969E-08  0.93827000000E+00  0.93827000000E+00 0. -1.
     999902    2    1    2    0    0 -0.70065936444E-02  0.17904380706E-01 -0.13947897704E-01  0.10201770412E+01  0.10199004816E+01 0.  0.
         14    1    1    2    0    0  0.70065936444E-02 -0.17904380706E-01  0.13947897704E-01  0.23752958833E-01  0.00000000000E+00 0.  1.
     999901    1    3    3    0    0 -0.12612741344E+00  0.29003520861E-01 -0.44328463906E-01  0.89056967238E+00  0.88000000000E+00 0.  1.
        -11    1    3    3    0    0  0.80959657574E-01 -0.23389478836E-01  0.10718431114E-01  0.84951043321E-01  0.51100000000E-03 0.  1.
         11    1    3    3    0    0  0.38161162224E-01  0.12290338681E-01  0.19662135089E-01  0.44656325470E-01  0.51100000000E-03 0. -1.
</event>
<event>
 8    1  0.1126414E+005  0.1043930E+01  0.7957747E-01            NaN
         13   -1    0    0    0    0  0.00000000000E+00  0.00000000000E+00  0.74505805969E-08  0.10566000000E+00  0.10566000000E+00 0.  1.
     999900   -1    0    0    0    0 -0.00000000000E+00 -0.00000000000E+00 -0.74505805969E-08  0.93827000000E+00  0.93827000000E+00 0. -1.
     999902    2    1    2    0    0 -0.18517621122E-01 -0.41958158475E-02  0.14887555221E-01  0.10198022885E+01  0.10195168273E+01 0.  0.
     999903    2    3    3    0    0  0.12018393531E-01 -0.23445578998E-01  0.12749720910E+00  0.13189241934E+00  0.21117172978E-01 0.  0.
         14    1    1    2    0    0  0.18517621122E-01  0.41958158475E-02 -0.14887555221E-01  0.24127711518E-01  0.00000000000E+00 0.  1.
     999901    1    3    3    0    0 -0.30536014653E-01  0.19249763150E-01 -0.11260965388E+00  0.88790986914E+00  0.88000000000E+00 0. -1.
        -11    1    4    4    0    0  0.70750603223E-02 -0.21487680658E-01  0.59051051699E-01  0.63238158784E-01  0.51100000000E-03 0.  1.
         11    1    4    4    0    0  0.49433332088E-02 -0.19578983394E-02  0.68446157397E-01  0.68654260557E-01  0.51100000000E-03 0. -1.
</event>
<event>
 8    1  0.1126414E+005  0.1043930E+01  0.7957747E-01            NaN
         13   -1    0    0    0    0  0.00000000000E+00  0.00000000000E+00  0.74505805969E-08  0.10566000000E+00  0.10566000000E+00 0. -1.
     999900   -1    0    0    0    0 -0.00000000000E+00 -0.00000000000E+00 -0.74505805969E-08  0.93827000000E+00  0.93827000000E+00 0.  1.
     999902    2    1    2    0    0 -0.10682749643E-01  0.20521635379E-01  0.45565577016E-02  0.10203499051E+01  0.10200774029E+01 0.  0.
     999903    2    3    3    0    0  0.88795104557E-01 -0.56172685100E-01  0.71841000005E-01  0.12888759042E+00  0.20271668374E-01 0.  0.
         14    1    1    2    0    0  0.10682749643E-01 -0.20521635379E-01 -0.45565577016E-02  0.23580094925E-01  0.00000000000E+00 0.  1.
     999901    1    3    3    0    0 -0.99477854200E-01  0.76694320479E-01 -0.67284442303E-01  0.89146231465E+00  0.88000000000E+00 0.  1.
        -11    1    4    4    0    0  0.34675578054E-01 -0.13565517302E-01  0.33310033708E-01  0.49962370237E-01  0.51100000000E-03 0.  1.
         11    1    4    4    0    0  0.54119526503E-01 -0.42607167797E-01  0.38530966297E-01  0.78925220186E-01  0.51100000000E-03 0. -1.
</event>
<event>
 8    1  0.1126414E+005  0.1043930E+01  0.7957747E-01            NaN
         13   -1    0    0    0    0  0.00000000000E+00  0.00000000000E+00  0.74505805969E-08  0.10566000000E+00  0.10566000000E+00 0.  1.
     999900   -1    0    0    0    0 -0.00000000000E+00 -0.00000000000E+00 -0.74505805969E-08  0.93827000000E+00  0.93827000000E+00 0. -1.
     999902    2    1    2    0    0 -0.24494867338E-03  0.16418527046E-02 -0.22159845247E-01  0.10217080644E+01  0.10214663746E+01 0.  0.
     999903    2    3    3    0    0  0.92830996511E-01 -0.22458862096E-01 -0.91387530223E-01  0.13376862481E+00  0.20502924252E-01 0.  0.
         14    1    1    2    0    0  0.24494867338E-03 -0.16418527046E-02  0.22159845247E-01  0.22221935594E-01  0.00000000000E+00 0.  1.
     999901    1    3    3    0    0 -0.93075945185E-01  0.24100714800E-01  0.69227684976E-01  0.88793943960E+00  0.88000000000E+00 0.  1.
        -11    1    4    4    0    0  0.74579594875E-01 -0.92977029143E-02 -0.69212470607E-01  0.10217235663E+00  0.51100000000E-03 0.  1.
         11    1    4    4    0    0  0.18251401636E-01 -0.13161159181E-01 -0.22175059616E-01  0.31596268176E-01  0.51100000000E-03 0. -1.
</event>
<event>
 8    1  0.1126414E+005  0.1043930E+01  0.7957747E-01            NaN
         13   -1    0    0    0    0  0.00000000000E+00  0.00000000000E+00  0.74505805969E-08  0.10566000000E+00  0.10566000000E+00 0.  1.
     999900   -1    0    0    0    0 -0.00000000000E+00 -0.00000000000E+00 -0.74505805969E-08  0.93827000000E+00  0.93827000000E+00 0.  1.
     999902    2    1    2    0    0  0.13056161197E-01  0.21564009960E-01  0.41699747983E-02  0.10183789029E+01  0.10180583143E+01 0.  0.
     999903    2    3    3    0    0  0.55047803558E-01 -0.60452643210E-01  0.97332931912E-01  0.12867706188E+00  0.19982589203E-01 0.  0.
         14    1    1    2    0    0 -0.13056161197E-01 -0.21564009960E-01 -0.41699747983E-02  0.25551097053E-01  0.00000000000E+00 0. -1.
     999901    1    3    3    0    0 -0.41991642361E-01  0.82016653170E-01 -0.93162957114E-01  0.88970184107E+00  0.88000000000E+00 0.  1.
        -11    1    4    4    0    0  0.27696747378E-01 -0.38973665559E-01  0.43839245159E-01  0.64870617074E-01  0.51100000000E-03 0. -1.
         11    1    4    4    0    0  0.27351056180E-01 -0.21478977651E-01  0.53493686753E-01  0.63806444803E-01  0.51100000000E-03 0.  1.
</event>
<event>
 8    1  0.1126414E+005  0.1043930E+01  0.7957747E-01            NaN
         13   -1    0    0    0    0  0.00000000000E+00  0.00000000000E+00  0.74505805969E-08  0.10566000000E+00  0.10566000000E+00 0.  1.
     999900   -1    0    0    0    0 -0.00000000000E+00 -0.00000000000E+00 -0.74505805969E-08  0.93827000000E+00  0.93827000000E+00 0. -1.
     999902    2    1    2    0    0 -0.16344663304E-01 -0.75802101518E-02  0.16441568604E-01  0.10195387560E+01  0.10192469486E+01 0.  0.
     999903    2    3    3    0    0  0.11019288850E+00 -0.59905442560E-01 -0.20328705171E-01  0.12819048795E+00  0.16982644786E-01 0.  0.
         14    1    1    2    0    0  0.16344663304E-01  0.75802101518E-02 -0.16441568604E-01  0.24391243975E-01  0.00000000000E+00 0. -1.
     999901    1    3    3    0    0 -0.12653755180E+00  0.52325232408E-01  0.36770273775E-01  0.89134826807E+00  0.88000000000E+00 0.  1.
        -11    1    4    4    0    0  0.38653666662E-01 -0.25822286694E-01 -0.14650981652E-01  0.48742269345E-01  0.51100000000E-03 0. -1.
         11    1    4    4    0    0  0.71539221835E-01 -0.34083155866E-01 -0.56777235184E-02  0.79448218608E-01  0.51100000000E-03 0.  1.
</event>
<event>
 8    1  0.1126414E+005  0.1043930E+01  0.7957747E-01            NaN
         13   -1    0    0    0    0  0.00000000000E+00  0.00000000000E+00  0.74505805969E-08  0.10566000000E+00  0.10566000000E+00 0. -1.
     999900   -1    0    0    0    0 -0.00000000000E+00 -0.00000000000E+00 -0.74505805969E-08  0.93827000000E+00  0.93827000000E+00 0.  1.
     999902    2    1    2    0    0 -0.14453203045E-01 -0.43978844907E-02 -0.17741125601E-01  0.10206279828E+01  0.10203619433E+01 0.  0.
     999903    2    3    3    0    0 -0.87776285364E-01  0.89648120117E-01  0.32269203451E-01  0.13117761413E+00  0.20610755555E-01 0.  0.
         14    1    1    2    0    0  0.14453203045E-01  0.43978844907E-02  0.17741125601E-01  0.23302017162E-01  0.00000000000E+00 0. -1.
     999901    1    3    3    0    0  0.73323082320E-01 -0.94046004608E-01 -0.50010329052E-01  0.88945036871E+00  0.88000000000E+00 0.  1.
        -11    1    4    4    0    0 -0.29585067075E-01  0.30082174298E-01  0.94300613081E-03  0.42206205537E-01  0.51100000000E-03 0. -1.
         11    1    4    4    0    0 -0.58191218290E-01  0.59565945819E-01  0.31326197321E-01  0.88971408592E-01  0.51100000000E-03 0.  1.
</event>
<event>
 8    1  0.1126414E+005  0.1043930E+01  0.7957747E-01            NaN
         13   -1    0    0    0    0  0.00000000000E+00  0.00000000000E+00  0.74505805969E-08  0.10566000000E+00  0.10566000000E+00 0. -1.
     999900   -1    0    0    0    0 -0.00000000000E+00 -0.00000000000E+00 -0.74505805969E-08  0.93827000000E+00  0.93827000000E+00 0. -1.
     999902    2    1    2    0    0  0.13971265646E-01 -0.26236856983E-01  0.72157481931E-02  0.10133418332E+01  0.10128800694E+01 0.  0.
     999903    2    3    3    0    0 -0.68281511337E-01 -0.21725670188E-01 -0.98412347487E-01  0.12320523426E+00  0.18978147287E-01 0.  0.
         14    1    1    2    0    0 -0.13971265646E-01  0.26236856983E-01 -0.72157481931E-02  0.30588166831E-01  0.00000000000E+00 0.  1.
     999901    1    3    3    0    0  0.82252776983E-01 -0.45111867955E-02  0.10562809568E+00  0.89013659891E+00  0.88000000000E+00 0.  1.
        -11    1    4    4    0    0 -0.25838835337E-01 -0.15329023752E-01 -0.30136715678E-01  0.42557104385E-01  0.51100000000E-03 0.  1.
         11    1    4    4    0    0 -0.42442676000E-01 -0.63966464354E-02 -0.68275631810E-01  0.80648129871E-01  0.51100000000E-03 0. -1.
</event>
<event>
 8    1  0.1126414E+005  0.1043930E+01  0.7957747E-01            NaN
         13   -1    0    0    0    0  0.00000000000E+00  0.00000000000E+00  0.74505805969E-08  0.10566000000E+00  0.10566000000E+00 0. -1.
     999900   -1    0    0    0    0 -0.00000000000E+00 -0.00000000000E+00 -0.74505805969E-08  0.93827000000E+00  0.93827000000E+00 0.  1.
     999902    2    1    2    0    0  0.22514799933E-01  0.12594975235E-02 -0.73231011646E-02  0.10202207115E+01  0.10199451798E+01 0.  0.
     999903    2    3    3    0    0  0.68995232728E-01  0.45878646818E-01  0.99958046033E-01  0.13136721196E+00  0.20013521391E-01 0.  0.
         14    1    1    2    0    0 -0.22514799933E-01 -0.12594975235E-02  0.73231011646E-02  0.23709288490E-01  0.00000000000E+00 0. -1.
     999901    1    3    3    0    0 -0.46480432795E-01 -0.44619149295E-01 -0.10728114720E+00  0.88885349955E+00  0.88000000000E+00 0. -1.
        -11    1    4    4    0    0  0.61642300028E-01  0.39501663934E-01  0.76129787907E-01  0.10562272641E+00  0.51100000000E-03 0. -1.
         11    1    4    4    0    0  0.73529327008E-02  0.63769828838E-02  0.23828258126E-01  0.25744485552E-01  0.51100000000E-03 0.  1.
</event>
<event>
 8    1  0.1126414E+005  0.1043930E+01  0.7957747E-01            NaN
         13   -1    0    0    0    0  0.00000000000E+00  0.00000000000E+00  0.74505805969E-08  0.10566000000E+00  0.10566000000E+00 0.  1.
     999900   -1    0    0    0    0 -0.00000000000E+00 -0.00000000000E+00 -0.74505805969E-08  0.93827000000E+00  0.93827000000E+00 0.  1.
     999902    2    1    2    0    0  0.17738543603E-01  0.58538168525E-02  0.14742600231E-01  0.10201336271E+01  0.10198560437E+01 0.  0.
     999903    2    3    3    0    0  0.11730269360E+00  0.31765086274E-02 -0.56323877415E-01  0.13166830298E+00  0.19853229234E-01 0.  0.
         14    1    1    2    0    0 -0.17738543603E-01 -0.58538168525E-02 -0.14742600231E-01  0.23796372884E-01  0.00000000000E+00 0. -1.
     999901    1    3    3    0    0 -0.99564149994E-01  0.26773082251E-02  0.71066477646E-01  0.88846532413E+00  0.88000000000E+00 0. -1.
        -11    1    4    4    0    0  0.92945772493E-01 -0.55065260037E-02 -0.42665654254E-01  0.10242000599E+00  0.51100000000E-03 0.  1.
         11    1    4    4    0    0  0.24356921104E-01  0.86830346311E-02 -0.13658223161E-01  0.29248296993E-01  0.51100000000E-03 0. -1.
</event>
<event>
 8    1  0.1126414E+005  0.1043930E+01  0.7957747E-01            NaN
         13   -1    0    0    0    0  0.00000000000E+00  0.00000000000E+00  0.74505805969E-08  0.10566000000E+00  0.10566000000E+00 0.  1.
     999900   -1    0    0    0    0 -0.00000000000E+00 -0.00000000000E+00 -0.74505805969E-08  0.93827000000E+00  0.93827000000E+00 0. -1.
     999902    2    1    2    0    0 -0.20886201516E-01 -0.16249450743E-01  0.12479557002E-01  0.10146722249E+01  0.10142503175E+01 0.  0.
     999903    2    3    3    0    0 -0.43801159465E-01  0.79701920148E-01 -0.82018257604E-01  0.12413216521E+00  0.20269736398E-01 0.  0.
         14    1    1    2    0    0  0.20886201516E-01  0.16249450743E-01 -0.12479557002E-01  0.29257775141E-01  0.00000000000E+00 0. -1.
     999901    1    3    3    0    0  0.22914957949E-01 -0.95951370891E-01  0.94497814607E-01  0.89054005965E+00  0.88000000000E+00 0. -1.
        -11    1    4    4    0    0 -0.33755442889E-01  0.68875144285E-01 -0.58965436719E-01  0.96749156448E-01  0.51100000000E-03 0. -1.
         11    1    4    4    0    0 -0.10045716576E-01  0.10826775863E-01 -0.23052820885E-01  0.27383008762E-01  0.51100000000E-03 0.  1.
</event>
<event>
 8    1  0.1126414E+005  0.1043930E+01  0.7957747E-01            NaN
         13   -1    0    0    0    0  0.00000000000E+00  0.00000000000E+00  0.74505805969E-08  0.10566000000E+00  0.10566000000E+00 0.  1.
     999900   -1    0    0    0    0 -0.00000000000E+00 -0.00000000000E+00 -0.74505805969E-08  0.93827000000E+00  0.93827000000E+00 0.  1.
     999902    2    1    2    0    0 -0.18445345035E-01  0.13828883322E-02  0.14594294798E-01  0.10203686636E+01  0.10200965998E+01 0.  0.
     999903    2    3    3    0    0 -0.20627193011E-02  0.79644570451E-01  0.10351224369E+00  0.13228100858E+00  0.20879852080E-01 0.  0.
         14    1    1    2    0    0  0.18445345035E-01 -0.13828883322E-02 -0.14594294798E-01  0.23561336428E-01  0.00000000000E+00 0. -1.
     999901    1    3    3    0    0 -0.16382625734E-01 -0.78261682119E-01 -0.88917948896E-01  0.88808765499E+00  0.88000000000E+00 0.  1.
        -11    1    4    4    0    0 -0.64004308897E-02  0.35917581860E-01  0.33002490215E-01  0.49198208134E-01  0.51100000000E-03 0. -1.
         11    1    4    4    0    0  0.43377115886E-02  0.43726988592E-01  0.70509753479E-01  0.83082800445E-01  0.51100000000E-03 0.  1.
</event>
<event>
 8    1  0.1126414E+005  0.1043930E+01  0.7957747E-01            NaN
         13   -1    0    0    0    0  0.00000000000E+00  0.00000000000E+00  0.74505805969E-08  0.10566000000E+00  0.10566000000E+00 0. -1.
     999900   -1    0    0    0    0 -0.00000000000E+00 -0.00000000000E+00 -0.74505805969E-08  0.93827000000E+00  0.93827000000E+00 0.  1.
     999902    2    1    2    0    0 -0.23163901998E-01 -0.52504226010E-02  0.76117018264E-04  0.10201783877E+01  0.10199018598E+01 0.  0.
     999903    2    3    3    0    0  0.94450449557E-01  0.84889327056E-01  0.12089216941E-02  0.12778856626E+00  0.14190521655E-01 0.  0.
         14    1    1    2    0    0  0.23163901998E-01  0.52504226010E-02 -0.76117018264E-04  0.23751612305E-01  0.00000000000E+00 0.  1.
     999901    1    3    3    0    0 -0.11761435156E+00 -0.90139749657E-01 -0.11328046758E-02  0.89238982144E+00  0.88000000000E+00 0.  1.
        -11    1    4    4    0    0  0.59113763002E-01  0.43762141593E-01  0.13081272961E-02  0.73563131602E-01  0.51100000000E-03 0. -1.
         11    1    4    4    0    0  0.35336686555E-01  0.41127185463E-01 -0.99205602018E-04  0.54225434656E-01  0.51100000000E-03 0.  1.
</event>
<event>
 8    1  0.1126414E+005  0.1043930E+01  0.7957747E-01            NaN
         13   -1    0    0    0    0  0.00000000000E+00  0.00000000000E+00  0.74505805969E-08  0.10566000000E+00  0.10566000000E+00 0.  1.
     999900   -1    0    0    0    0 -0.00000000000E+00 -0.00000000000E+00 -0.74505805969E-08  0.93827000000E+00  0.93827000000E+00 0. -1.
     999902    2    1    2    0    0 -0.18483242282E-01 -0.14913892584E-01 -0.50652309759E-02  0.10196460341E+01  0.10193568187E+01 0.  0.
     999903    2    3    3    0    0 -0.12539133996E+00  0.21213407990E-01  0.28333238884E-01  0.13181160074E+00  0.19963187314E-01 0.  0.
         14    1    1    2    0    0  0.18483242282E-01  0.14913892584E-01  0.50652309759E-02  0.24283965947E-01  0.00000000000E+00 0.  1.
     999901    1    3    3    0    0  0.10690809768E+00 -0.36127300573E-01 -0.33398469860E-01  0.88783443332E+00  0.88000000000E+00 0.  1.
        -11    1    4    4    0    0 -0.47045900552E-01 -0.14840051917E-02  0.80025910740E-02  0.47747477578E-01  0.51100000000E-03 0.  1.
         11    1    4    4    0    0 -0.78345439406E-01  0.22697413181E-01  0.20330647810E-01  0.84064123157E-01  0.51100000000E-03 0. -1.
</event>
<event>
 8    1  0.1126414E+005  0.1043930E+01  0.7957747E-01            NaN
         13   -1    0    0    0    0  0.00000000000E+00  0.00000000000E+00  0.74505805969E-08  0.10566000000E+00  0.10566000000E+00 0. -1.
     999900   -1    0    0    0    0 -0.00000000000E+00 -0.00000000000E+00 -0.74505805969E-08  0.93827000000E+00  0.93827000000E+00 0.  1.
     999902    2    1    2    0    0 -0.24252676689E-02 -0.10075858995E-01  0.21451130432E-01  0.10201065692E+01  0.10198283467E+01 0.  0.
     999903    2    3    3    0    0  0.11123194406E+00 -0.32330914952E-01  0.59408085139E-01  0.13170689581E+00  0.19988806422E-01 0.  0.
         14    1    1    2    0    0  0.24252676689E-02  0.10075858995E-01 -0.21451130432E-01  0.23823430789E-01  0.00000000000E+00 0.  1.
     999901    1    3    3    0    0 -0.11365721173E+00  0.22255055957E-01 -0.37956954707E-01  0.88839967340E+00  0.88000000000E+00 0. -1.
        -11    1    4    4    0    0  0.86372989205E-01 -0.19747596804E-01  0.52526904809E-01  0.10300290138E+00  0.51100000000E-03 0.  1.
         11    1    4    4    0    0  0.24858954856E-01 -0.12583318147E-01  0.68811803307E-02  0.28703994423E-01  0.51100000000E-03 0. -1.
</event>
<event>
 8    1  0.1126414E+005  0.1043930E+01  0.7957747E-01            NaN
         13   -1    0    0    0    0  0.00000000000E+00  0.00000000000E+00  0.74505805969E-08  0.10566000000E+00  0.10566000000E+00 0.  1.
     999900   -1    0    0    0    0 -0.00000000000E+00 -0.00000000000E+00 -0.74505805969E-08  0.93827000000E+00  0.93827000000E+00 0.  1.
     999902    2    1    2    0    0  0.97099989019E-02  0.19483318436E-01  0.10720969470E-01  0.10196643254E+01  0.10193755508E+01 0.  0.
     999903    2    3    3    0    0  0.42417416676E-01  0.78524152809E-01  0.96395226469E-01  0.13293117864E+00  0.20331718013E-01 0.  0.
         14    1    1    2    0    0 -0.97099989019E-02 -0.19483318436E-01 -0.10720969470E-01  0.24265674569E-01  0.00000000000E+00 0.  1.
     999901    1    3    3    0    0 -0.32707417774E-01 -0.59040834374E-01 -0.85674256999E-01  0.88673314679E+00  0.88000000000E+00 0.  1.
        -11    1    4    4    0    0  0.42888274361E-02  0.25940754476E-01  0.23173610920E-01  0.35051307360E-01  0.51100000000E-03 0. -1.
         11    1    4    4    0    0  0.38128589240E-01  0.52583398333E-01  0.73221615549E-01  0.97879871282E-01  0.51100000000E-03 0.  1.
</event>
<event>
 8    1  0.1126414E+005  0.1043930E+01  0.7957747E-01            NaN
         13   -1    0    0    0    0  0.00000000000E+00  0.00000000000E+00  0.74505805969E-08  0.10566000000E+00  0.10566000000E+00 0. -1.
     999900   -1    0    0    0    0 -0.00000000000E+00 -0.00000000000E+00 -0.74505805969E-08  0.93827000000E+00  0.93827000000E+00 0.  1.
     999902    2    1    2    0    0 -0.16474873783E-01 -0.15868063873E-01  0.64615373294E-02  0.10201609365E+01  0.10198839973E+01 0.  0.
     999903    2    3    3    0    0  0.11527482916E+00 -0.32956392783E-01  0.44497698475E-01  0.12937659400E+00  0.19592035174E-01 0.  0.
         14    1    1    2    0    0  0.16474873783E-01  0.15868063873E-01 -0.64615373294E-02  0.23769063546E-01  0.00000000000E+00 0.  1.
     999901    1    3    3    0    0 -0.13174970294E+00  0.17088328911E-01 -0.38036161145E-01  0.89078434246E+00  0.88000000000E+00 0. -1.
        -11    1    4    4    0    0  0.40567033613E-01 -0.18754488189E-01  0.96507267661E-02  0.45725405318E-01  0.51100000000E-03 0.  1.
         11    1    4    4    0    0  0.74707795545E-01 -0.14201904594E-01  0.34846971708E-01  0.83651188680E-01  0.51100000000E-03 0. -1.
</event>
<event>
 8    1  0.1126414E+005  0.1043930E+01  0.7957747E-01            NaN
         13   -1    0    0    0    0  0.00000000000E+00  0.00000000000E+00  0.74505805969E-08  0.10566000000E+00  0.10566000000E+00 0.  1.
     999900   -1    0    0    0    0 -0.00000000000E+00 -0.00000000000E+00 -0.74505805969E-08  0.93827000000E+00  0.93827000000E+00 0. -1.
     999902    2    1    2    0    0  0.49332285516E-02  0.38452464977E-02 -0.21600704229E-01  0.10214419345E+01  0.10211943559E+01 0.  0.
     999903    2    3    3    0    0 -0.89267185835E-01 -0.84930658973E-01 -0.43656053133E-01  0.13169965845E+00  0.16034393033E-01 0.  0.
         14    1    1    2    0    0 -0.49332285516E-02 -0.38452464977E-02  0.21600704229E-01  0.22488065451E-01  0.00000000000E+00 0.  1.
     999901    1    3    3    0    0  0.94200414387E-01  0.88775905471E-01  0.22055348905E-01  0.88974227610E+00  0.88000000000E+00 0. -1.
        -11    1    4    4    0    0 -0.64258624097E-01 -0.63522399560E-01 -0.24550581269E-01  0.93633638071E-01  0.51100000000E-03 0.  1.
         11    1    4    4    0    0 -0.25008561738E-01 -0.21408259413E-01 -0.19105471864E-01  0.38066020379E-01  0.51100000000E-03 0. -1.
</event>
<event>
 8    1  0.1126414E+005  0.1043930E+01  0.7957747E-01            NaN
         13   -1    0    0    0    0  0.00000000000E+00  0.00000000000E+00  0.74505805969E-08  0.10566000000E+00  0.10566000000E+00 0.  1.
     999900   -1    0    0    0    0 -0.00000000000E+00 -0.00000000000E+00 -0.74505805969E-08  0.93827000000E+00  0.93827000000E+00 0.  1.
     999902    2    1    2    0    0  0.14606542257E-01 -0.24171099635E-02 -0.19996185280E-01  0.10190494670E+01  0.10187456872E+01 0.  0.
     999903    2    3    3    0    0 -0.70209200202E-01 -0.26907420402E-01  0.99858351266E-01  0.12654815304E+00  0.19733313294E-01 0.  0.
         14    1    1    2    0    0 -0.14606542257E-01  0.24171099635E-02  0.19996185280E-01  0.24880533013E-01  0.00000000000E+00 0.  1.
     999901    1    3    3    0    0  0.84815742459E-01  0.24490310438E-01 -0.11985453655E+00  0.89250131395E+00  0.88000000000E+00 0.  1.
        -11    1    4    4    0    0 -0.42916823722E-01 -0.16200445705E-01  0.75881757931E-01  0.88671362385E-01  0.51100000000E-03 0. -1.
         11    1    4    4    0    0 -0.27292376480E-01 -0.10706974697E-01  0.23976593334E-01  0.37876790651E-01  0.51100000000E-03 0.  1.
</event>
<event>
 8    1  0.1126414E+005  0.1043930E+01  0.7957747E-01            NaN
         13   -1    0    0    0    0  0.00000000000E+00  0.00000000000E+00  0.74505805969E-08  0.10566000000E+00  0.10566000000E+00 0. -1.
     999900   -1    0    0    0    0 -0.00000000000E+00 -0.00000000000E+00 -0.74505805969E-08  0.93827000000E+00  0.93827000000E+00 0.  1.
     999902    2    1    2    0    0 -0.17055219238E-01  0.10365822962E-01  0.14182108209E-01  0.10194460669E+01  0.10191520104E+01 0.  0.
     999903    2    3    3    0    0 -0.58575078186E-01  0.11342378603E+00  0.28511860687E-01  0.13234393957E+00  0.20149370175E-01 0.  0.
         14    1    1    2    0    0  0.17055219238E-01 -0.10365822962E-01 -0.14182108209E-01  0.24483933144E-01  0.00000000000E+00 0.  1.
     999901    1    3    3    0    0  0.41519858948E-01 -0.10305796307E+00 -0.14329752478E-01  0.88710212729E+00  0.88000000000E+00 0. -1.
        -11    1    4    4    0    0 -0.46032674944E-01  0.10265317132E+00  0.27246352769E-01  0.11575536966E+00  0.51100000000E-03 0. -1.
         11    1    4    4    0    0 -0.12542403242E-01  0.10770614708E-01  0.12655079183E-02  0.16588569907E-01  0.51100000000E-03 0.  1.
</event>
<event>
 8    1  0.1126414E+005  0.1043930E+01  0.7957747E-01            NaN
         13   -1    0    0    0    0  0.00000000000E+00  0.00000000000E+00  0.74505805969E-08  0.10566000000E+00  0.10566000000E+00 0.  1.
     999900   -1    0    0    0    0 -0.00000000000E+00 -0.00000000000E+00 -0.74505805969E-08  0.93827000000E+00  0.93827000000E+00 0. -1.
     999902    2    1    2    0    0  0.15110608913E-01  0.17161333499E-01  0.86891705754E-02  0.10194689380E+01  0.10191754373E+01 0.  0.
     999903    2    3    3    0    0 -0.11131925655E+00 -0.44103515551E-01  0.40200862383E-01  0.12776782252E+00  0.19272004898E-01 0.  0.
         14    1    1    2    0    0 -0.15110608913E-01 -0.17161333499E-01 -0.86891705754E-02  0.24461062007E-01  0.00000000000E+00 0. -1.
     999901    1    3    3    0    0  0.12642986546E+00  0.61264849051E-01 -0.31511691807E-01  0.89170111547E+00  0.88000000000E+00 0. -1.
        -11    1    4    4    0    0 -0.34428034713E-01 -0.21588535911E-01  0.19156901909E-01  0.44928860087E-01  0.51100000000E-03 0. -1.
         11    1    4    4    0    0 -0.76891221838E-01 -0.22514979640E-01  0.21043960474E-01  0.82838962436E-01  0.51100000000E-03 0.  1.
</event>
<event>
 8    1  0.1126414E+005  0.1043930E+01  0.7957747E-01            NaN
         13   -1    0    0    0    0  0.00000000000E+00  0.00000000000E+00  0.74505805969E-08  0.10566000000E+00  0.10566000000E+00 0.  1.
     999900   -1    0    0    0    0 -0.00000000000E+00 -0.00000000000E+00 -0.74505805969E-08  0.93827000000E+00  0.93827000000E+00 0.  1.
     999902    2    1    2    0    0  0.10414564828E-01  0.52412552752E-02 -0.20454096582E-01  0.10203863388E+01  0.10201146878E+01 0.  0.
     999903    2    3    3    0    0  0.64975371040E-01  0.23529082533E-01  0.10737428957E+00  0.12929070837E+00  0.20283802505E-01 0.  0.
         14    1    1    2    0    0 -0.10414564828E-01 -0.52412552752E-02  0.20454096582E-01  0.23543661236E-01  0.00000000000E+00 0. -1.
     999901    1    3    3    0    0 -0.54560806212E-01 -0.18287827258E-01 -0.12782838615E+00  0.89109563039E+00  0.88000000000E+00 0.  1.
        -11    1    4    4    0    0  0.47256671251E-01  0.10713480556E-01  0.85970557145E-01  0.98687230482E-01  0.51100000000E-03 0.  1.
         11    1    4    4    0    0  0.17718699789E-01  0.12815601977E-01  0.21403732423E-01  0.30603477889E-01  0.51100000000E-03 0. -1.
</event>
<event>
 8    1  0.1126414E+005  0.1043930E+01  0.7957747E-01            NaN
         13   -1    0    0    0    0  0.00000000000E+00  0.00000000000E+00  0.74505805969E-08  0.10566000000E+00  0.10566000000E+00 0.  1.
     999900   -1    0    0    0    0 -0.00000000000E+00 -0.00000000000E+00 -0.74505805969E-08  0.93827000000E+00  0.93827000000E+00 0. -1.
     999902    2    1    2    0    0 -0.20560971776E-02 -0.21027446552E-01 -0.11948433463E-01  0.10196576679E+01  0.10193687329E+01 0.  0.
     999903    2    3    3    0    0 -0.43284198751E-01 -0.11584342357E+00 -0.45092987863E-01  0.13298501840E+00  0.18931902108E-01 0.  0.
         14    1    1    2    0    0  0.20560971776E-02  0.21027446552E-01  0.11948433463E-01  0.24272332116E-01  0.00000000000E+00 0.  1.
     999901    1    3    3    0    0  0.41228101573E-01  0.94815977022E-01  0.33144554400E-01  0.88667264948E+00  0.88000000000E+00 0. -1.
        -11    1    4    4    0    0 -0.40339929666E-01 -0.87714228745E-01 -0.31149937425E-01  0.10144789585E+00  0.51100000000E-03 0.  1.
         11    1    4    4    0    0 -0.29442690842E-02 -0.28129194829E-01 -0.13943050438E-01  0.31537122549E-01  0.51100000000E-03 0. -1.
</event>
<event>
 8    1  0.1126414E+005  0.1043930E+01  0.7957747E-01            NaN
         13   -1    0    0    0    0  0.00000000000E+00  0.00000000000E+00  0.74505805969E-08  0.10566000000E+00  0.10566000000E+00 0.  1.
     999900   -1    0    0    0    0 -0.00000000000E+00 -0.00000000000E+00 -0.74505805969E-08  0.93827000000E+00  0.93827000000E+00 0.  1.
     999902    2    1    2    0    0  0.13578577387E-01 -0.18031239846E-01  0.73482565082E-02  0.10201918398E+01  0.10199156288E+01 0.  0.
     999903    2    3    3    0    0  0.82649604216E-01  0.93710250967E-02  0.10104039461E+00  0.13210405836E+00  0.17987431810E-01 0.  0.
         14    1    1    2    0    0 -0.13578577387E-01  0.18031239846E-01 -0.73482565082E-02  0.23738160164E-01  0.00000000000E+00 0. -1.
     999901    1    3    3    0    0 -0.69071026830E-01 -0.27402264943E-01 -0.93692138101E-01  0.88808778148E+00  0.88000000000E+00 0. -1.
        -11    1    4    4    0    0  0.71368950885E-01  0.35136127064E-02  0.92033043271E-01  0.11651701506E+00  0.51100000000E-03 0. -1.
         11    1    4    4    0    0  0.11280653332E-01  0.58574123903E-02  0.90073513388E-02  0.15587043294E-01  0.51100000000E-03 0.  1.
</event>
<event>
 8    1  0.1126414E+005  0.1043930E+01  0.7957747E-01            NaN
         13   -1    0    0    0    0  0.00000000000E+00  0.00000000000E+00  0.74505805969E-08  0.10566000000E+00  0.10566000000E+00 0.  1.
     999900   -1    0    0    0    0 -0.00000000000E+00 -0.00000000000E+00 -0.74505805969E-08  0.93827000000E+00  0.93827000000E+00 0.  1.
     999902    2    1    2    0    0 -0.20404761827E-01 -0.11886111093E-01 -0.48309270833E-02  0.10198266434E+01  0.10195417651E+01 0.  0.
     999903    2    3    3    0    0  0.43806083707E-01  0.24081713963E-01 -0.11744847362E+00  0.12960227343E+00  0.22443337706E-01 0.  0.
         14    1    1    2    0    0  0.20404761827E-01  0.11886111093E-01  0.48309270833E-02  0.24103356584E-01  0.00000000000E+00 0. -1.
     999901    1    3    3    0    0 -0.64210845534E-01 -0.35967825056E-01  0.11261754653E+00  0.89022436998E+00  0.88000000000E+00 0.  1.
        -11    1    4    4    0    0 -0.11131405420E-02  0.63635848836E-02 -0.15218139507E-01  0.16540471139E-01  0.51100000000E-03 0.  1.
         11    1    4    4    0    0  0.44919224249E-01  0.17718129080E-01 -0.10223033411E+00  0.11306180229E+00  0.51100000000E-03 0. -1.
</event>
<event>
 8    1  0.1126414E+005  0.1043930E+01  0.7957747E-01            NaN
         13   -1    0    0    0    0  0.00000000000E+00  0.00000000000E+00  0.74505805969E-08  0.10566000000E+00  0.10566000000E+00 0.  1.
     999900   -1    0    0    0    0 -0.00000000000E+00 -0.00000000000E+00 -0.74505805969E-08  0.93827000000E+00  0.93827000000E+00 0.  1.
     999902    2    1    2    0    0 -0.56508666726E-02  0.79634324821E-02 -0.23439863322E-01  0.10185375652E+01  0.10182209957E+01 0.  0.
     999903    2    3    3    0    0 -0.25838478225E-01 -0.25933912831E-01 -0.12496406297E+00  0.13182242901E+00  0.20516845883E-01 0.  0.
         14    1    1    2    0    0  0.56508666726E-02 -0.79634324821E-02  0.23439863322E-01  0.25392434771E-01  0.00000000000E+00 0.  1.
     999901    1    3    3    0    0  0.20187611552E-01  0.33897345313E-01  0.10152419965E+00  0.88671513622E+00  0.88000000000E+00 0. -1.
        -11    1    4    4    0    0 -0.14081630958E-01 -0.21430215786E-02 -0.59477116465E-01  0.61161044595E-01  0.51100000000E-03 0.  1.
         11    1    4    4    0    0 -0.11756847266E-01 -0.23790891253E-01 -0.65486946507E-01  0.70661384419E-01  0.51100000000E-03 0. -1.
</event>
<event>
 8    1  0.1126414E+005  0.1043930E+01  0.7957747E-01            NaN
         13   -1    0    0    0    0  0.00000000000E+00  0.00000000000E+00  0.74505805969E-08  0.10566000000E+00  0.10566000000E+00 0. -1.
     999900   -1    0    0    0    0 -0.00000000000E+00 -0.00000000000E+00 -0.74505805969E-08  0.93827000000E+00  0.93827000000E+00 0. -1.
     999902    2    1    2    0    0  0.25107062925E-02  0.24982697352E-01 -0.50367243336E-02  0.10183212631E+01  0.10179992080E+01 0.  0.
     999903    2    3    3    0    0 -0.93956527766E-01 -0.82200518660E-01 -0.15351610038E-01  0.12652500504E+00  0.13716799627E-01 0.  0.
         14    1    1    2    0    0 -0.25107062925E-02 -0.24982697352E-01  0.50367243336E-02  0.25608736889E-01  0.00000000000E+00 0. -1.
     999901    1    3    3    0    0  0.96467234058E-01  0.10718321601E+00  0.10314885704E-01  0.89179625807E+00  0.88000000000E+00 0.  1.
        -11    1    4    4    0    0 -0.20249161808E-01 -0.19288784319E-01 -0.91132039196E-02  0.29417636906E-01  0.51100000000E-03 0.  1.
         11    1    4    4    0    0 -0.73707365957E-01 -0.62911734341E-01 -0.62384061182E-02  0.97107368134E-01  0.51100000000E-03 0. -1.
</event>
<event>
 8    1  0.1126414E+005  0.1043930E+01  0.7957747E-01            NaN
         13   -1    0    0    0    0  0.00000000000E+00  0.00000000000E+00  0.74505805969E-08  0.10566000000E+00  0.10566000000E+00 0. -1.
     999900   -1    0    0    0    0 -0.00000000000E+00 -0.00000000000E+00 -0.74505805969E-08  0.93827000000E+00  0.93827000000E+00 0.  1.
     999902    2    1    2    0    0  0.14255974931E-01 -0.19261858469E-01  0.29359187557E-02  0.10197872654E+01  0.10195014444E+01 0.  0.
     999903    2    3    3    0    0  0.12915405237E+00 -0.14609561134E-01 -0.14203787843E-01  0.13214038655E+00  0.19108261275E-01 0.  0.
         14    1    1    2    0    0 -0.14255974931E-01  0.19261858469E-01 -0.29359187557E-02  0.24142734556E-01  0.00000000000E+00 0. -1.
     999901    1    3    3    0    0 -0.11489807744E+00 -0.46522973348E-02  0.17139706599E-01  0.88764687889E+00  0.88000000000E+00 0.  1.
        -11    1    4    4    0    0  0.84720944033E-01 -0.11963722096E-01 -0.50154018172E-03  0.85564488357E-01  0.51100000000E-03 0.  1.
         11    1    4    4    0    0  0.44433108334E-01 -0.26458390381E-02 -0.13702247662E-01  0.46575898192E-01  0.51100000000E-03 0. -1.
</event>
<event>
 8    1  0.1126414E+005  0.1043930E+01  0.7957747E-01            NaN
         13   -1    0    0    0    0  0.00000000000E+00  0.00000000000E+00  0.74505805969E-08  0.10566000000E+00  0.10566000000E+00 0. -1.
     999900   -1    0    0    0    0 -0.00000000000E+00 -0.00000000000E+00 -0.74505805969E-08  0.93827000000E+00  0.93827000000E+00 0. -1.
     999902    2    1    2    0    0 -0.60525975375E-02 -0.20523465680E-01  0.92142059854E-02  0.10206330437E+01  0.10203671211E+01 0.  0.
     999903    2    3    3    0    0  0.11036710327E+00 -0.17298031022E-02  0.67401475418E-01  0.13086200192E+00  0.19950312101E-01 0.  0.
         14    1    1    2    0    0  0.60525975375E-02  0.20523465680E-01 -0.92142059854E-02  0.23296956290E-01  0.00000000000E+00 0.  1.
     999901    1    3    3    0    0 -0.11641970081E+00 -0.18793662577E-01 -0.58187269433E-01  0.88977104179E+00  0.88000000000E+00 0. -1.
        -11    1    4    4    0    0  0.37571405824E-01 -0.88640166429E-02  0.18001591215E-01  0.42596945124E-01  0.51100000000E-03 0.  1.
         11    1    4    4    0    0  0.72795697450E-01  0.71342135407E-02  0.49399884204E-01  0.88265056792E-01  0.51100000000E-03 0. -1.
</event>
<event>
 8    1  0.1126414E+005  0.1043930E+01  0.7957747E-01            NaN
         13   -1    0    0    0    0  0.00000000000E+00  0.00000000000E+00  0.74505805969E-08  0.10566000000E+00  0.10566000000E+00 0. -1.
     999900   -1    0    0    0    0 -0.00000000000E+00 -0.00000000000E+00 -0.74505805969E-08  0.93827000000E+00  0.93827000000E+00 0.  1.
     999902    2    1    2    0    0 -0.12274963531E-01  0.17797398417E-01 -0.11732075325E-01  0.10193319572E+01  0.10190351197E+01 0.  0.
     999903    2    3    3    0    0 -0.66604625789E-01 -0.63485372812E-01  0.87283905482E-01  0.12839830893E+00  0.20026902946E-01 0.  0.
         14    1    1    2    0    0  0.12274963531E-01 -0.17797398417E-01  0.11732075325E-01  0.24598042839E-01  0.00000000000E+00 0.  1.
     999901    1    3    3    0    0  0.54329662259E-01  0.81282771229E-01 -0.99015980807E-01  0.89093364823E+00  0.88000000000E+00 0.  1.
        -11    1    4    4    0    0 -0.40726710379E-01 -0.31179983274E-01  0.36888772339E-01  0.63181476249E-01  0.51100000000E-03 0.  1.
         11    1    4    4    0    0 -0.25877915410E-01 -0.32305389538E-01  0.50395133142E-01  0.65216832679E-01  0.51100000000E-03 0. -1.
</event>
<event>
 8    1  0.1126414E+005  0.1043930E+01  0.7957747E-01            NaN
         13   -1    0    0    0    0  0.00000000000E+00  0.00000000000E+00  0.74505805969E-08  0.10566000000E+00  0.10566000000E+00 0.  1.
     999900   -1    0    0    0    0 -0.00000000000E+00 -0.00000000000E+00 -0.74505805969E-08  0.93827000000E+00  0.93827000000E+00 0.  1.
     999902    2    1    2    0    0  0.58616626813E-02  0.11895120538E-01 -0.19027398556E-01  0.10207374392E+01  0.10204739217E+01 0.  0.
     999903    2    3    3    0    0  0.10289340939E+00 -0.31034289451E-01 -0.75445493601E-01  0.13257017139E+00  0.18238613409E-01 0.  0.
         14    1    1    2    0    0 -0.58616626813E-02 -0.11895120538E-01  0.19027398556E-01  0.23192560829E-01  0.00000000000E+00 0.  1.
     999901    1    3    3    0    0 -0.97031746711E-01  0.42929409990E-01  0.56418095046E-01  0.88816726778E+00  0.88000000000E+00 0.  1.
        -11    1    4    4    0    0  0.66378407131E-01 -0.21287866716E-01 -0.59097063754E-01  0.91389224025E-01  0.51100000000E-03 0.  1.
         11    1    4    4    0    0  0.36515002261E-01 -0.97464227351E-02 -0.16348429848E-01  0.41180947363E-01  0.51100000000E-03 0. -1.
</event>
<event>
 8    1  0.1126414E+005  0.1043930E+01  0.7957747E-01            NaN
         13   -1    0    0    0    0  0.00000000000E+00  0.00000000000E+00  0.74505805969E-08  0.10566000000E+00  0.10566000000E+00 0. -1.
     999900   -1    0    0    0    0 -0.00000000000E+00 -0.00000000000E+00 -0.74505805969E-08  0.93827000000E+00  0.93827000000E+00 0.  1.
     999902    2    1    2    0    0 -0.15707531268E-01  0.14346472085E-01 -0.85156822263E-02  0.10210157109E+01  0.10207585500E+01 0.  0.
     999903    2    3    3    0    0  0.17924521547E-01  0.37303647025E-01 -0.12434270365E+00  0.13249219084E+00  0.19499285356E-01 0.  0.
         14    1    1    2    0    0  0.15707531268E-01 -0.14346472085E-01  0.85156822263E-02  0.22914289070E-01  0.00000000000E+00 0. -1.
     999901    1    3    3    0    0 -0.33632052815E-01 -0.22957174940E-01  0.11582702142E+00  0.88852352009E+00  0.88000000000E+00 0. -1.
        -11    1    4    4    0    0  0.13139811246E-02 -0.15420645196E-02 -0.14608029714E-02  0.25494265433E-02  0.51100000000E-03 0.  1.
         11    1    4    4    0    0  0.16610540423E-01  0.38845711545E-01 -0.12288190068E+00  0.12994276430E+00  0.51100000000E-03 0. -1.
</event>
<event>
 8    1  0.1126414E+005  0.1043930E+01  0.7957747E-01            NaN
         13   -1    0    0    0    0  0.00000000000E+00  0.00000000000E+00  0.74505805969E-08  0.10566000000E+00  0.10566000000E+00 0. -1.
     999900   -1    0    0    0    0 -0.00000000000E+00 -0.00000000000E+00 -0.74505805969E-08  0.93827000000E+00  0.93827000000E+00 0.  1.
     999902    2    1    2    0    0 -0.51986993740E-02  0.13872287572E-01  0.18929189823E-01  0.10198929231E+01  0.10196096280E+01 0.  0.
     999903    2    3    3    0    0 -0.83253327234E-02  0.12377876180E+00 -0.38148043923E-01  0.13121580542E+00  0.19282668314E-01 0.  0.
         14    1    1    2    0    0  0.51986993740E-02 -0.13872287572E-01 -0.18929189823E-01  0.24037076881E-01  0.00000000000E+00 0.  1.
     999901    1    3    3    0    0  0.31266333494E-02 -0.10990647423E+00  0.57077233746E-01  0.88867711770E+00  0.88000000000E+00 0. -1.
        -11    1    4    4    0    0 -0.38028968076E-02  0.17563981678E-01  0.79405691706E-03  0.17995752940E-01  0.51100000000E-03 0. -1.
         11    1    4    4    0    0 -0.45224359158E-02  0.10621478013E+00 -0.38942100840E-01  0.11322005248E+00  0.51100000000E-03 0.  1.
</event>
<event>
 8    1  0.1126414E+005  0.1043930E+01  0.7957747E-01            NaN
         13   -1    0    0    0    0  0.00000000000E+00  0.00000000000E+00  0.74505805969E-08  0.10566000000E+00  0.10566000000E+00 0.  1.
     999900   -1    0    0    0    0 -0.00000000000E+00 -0.00000000000E+00 -0.74505805969E-08  0.93827000000E+00  0.93827000000E+00 0. -1.
     999902    2    1    2    0    0 -0.39511094361E-03  0.22684059613E-01 -0.66878353276E-02  0.10202773085E+01  0.10200031061E+01 0.  0.
     999903    2    3    3    0    0  0.23747241772E-01 -0.14944522019E-01 -0.12646207388E+00  0.13103907746E+00  0.19781644550E-01 0.  0.
         14    1    1    2    0    0  0.39511094361E-03 -0.22684059613E-01  0.66878353276E-02  0.23652691487E-01  0.00000000000E+00 0.  1.
     999901    1    3    3    0    0 -0.24142352715E-01  0.37628581633E-01  0.11977423855E+00  0.88923823106E+00  0.88000000000E+00 0.  1.
        -11    1    4    4    0    0  0.13828646028E-01 -0.16833721994E-01 -0.60460699647E-01  0.64267899997E-01  0.51100000000E-03 0. -1.
         11    1    4    4    0    0  0.99185957437E-02  0.18891999752E-02 -0.66001374232E-01  0.66771177461E-01  0.51100000000E-03 0.  1.
</event>
<event>
 8    1  0.1126414E+005  0.1043930E+01  0.7957747E-01            NaN
         13   -1    0    0    0    0  0.00000000000E+00  0.00000000000E+00  0.74505805969E-08  0.10566000000E+00  0.10566000000E+00 0.  1.
     999900   -1    0    0    0    0 -0.00000000000E+00 -0.00000000000E+00 -0.74505805969E-08  0.93827000000E+00  0.93827000000E+00 0. -1.
     999902    2    1    2    0    0  0.13619818561E-01 -0.26282908033E-02 -0.22366782736E-01  0.10176111790E+01  0.10172707758E+01 0.  0.
     999903    2    3    3    0    0 -0.44593519161E-01 -0.90759172603E-01 -0.78273091269E-01  0.12953383980E+00  0.20652590027E-01 0.  0.
         14    1    1    2    0    0 -0.13619818561E-01  0.26282908033E-02  0.22366782736E-01  0.26318821025E-01  0.00000000000E+00 0.  1.
     999901    1    3    3    0    0  0.58213337722E-01  0.88130881800E-01  0.55906308533E-01  0.88807733917E+00  0.88000000000E+00 0.  1.
        -11    1    4    4    0    0 -0.19880794121E-01 -0.61967612646E-01 -0.53127417515E-01  0.84011990839E-01  0.51100000000E-03 0.  1.
         11    1    4    4    0    0 -0.24712725039E-01 -0.28791559957E-01 -0.25145673754E-01  0.45521848965E-01  0.51100000000E-03 0. -1.
</event>
<event>
 8    1  0.1126414E+005  0.1043930E+01  0.7957747E-01            NaN
         13   -1    0    0    0    0  0.00000000000E+00  0.00000000000E+00  0.74505805969E-08  0.10566000000E+00  0.10566000000E+00 0.  1.
     999900   -1    0    0    0    0 -0.00000000000E+00 -0.00000000000E+00 -0.74505805969E-08  0.93827000000E+00  0.93827000000E+00 0. -1.
     999902    2    1    2    0    0  0.66003632209E-02 -0.22003395404E-01 -0.51325744017E-02  0.10203915735E+01  0.10201200447E+01 0.  0.
     999903    2    3    3    0    0  0.45689707018E-01 -0.10440859173E+00 -0.68667582292E-01  0.13339930156E+00  0.95620836766E-02 0.  0.
         14    1    1    2    0    0 -0.66003632209E-02  0.22003395404E-01  0.51325744017E-02  0.23538426539E-01  0.00000000000E+00 0.  1.
     999901    1    3    3    0    0 -0.39089343797E-01  0.82405196331E-01  0.63535007890E-01  0.88699227190E+00  0.88000000000E+00 0.  1.
        -11    1    4    4    0    0  0.94355363502E-02 -0.14368307130E-01 -0.12424079614E-01  0.21215477163E-01  0.51100000000E-03 0.  1.
         11    1    4    4    0    0  0.36254170667E-01 -0.90040284605E-01 -0.56243502678E-01  0.11218382440E+00  0.51100000000E-03 0. -1.
</event>
<event>
 8    1  0.1126414E+005  0.1043930E+01  0.7957747E-01            NaN
         13   -1    0    0    0    0  0.00000000000E+00  0.00000000000E+00  0.74505805969E-08  0.10566000000E+00  0.10566000000E+00 0. -1.
     999900   -1    0    0    0    0 -0.00000000000E+00 -0.00000000000E+00 -0.74505805969E-08  0.93827000000E+00  0.93827000000E+00 0.  1.
     999902    2    1    2    0    0  0.93572464508E-02 -0.23013569670E-01  0.68891594519E-02  0.10181493296E+01  0.10178228796E+01 0.  0.
     999903    2    3    3    0    0 -0.97694759943E-01 -0.80420436821E-01  0.20050101496E-01  0.12970749643E+00  0.20256240555E-01 0.  0.
         14    1    1    2    0    0 -0.93572464508E-02  0.23013569670E-01 -0.68891594519E-02  0.25780670434E-01  0.00000000000E+00 0.  1.
     999901    1    3    3    0    0  0.10705200639E+00  0.57406867152E-01 -0.13160942044E-01  0.88844183314E+00  0.88000000000E+00 0. -1.
        -11    1    4    4    0    0 -0.84288760553E-01 -0.59152259550E-01  0.17180859129E-01  0.10439840998E+00  0.51100000000E-03 0.  1.
         11    1    4    4    0    0 -0.13405999391E-01 -0.21268177271E-01  0.28692423672E-02  0.25309086449E-01  0.51100000000E-03 0. -1.
</event>
<event>
 8    1  0.1126414E+005  0.1043930E+01  0.7957747E-01            NaN
         13   -1    0    0    0    0  0.00000000000E+00  0.00000000000E+00  0.74505805969E-08  0.10566000000E+00  0.10566000000E+00 0.  1.
     999900   -1    0    0    0    0 -0.00000000000E+00 -0.00000000000E+00 -0.74505805969E-08  0.93827000000E+00  0.93827000000E+00 0. -1.
     999902    2    1    2    0    0 -0.19828266195E-01  0.28444348390E-02  0.13545431101E-01  0.10197488161E+01  0.10194620730E+01 0.  0.
     999903    2    3    3    0    0 -0.10461092165E-01  0.10213560097E+00  0.79819985678E-01  0.13163914035E+00  0.20408765874E-01 0.  0.
         14    1    1    2    0    0  0.19828266195E-01 -0.28444348390E-02 -0.13545431101E-01  0.24181183874E-01  0.00000000000E+00 0.  1.
     999901    1    3    3    0    0 -0.93671740300E-02 -0.99291166128E-01 -0.66274554577E-01  0.88810967577E+00  0.88000000000E+00 0. -1.
        -11    1    4    4    0    0 -0.12495710519E-01  0.50367379342E-01  0.30997335260E-01  0.60449248113E-01  0.51100000000E-03 0.  1.
         11    1    4    4    0    0  0.20346183539E-02  0.51768221625E-01  0.48822650418E-01  0.71189892238E-01  0.51100000000E-03 0. -1.
</event>
<event>
 8    1  0.1126414E+005  0.1043930E+01  0.7957747E-01            NaN
         13   -1    0    0    0    0  0.00000000000E+00  0.00000000000E+00  0.74505805969E-08  0.10566000000E+00  0.10566000000E+00 0.  1.
     999900   -1    0    0    0    0 -0.00000000000E+00 -0.00000000000E+00 -0.74505805969E-08  0.93827000000E+00  0.93827000000E+00 0.  1.
     999902    2    1    2    0    0 -0.48014061382E-03 -0.10531311531E-01  0.21107454496E-01  0.10203362785E+01  0.10200634576E+01 0.  0.
     999903    2    3    3    0    0 -0.33876833644E-01  0.80382996754E-01  0.96260025165E-01  0.13183829911E+00  0.22500636480E-01 0.  0.
         14    1    1    2    0    0  0.48014061382E-03  0.10531311531E-01 -0.21107454496E-01  0.23593721472E-01  0.00000000000E+00 0. -1.
     999901    1    3    3    0    0  0.33396693031E-01 -0.90914308284E-01 -0.75152570669E-01  0.88849797942E+00  0.88000000000E+00 0.  1.
        -11    1    4    4    0    0 -0.76900016451E-02  0.20268105935E-01  0.39729145312E-01  0.45261444428E-01  0.51100000000E-03 0. -1.
         11    1    4    4    0    0 -0.26186831999E-01  0.60114890818E-01  0.56530879853E-01  0.86576854679E-01  0.51100000000E-03 0.  1.
</event>
<event>
 8    1  0.1126414E+005  0.1043930E+01  0.7957747E-01            NaN
         13   -1    0    0    0    0  0.00000000000E+00  0.00000000000E+00  0.74505805969E-08  0.10566000000E+00  0.10566000000E+00 0.  1.
     999900   -1    0    0    0    0 -0.00000000000E+00 -0.00000000000E+00 -0.74505805969E-08  0.93827000000E+00  0.93827000000E+00 0.  1.
     999902    2    1    2    0    0 -0.18824835786E-01  0.77060469258E-02  0.58336848138E-02  0.10227689632E+01  0.10225500294E+01 0.  0.
     999903    2    3    3    0    0  0.82086050950E-01 -0.89142211582E-01  0.45210010681E-01  0.13085355951E+00  0.19855863705E-01 0.  0.
         14    1    1    2    0    0  0.18824835786E-01 -0.77060469258E-02 -0.58336848138E-02  0.21161036839E-01  0.00000000000E+00 0.  1.
     999901    1    3    3    0    0 -0.10091088674E+00  0.96848258507E-01 -0.39376325867E-01  0.89191540365E+00  0.88000000000E+00 0. -1.
        -11    1    4    4    0    0  0.63693224232E-01 -0.78516185159E-01  0.33028074520E-01  0.10636133213E+00  0.51100000000E-03 0. -1.
         11    1    4    4    0    0  0.18392826718E-01 -0.10626026422E-01  0.12181936161E-01  0.24492227376E-01  0.51100000000E-03 0.  1.
</event>
<event>
 8    1  0.1126414E+005  0.1043930E+01  0.7957747E-01            NaN
         13   -1    0    0    0    0  0.00000000000E+00  0.00000000000E+00  0.74505805969E-08  0.10566000000E+00  0.10566000000E+00 0.  1.
     999900   -1    0    0    0    0 -0.00000000000E+00 -0.00000000000E+00 -0.74505805969E-08  0.93827000000E+00  0.93827000000E+00 0. -1.
     999902    2    1    2    0    0 -0.51894905294E-02  0.12661561497E-01  0.17629127733E-01  0.10216133673E+01  0.10213695904E+01 0.  0.
     999903    2    3    3    0    0 -0.88885496422E-01 -0.51390052269E-01  0.83637733986E-01  0.13287000346E+00  0.10844276209E-01 0.  0.
         14    1    1    2    0    0  0.51894905294E-02 -0.12661561497E-01 -0.17629127733E-01  0.22316632724E-01  0.00000000000E+00 0. -1.
     999901    1    3    3    0    0  0.83696005893E-01  0.64051613767E-01 -0.66008606253E-01  0.88874336382E+00  0.88000000000E+00 0. -1.
        -11    1    4    4    0    0 -0.33960877861E-01 -0.25290952429E-01  0.31704138906E-01  0.52899783030E-01  0.51100000000E-03 0.  1.
         11    1    4    4    0    0 -0.54924618561E-01 -0.26099099840E-01  0.51933595081E-01  0.79970220430E-01  0.51100000000E-03 0. -1.
</event>
<event>
 8    1  0.1126414E+005  0.1043930E+01  0.7957747E-01            NaN
         13   -1    0    0    0    0  0.00000000000E+00  0.00000000000E+00  0.74505805969E-08  0.10566000000E+00  0.10566000000E+00 0. -1.
     999900   -1    0    0    0    0 -0.00000000000E+00 -0.00000000000E+00 -0.74505805969E-08  0.93827000000E+00  0.93827000000E+00 0. -1.
     999902    2    1    2    0    0 -0.23273322996E-01  0.41369801873E-02  0.12880861351E-02  0.10202567802E+01  0.10199820961E+01 0.  0.
     999903    2    3    3    0    0  0.55129582349E-01 -0.11463303625E+00  0.22752884665E-02  0.12882293134E+00  0.20252576446E-01 0.  0.
         14    1    1    2    0    0  0.23273322996E-01 -0.41369801873E-02 -0.12880861351E-02  0.23673219769E-01  0.00000000000E+00 0. -1.
     999901    1    3    3    0    0 -0.78402905346E-01  0.11877001644E+00 -0.98720233140E-03  0.89143384889E+00  0.88000000000E+00 0. -1.
        -11    1    4    4    0    0  0.17134990053E-01 -0.20336015314E-01 -0.43121545134E-02  0.26944706354E-01  0.51100000000E-03 0.  1.
         11    1    4    4    0    0  0.37994592297E-01 -0.94297020936E-01  0.65874429799E-02  0.10187822499E+00  0.51100000000E-03 0. -1.
</event>
<event>
 8    1  0.1126414E+005  0.1043930E+01  0.7957747E-01            NaN
         13   -1    0    0    0    0  0.00000000000E+00  0.00000000000E+00  0.74505805969E-08  0.10566000000E+00  0.10566000000E+00 0.  1.
     999900   -1    0    0    0    0 -0.00000000000E+00 -0.00000000000E+00 -0.74505805969E-08  0.93827000000E+00  0.93827000000E+00 0. -1.
     999902    2    1    2    0    0 -0.18342930427E-01  0.62780202142E-02 -0.13406096326E-01  0.10203588300E+01  0.10200865365E+01 0.  0.
     999903    2    3    3    0    0 -0.11022385503E+00 -0.44698432780E-01 -0.56350801922E-01  0.13306803735E+00  0.19607181734E-01 0.  0.
         14    1    1    2    0    0  0.18342930427E-01 -0.62780202142E-02  0.13406096326E-01  0.23571169958E-01  0.00000000000E+00 0.  1.
     999901    1    3    3    0    0  0.91880924601E-01  0.50976452994E-01  0.42944705596E-01  0.88729079270E+00  0.88000000000E+00 0. -1.
        -11    1    4    4    0    0 -0.66007573630E-01 -0.21316316060E-01 -0.41745094718E-01  0.80958626229E-01  0.51100000000E-03 0. -1.
         11    1    4    4    0    0 -0.44216281398E-01 -0.23382116720E-01 -0.14605707204E-01  0.52109411116E-01  0.51100000000E-03 0.  1.
</event>
<event>
 8    1  0.1126414E+005  0.1043930E+01  0.7957747E-01            NaN
         13   -1    0    0    0    0  0.00000000000E+00  0.00000000000E+00  0.74505805969E-08  0.10566000000E+00  0.10566000000E+00 0.  1.
     999900   -1    0    0    0    0 -0.00000000000E+00 -0.00000000000E+00 -0.74505805969E-08  0.93827000000E+00  0.93827000000E+00 0.  1.
     999902    2    1    2    0    0 -0.16809135613E-01  0.82926125249E-02 -0.15355362073E-01  0.10196998203E+01  0.10194119001E+01 0.  0.
     999903    2    3    3    0    0 -0.36215609202E-01  0.87106741934E-01  0.83305538079E-01  0.13047417324E+00  0.34417181309E-01 0.  0.
         14    1    1    2    0    0  0.16809135613E-01 -0.82926125249E-02  0.15355362073E-01  0.24230179672E-01  0.00000000000E+00 0. -1.
     999901    1    3    3    0    0  0.19406473589E-01 -0.78814129409E-01 -0.98660900152E-01  0.88922564708E+00  0.88000000000E+00 0.  1.
        -11    1    4    4    0    0 -0.42768128226E-01  0.69622341876E-01  0.66591838986E-01  0.10540928527E+00  0.51100000000E-03 0. -1.
         11    1    4    4    0    0  0.65525190240E-02  0.17484400057E-01  0.16713699092E-01  0.25064887977E-01  0.51100000000E-03 0.  1.
</event>
<event>
 8    1  0.1126414E+005  0.1043930E+01  0.7957747E-01            NaN
         13   -1    0    0    0    0  0.00000000000E+00  0.00000000000E+00  0.74505805969E-08  0.10566000000E+00  0.10566000000E+00 0. -1.
     999900   -1    0    0    0    0 -0.00000000000E+00 -0.00000000000E+00 -0.74505805969E-08  0.93827000000E+00  0.93827000000E+00 0.  1.
     999902    2    1    2    0    0  0.45851540248E-02 -0.77203861843E-02 -0.20411531222E-01  0.10216307039E+01  0.10213873098E+01 0.  0.
     999903    2    3    3    0    0  0.10160181276E+00  0.75121970737E-01 -0.33497010400E-01  0.13233529856E+00  0.20599580016E-01 0.  0.
         14    1    1    2    0    0 -0.45851540248E-02  0.77203861843E-02  0.20411531222E-01  0.22299296112E-01  0.00000000000E+00 0. -1.
     999901    1    3    3    0    0 -0.97016658731E-01 -0.82842356921E-01  0.13085479178E-01  0.88929540533E+00  0.88000000000E+00 0. -1.
        -11    1    4    4    0    0  0.88553183578E-01  0.55769639085E-01 -0.26334469822E-01  0.10791517218E+00  0.51100000000E-03 0.  1.
         11    1    4    4    0    0  0.13048629177E-01  0.19352331652E-01 -0.71625405777E-02  0.24420126378E-01  0.51100000000E-03 0. -1.
</event>
<event>
 8    1  0.1126414E+005  0.1043930E+01  0.7957747E-01            NaN
         13   -1    0    0    0    0  0.00000000000E+00  0.00000000000E+00  0.74505805969E-08  0.10566000000E+00  0.10566000000E+00 0.  1.
     999900   -1    0    0    0    0 -0.00000000000E+00 -0.00000000000E+00 -0.74505805969E-08  0.93827000000E+00  0.93827000000E+00 0. -1.
     999902    2    1    2    0    0 -0.12924163158E-01  0.88593141039E-02 -0.17001664157E-01  0.10208090566E+01  0.10205471826E+01 0.  0.
     999903    2    3    3    0    0  0.17441317155E-01  0.93872372203E-01  0.86057253208E-01  0.13020789845E+00  0.20785191419E-01 0.  0.
         14    1    1    2    0    0  0.12924163158E-01 -0.88593141039E-02  0.17001664157E-01  0.23120943403E-01  0.00000000000E+00 0.  1.
     999901    1    3    3    0    0 -0.30365480313E-01 -0.85013058099E-01 -0.10305891737E+00  0.89060115815E+00  0.88000000000E+00 0. -1.
        -11    1    4    4    0    0 -0.94696775612E-03  0.51293140332E-01  0.46743750795E-01  0.69405492235E-01  0.51100000000E-03 0. -1.
         11    1    4    4    0    0  0.18388284911E-01  0.42579231871E-01  0.39313502413E-01  0.60802406216E-01  0.51100000000E-03 0.  1.
</event>
<event>
 8    1  0.1126414E+005  0.1043930E+01  0.7957747E-01            NaN
         13   -1    0    0    0    0  0.00000000000E+00  0.00000000000E+00  0.74505805969E-08  0.10566000000E+00  0.10566000000E+00 0.  1.
     999900   -1    0    0    0    0 -0.00000000000E+00 -0.00000000000E+00 -0.74505805969E-08  0.93827000000E+00  0.93827000000E+00 0.  1.
     999902    2    1    2    0    0  0.12930709051E-01  0.12334420569E-01  0.33419537457E-03  0.10260567559E+01  0.10259010739E+01 0.  0.
     999903    2    3    3    0    0 -0.31962812166E-01  0.10715093080E+00 -0.75737943632E-01  0.13656669460E+00  0.20280104435E-01 0.  0.
         14    1    1    2    0    0 -0.12930709051E-01 -0.12334420569E-01 -0.33419537457E-03  0.17873244078E-01  0.00000000000E+00 0. -1.
     999901    1    3    3    0    0  0.44893521217E-01 -0.94816510227E-01  0.76072139007E-01  0.88949006132E+00  0.88000000000E+00 0. -1.
        -11    1    4    4    0    0 -0.12298613321E-01  0.58105145245E-01 -0.50702682396E-01  0.78092809635E-01  0.51100000000E-03 0.  1.
         11    1    4    4    0    0 -0.19664198845E-01  0.49045785551E-01 -0.25035261236E-01  0.58473884963E-01  0.51100000000E-03 0. -1.
</event>
<event>
 8    1  0.1126414E+005  0.1043930E+01  0.7957747E-01            NaN
         13   -1    0    0    0    0  0.00000000000E+00  0.00000000000E+00  0.74505805969E-08  0.10566000000E+00  0.10566000000E+00 0.  1.
     999900   -1    0    0    0    0 -0.00000000000E+00 -0.00000000000E+00 -0.74505805969E-08  0.93827000000E+00  0.93827000000E+00 0. -1.
     999902    2    1    2    0    0 -0.17979150785E-01 -0.67887047939E-02 -0.13757128627E-01  0.10202953863E+01  0.10200216078E+01 0.  0.
     999903    2    3    3    0    0  0.53255732690E-01  0.97604869478E-01  0.60445977486E-01  0.12817514334E+00  0.20304373093E-01 0.  0.
         14    1    1    2    0    0  0.17979150785E-01  0.67887047939E-02  0.13757128627E-01  0.23634613680E-01  0.00000000000E+00 0. -1.
     999901    1    3    3    0    0 -0.71234883475E-01 -0.10439357427E+00 -0.74203106113E-01  0.89212024298E+00  0.88000000000E+00 0.  1.
        -11    1    4    4    0    0  0.15959279644E-01  0.18201295690E-01  0.60694556246E-02  0.24961674305E-01  0.51100000000E-03 0.  1.
         11    1    4    4    0    0  0.37296453046E-01  0.79403573788E-01  0.54376521861E-01  0.10321346904E+00  0.51100000000E-03 0. -1.
</event>
<event>
 7    1  0.1447391E+005  0.1043930E+01  0.7957747E-01            NaN
         13   -1    0    0    0    0  0.00000000000E+00  0.00000000000E+00  0.74505805969E-08  0.10566000000E+00  0.10566000000E+00 0.  1.
     999900   -1    0    0    0    0 -0.00000000000E+00 -0.00000000000E+00 -0.74505805969E-08  0.93827000000E+00  0.93827000000E+00 0. -1.
     999903    2    1    2    0    0 -0.72376275133E-01  0.38092124236E-02 -0.72437751034E-01  0.10447417027E+00  0.20366373669E-01 0.  0.
         14    1    1    2    0    0 -0.36506073578E-01  0.20312714413E-01  0.29944526349E-01  0.51400140400E-01  0.00000000000E+00 0.  1.
     999901    1    1    2    0    0  0.10888234871E+00 -0.24121926836E-01  0.42493224685E-01  0.88805568933E+00  0.88000000000E+00 0.  1.
        -11    1    3    3    0    0 -0.45691056381E-01  0.12190443999E-01 -0.46565078533E-01  0.66369023029E-01  0.51100000000E-03 0. -1.
         11    1    3    3    0    0 -0.26685218752E-01 -0.83812315751E-02 -0.25872672501E-01  0.38105147237E-01  0.51100000000E-03 0.  1.
</event>
<event>
 8    1  0.1126414E+005  0.1043930E+01  0.7957747E-01            NaN
         13   -1    0    0    0    0  0.00000000000E+00  0.00000000000E+00  0.74505805969E-08  0.10566000000E+00  0.10566000000E+00 0. -1.
     999900   -1    0    0    0    0 -0.00000000000E+00 -0.00000000000E+00 -0.74505805969E-08  0.93827000000E+00  0.93827000000E+00 0.  1.
     999902    2    1    2    0    0  0.21058511446E-01 -0.93392588500E-02 -0.53439032090E-02  0.10202817451E+01  0.10200076467E+01 0.  0.
     999903    2    3    3    0    0  0.11303574171E+00  0.29859286632E-01  0.58490763579E-01  0.13232273613E+00  0.20481239509E-01 0.  0.
         14    1    1    2    0    0 -0.21058511446E-01  0.93392588500E-02  0.53439032090E-02  0.23648254939E-01  0.00000000000E+00 0.  1.
     999901    1    3    3    0    0 -0.91977230261E-01 -0.39198545482E-01 -0.63834666788E-01  0.88795900893E+00  0.88000000000E+00 0.  1.
        -11    1    4    4    0    0  0.59784380274E-01  0.75606518729E-02  0.37022081470E-01  0.70726453459E-01  0.51100000000E-03 0. -1.
         11    1    4    4    0    0  0.53251361433E-01  0.22298634759E-01  0.21468682110E-01  0.61596282673E-01  0.51100000000E-03 0.  1.
</event>
<event>
 8    1  0.1126414E+005  0.1043930E+01  0.7957747E-01            NaN
         13   -1    0    0    0    0  0.00000000000E+00  0.00000000000E+00  0.74505805969E-08  0.10566000000E+00  0.10566000000E+00 0. -1.
     999900   -1    0    0    0    0 -0.00000000000E+00 -0.00000000000E+00 -0.74505805969E-08  0.93827000000E+00  0.93827000000E+00 0.  1.
     999902    2    1    2    0    0  0.13958660992E-02 -0.21124008536E-01  0.85934964406E-02  0.10210822351E+01  0.10208265820E+01 0.  0.
     999903    2    3    3    0    0 -0.80022896872E-01  0.99507919248E-01  0.47928918502E-02  0.12912062072E+00  0.18538415980E-01 0.  0.
         14    1    1    2    0    0 -0.13958660992E-02  0.21124008536E-01 -0.85934964406E-02  0.22847764877E-01  0.00000000000E+00 0. -1.
     999901    1    3    3    0    0  0.81418762971E-01 -0.12063192778E+00  0.38006045904E-02  0.89196161440E+00  0.88000000000E+00 0. -1.
        -11    1    4    4    0    0 -0.70994617948E-01  0.78008183530E-01  0.68831764296E-02  0.10570313010E+00  0.51100000000E-03 0. -1.
         11    1    4    4    0    0 -0.90282789243E-02  0.21499735719E-01 -0.20902845794E-02  0.23417490620E-01  0.51100000000E-03 0.  1.
</event>
<event>
 8    1  0.1126414E+005  0.1043930E+01  0.7957747E-01            NaN
         13   -1    0    0    0    0  0.00000000000E+00  0.00000000000E+00  0.74505805969E-08  0.10566000000E+00  0.10566000000E+00 0.  1.
     999900   -1    0    0    0    0 -0.00000000000E+00 -0.00000000000E+00 -0.74505805969E-08  0.93827000000E+00  0.93827000000E+00 0.  1.
     999902    2    1    2    0    0  0.22294324397E-01  0.12166452534E-02  0.81422089414E-02  0.10201642117E+01  0.10198873498E+01 0.  0.
     999903    2    3    3    0    0  0.22750422026E-02 -0.75404546970E-01  0.10561951785E+00  0.13124722769E+00  0.19476414032E-01 0.  0.
         14    1    1    2    0    0 -0.22294324397E-01 -0.12166452534E-02 -0.81422089414E-02  0.23765788277E-01  0.00000000000E+00 0.  1.
     999901    1    3    3    0    0  0.20019282194E-01  0.76621192224E-01 -0.97477308909E-01  0.88891698404E+00  0.88000000000E+00 0.  1.
        -11    1    4    4    0    0 -0.37097295962E-03 -0.72997831889E-01  0.93630160275E-01  0.11872526738E+00  0.51100000000E-03 0. -1.
         11    1    4    4    0    0  0.26460151622E-02 -0.24067150810E-02  0.11989357575E-01  0.12521960301E-01  0.51100000000E-03 0.  1.
</event>
<event>
 8    1  0.1126414E+005  0.1043930E+01  0.7957747E-01            NaN
         13   -1    0    0    0    0  0.00000000000E+00  0.00000000000E+00  0.74505805969E-08  0.10566000000E+00  0.10566000000E+00 0. -1.
     999900   -1    0    0    0    0 -0.00000000000E+00 -0.00000000000E+00 -0.74505805969E-08  0.93827000000E+00  0.93827000000E+00 0.  1.
     999902    2    1    2    0    0  0.66086858803E-02 -0.20766366188E-01  0.12070955090E-01  0.10190176607E+01  0.10187130941E+01 0.  0.
     999903    2    3    3    0    0 -0.45310849909E-01  0.11157432779E+00  0.36207029984E-01  0.12728213509E+00  0.19694901652E-01 0.  0.
         14    1    1    2    0    0 -0.66086858803E-02  0.20766366188E-01 -0.12070955090E-01  0.24912339322E-01  0.00000000000E+00 0.  1.
     999901    1    3    3    0    0  0.51919535790E-01 -0.13234069398E+00 -0.24136074894E-01  0.89173552559E+00  0.88000000000E+00 0.  1.
        -11    1    4    4    0    0 -0.24515728743E-01  0.52106048142E-01  0.75884845828E-02  0.58085346070E-01  0.51100000000E-03 0.  1.
         11    1    4    4    0    0 -0.20795121166E-01  0.59468279652E-01  0.28618545401E-01  0.69196789022E-01  0.51100000000E-03 0. -1.
</event>
<event>
 8    1  0.1126414E+005  0.1043930E+01  0.7957747E-01            NaN
         13   -1    0    0    0    0  0.00000000000E+00  0.00000000000E+00  0.74505805969E-08  0.10566000000E+00  0.10566000000E+00 0. -1.
     999900   -1    0    0    0    0 -0.00000000000E+00 -0.00000000000E+00 -0.74505805969E-08  0.93827000000E+00  0.93827000000E+00 0.  1.
     999902    2    1    2    0    0  0.98125910129E-02 -0.15314497023E-01 -0.15553688173E-01  0.10199980553E+01  0.10197172622E+01 0.  0.
     999903    2    3    3    0    0  0.18587920514E-01  0.99568950860E-01  0.75960258425E-01  0.12778170517E+00  0.17283418439E-01 0.  0.
         14    1    1    2    0    0 -0.98125910129E-02  0.15314497023E-01  0.15553688173E-01  0.23931944703E-01  0.00000000000E+00 0. -1.
     999901    1    3    3    0    0 -0.87753295011E-02 -0.11488344788E+00 -0.91513946598E-01  0.89221635012E+00  0.88000000000E+00 0.  1.
        -11    1    4    4    0    0 -0.19846598826E-02  0.31578809072E-01  0.21227690707E-01  0.38105590548E-01  0.51100000000E-03 0. -1.
         11    1    4    4    0    0  0.20572580397E-01  0.67990141788E-01  0.54732567718E-01  0.89676114627E-01  0.51100000000E-03 0.  1.
</event>
<event>
 8    1  0.1126414E+005  0.1043930E+01  0.7957747E-01            NaN
         13   -1    0    0    0    0  0.00000000000E+00  0.00000000000E+00  0.74505805969E-08  0.10566000000E+00  0.10566000000E+00 0.  1.
     999900   -1    0    0    0    0 -0.00000000000E+00 -0.00000000000E+00 -0.74505805969E-08  0.93827000000E+00  0.93827000000E+00 0. -1.
     999902    2    1    2    0    0  0.14777926977E-01  0.50674457864E-02  0.17119851150E-01  0.10207533860E+01  0.10204902349E+01 0.  0.
     999903    2    3    3    0    0  0.53648820164E-01  0.31660539275E-01  0.11673246581E+00  0.13388202445E+00  0.20428956059E-01 0.  0.
         14    1    1    2    0    0 -0.14777926977E-01 -0.50674457864E-02 -0.17119851150E-01  0.23176613988E-01  0.00000000000E+00 0. -1.
     999901    1    3    3    0    0 -0.38870893187E-01 -0.26593093488E-01 -0.99612614656E-01  0.88687136156E+00  0.88000000000E+00 0. -1.
        -11    1    4    4    0    0  0.30493929210E-01  0.12156392557E-01  0.78661619804E-01  0.85238307995E-01  0.51100000000E-03 0.  1.
         11    1    4    4    0    0  0.23154890955E-01  0.19504146718E-01  0.38070846002E-01  0.48643716456E-01  0.51100000000E-03 0. -1.
</event>
<event>
 8    1  0.1126414E+005  0.1043930E+01  0.7957747E-01            NaN
         13   -1    0    0    0    0  0.00000000000E+00  0.00000000000E+00  0.74505805969E-08  0.10566000000E+00  0.10566000000E+00 0. -1.
     999900   -1    0    0    0    0 -0.00000000000E+00 -0.00000000000E+00 -0.74505805969E-08  0.93827000000E+00  0.93827000000E+00 0.  1.
     999902    2    1    2    0    0 -0.27144600275E-01  0.64011225705E-02  0.98797408134E-02  0.10143426214E+01  0.10139110122E+01 0.  0.
     999903    2    3    3    0    0  0.44797803609E-01 -0.59113271775E-01 -0.95486077068E-01  0.12273183135E+00  0.21078173657E-01 0.  0.
         14    1    1    2    0    0  0.27144600275E-01 -0.64011225705E-02 -0.98797408134E-02  0.29587378607E-01  0.00000000000E+00 0.  1.
     999901    1    3    3    0    0 -0.71942403884E-01  0.65514394346E-01  0.10536581788E+00  0.89161079004E+00  0.88000000000E+00 0. -1.
        -11    1    4    4    0    0  0.28007793151E-02 -0.14945603318E-01 -0.27477615793E-01  0.31408532503E-01  0.51100000000E-03 0.  1.
         11    1    4    4    0    0  0.41997024294E-01 -0.44167668457E-01 -0.68008461275E-01  0.91323298848E-01  0.51100000000E-03 0. -1.
</event>
<event>
 8    1  0.1126414E+005  0.1043930E+01  0.7957747E-01            NaN
         13   -1    0    0    0    0  0.00000000000E+00  0.00000000000E+00  0.74505805969E-08  0.10566000000E+00  0.10566000000E+00 0. -1.
     999900   -1    0    0    0    0 -0.00000000000E+00 -0.00000000000E+00 -0.74505805969E-08  0.93827000000E+00  0.93827000000E+00 0.  1.
     999902    2    1    2    0    0 -0.17488849596E-01  0.15698762942E-01  0.46423791174E-04  0.10204286559E+01  0.10201579920E+01 0.  0.
     999903    2    3    3    0    0  0.10346416543E+00  0.74168493904E-01 -0.18851271645E-01  0.13003241594E+00  0.18634906413E-01 0.  0.
         14    1    1    2    0    0  0.17488849596E-01 -0.15698762942E-01 -0.46423791174E-04  0.23501344074E-01  0.00000000000E+00 0. -1.
     999901    1    3    3    0    0 -0.12095301503E+00 -0.58469730962E-01  0.18897695436E-01  0.89039623998E+00  0.88000000000E+00 0.  1.
        -11    1    4    4    0    0  0.63987440614E-01  0.53012241384E-01 -0.19001438970E-01  0.85240871047E-01  0.51100000000E-03 0. -1.
         11    1    4    4    0    0  0.39476724817E-01  0.21156252520E-01  0.15016732477E-03  0.44791544896E-01  0.51100000000E-03 0.  1.
</event>
<event>
 8    1  0.1126414E+005  0.1043930E+01  0.7957747E-01            NaN
         13   -1    0    0    0    0  0.00000000000E+00  0.00000000000E+00  0.74505805969E-08  0.10566000000E+00  0.10566000000E+00 0. -1.
     999900   -1    0    0    0    0 -0.00000000000E+00 -0.00000000000E+00 -0.74505805969E-08  0.93827000000E+00  0.93827000000E+00 0.  1.
     999902    2    1    2    0    0 -0.22177704393E-01  0.88135117289E-02 -0.23389505519E-02  0.10199508580E+01  0.10196689431E+01 0.  0.
     999903    2    3    3    0    0  0.24141853599E-01  0.11810315307E+00 -0.46989075021E-01  0.13085954618E+00  0.19623042444E-01 0.  0.
         14    1    1    2    0    0  0.22177704393E-01 -0.88135117289E-02  0.23389505519E-02  0.23979141995E-01  0.00000000000E+00 0.  1.
     999901    1    3    3    0    0 -0.46319557991E-01 -0.10928964134E+00  0.44650124469E-01  0.88909131183E+00  0.88000000000E+00 0. -1.
        -11    1    4    4    0    0  0.77760668580E-03  0.49961615822E-01 -0.16352355802E-01  0.52577831726E-01  0.51100000000E-03 0.  1.
         11    1    4    4    0    0  0.23364246913E-01  0.68141537243E-01 -0.30636719219E-01  0.78281714450E-01  0.51100000000E-03 0. -1.
</event>
<event>
 8    1  0.1126414E+005  0.1043930E+01  0.7957747E-01            NaN
         13   -1    0    0    0    0  0.00000000000E+00  0.00000000000E+00  0.74505805969E-08  0.10566000000E+00  0.10566000000E+00 0. -1.
     999900   -1    0    0    0    0 -0.00000000000E+00 -0.00000000000E+00 -0.74505805969E-08  0.93827000000E+00  0.93827000000E+00 0. -1.
     999902    2    1    2    0    0 -0.22952572683E-01  0.36533319845E-02  0.91785221940E-02  0.10189417488E+01  0.10186353002E+01 0.  0.
     999903    2    3    3    0    0  0.37530891308E-01 -0.55582267179E-01 -0.10642064215E+00  0.12735312596E+00  0.19887417817E-01 0.  0.
         14    1    1    2    0    0  0.22952572683E-01 -0.36533319845E-02 -0.91785221940E-02  0.24988251180E-01  0.00000000000E+00 0. -1.
     999901    1    3    3    0    0 -0.60483463991E-01  0.59235599163E-01  0.11559916435E+00  0.89158862286E+00  0.88000000000E+00 0.  1.
        -11    1    4    4    0    0  0.49949149999E-04 -0.72253310551E-02 -0.21497165654E-01  0.22684733984E-01  0.51100000000E-03 0. -1.
         11    1    4    4    0    0  0.37480942158E-01 -0.48356936124E-01 -0.84923476498E-01  0.10466839197E+00  0.51100000000E-03 0.  1.
</event>
<event>
 8    1  0.1126414E+005  0.1043930E+01  0.7957747E-01            NaN
         13   -1    0    0    0    0  0.00000000000E+00  0.00000000000E+00  0.74505805969E-08  0.10566000000E+00  0.10566000000E+00 0. -1.
     999900   -1    0    0    0    0 -0.00000000000E+00 -0.00000000000E+00 -0.74505805969E-08  0.93827000000E+00  0.93827000000E+00 0. -1.
     999902    2    1    2    0    0 -0.12581109728E-01  0.16074265407E-01 -0.17665929912E-02  0.10234412914E+01  0.10232361847E+01 0.  0.
     999903    2    3    3    0    0 -0.36209566580E-01  0.12485638526E+00 -0.34160314783E-01  0.13583709648E+00  0.19609692065E-01 0.  0.
         14    1    1    2    0    0  0.12581109728E-01 -0.16074265407E-01  0.17665929912E-02  0.20488708626E-01  0.00000000000E+00 0.  1.
     999901    1    3    3    0    0  0.23628456852E-01 -0.10878211985E+00  0.32393721792E-01  0.88760419489E+00  0.88000000000E+00 0. -1.
        -11    1    4    4    0    0 -0.74612134379E-02  0.26416454429E-01  0.86333546412E-03  0.27468258767E-01  0.51100000000E-03 0.  1.
         11    1    4    4    0    0 -0.28748353142E-01  0.98439930832E-01 -0.35023650247E-01  0.10836883772E+00  0.51100000000E-03 0. -1.
</event>
<event>
 8    1  0.1126414E+005  0.1043930E+01  0.7957747E-01            NaN
         13   -1    0    0    0    0  0.00000000000E+00  0.00000000000E+00  0.74505805969E-08  0.10566000000E+00  0.10566000000E+00 0. -1.
     999900   -1    0    0    0    0 -0.00000000000E+00 -0.00000000000E+00 -0.74505805969E-08  0.93827000000E+00  0.93827000000E+00 0. -1.
     999902    2    1    2    0    0  0.85414150116E-02 -0.14610510990E-01  0.15861521999E-01  0.10207349427E+01  0.10204713679E+01 0.  0.
     999903    2    3    3    0    0  0.53915969845E-01 -0.29693361816E-01 -0.11284674670E+00  0.13008789645E+00  0.19996125149E-01 0.  0.
         14    1    1    2    0    0 -0.85414150116E-02  0.14610510990E-01 -0.15861521999E-01  0.23195057273E-01  0.00000000000E+00 0.  1.
     999901    1    3    3    0    0 -0.45374554833E-01  0.15082850826E-01  0.12870826870E+00  0.89064704628E+00  0.88000000000E+00 0.  1.
        -11    1    4    4    0    0  0.30779797924E-01 -0.13346449286E-01 -0.41804364877E-01  0.53604008363E-01  0.51100000000E-03 0.  1.
         11    1    4    4    0    0  0.23136171921E-01 -0.16346912530E-01 -0.71042381822E-01  0.76483888084E-01  0.51100000000E-03 0. -1.
</event>
<event>
 8    1  0.1126414E+005  0.1043930E+01  0.7957747E-01            NaN
         13   -1    0    0    0    0  0.00000000000E+00  0.00000000000E+00  0.74505805969E-08  0.10566000000E+00  0.10566000000E+00 0. -1.
     999900   -1    0    0    0    0 -0.00000000000E+00 -0.00000000000E+00 -0.74505805969E-08  0.93827000000E+00  0.93827000000E+00 0.  1.
     999902    2    1    2    0    0  0.22308920541E-01 -0.84781416296E-02 -0.30895009100E-02  0.10198652574E+01  0.10195813020E+01 0.  0.
     999903    2    3    3    0    0 -0.32932505081E-01 -0.97295365812E-01 -0.78143506074E-01  0.13049850620E+00  0.19300634210E-01 0.  0.
         14    1    1    2    0    0 -0.22308920541E-01  0.84781416296E-02  0.30895009100E-02  0.24064742614E-01  0.00000000000E+00 0.  1.
     999901    1    3    3    0    0  0.55241425621E-01  0.88817224182E-01  0.75054005164E-01  0.88936675118E+00  0.88000000000E+00 0. -1.
        -11    1    4    4    0    0 -0.29349223186E-01 -0.59652744715E-01 -0.45740830105E-01  0.80698894127E-01  0.51100000000E-03 0. -1.
         11    1    4    4    0    0 -0.35832818948E-02 -0.37642621097E-01 -0.32402675968E-01  0.49799612078E-01  0.51100000000E-03 0.  1.
</event>
<event>
 8    1  0.1126414E+005  0.1043930E+01  0.7957747E-01            NaN
         13   -1    0    0    0    0  0.00000000000E+00  0.00000000000E+00  0.74505805969E-08  0.10566000000E+00  0.10566000000E+00 0. -1.
     999900   -1    0    0    0    0 -0.00000000000E+00 -0.00000000000E+00 -0.74505805969E-08  0.93827000000E+00  0.93827000000E+00 0. -1.
     999902    2    1    2    0    0 -0.20727535118E-01  0.13876983436E-01  0.14259557470E-02  0.10189453101E+01  0.10186389499E+01 0.  0.
     999903    2    3    3    0    0  0.95195670895E-01 -0.20758036955E-01 -0.78991553731E-01  0.12703458014E+00  0.20124789052E-01 0.  0.
         14    1    1    2    0    0  0.20727535118E-01 -0.13876983436E-01 -0.14259557470E-02  0.24984689935E-01  0.00000000000E+00 0.  1.
     999901    1    3    3    0    0 -0.11592320601E+00  0.34635020391E-01  0.80417509478E-01  0.89191072993E+00  0.88000000000E+00 0.  1.
        -11    1    4    4    0    0  0.22604654539E-01 -0.10281038825E-01 -0.11535224266E-01  0.27385994340E-01  0.51100000000E-03 0.  1.
         11    1    4    4    0    0  0.72591016356E-01 -0.10476998130E-01 -0.67456329465E-01  0.99648585797E-01  0.51100000000E-03 0. -1.
</event>
<event>
 7    1  0.1126414E+005  0.1043930E+01  0.7957747E-01            NaN
         13   -1    0    0    0    0  0.00000000000E+00  0.00000000000E+00  0.74505805969E-08  0.10566000000E+00  0.10566000000E+00 0. -1.
     999900   -1    0    0    0    0 -0.00000000000E+00 -0.00000000000E+00 -0.74505805969E-08  0.93827000000E+00  0.93827000000E+00 0.  1.
     999902    2    1    2    0    0 -0.14013488094E-01  0.35800290120E-02 -0.19422486084E-01  0.10197137364E+01  0.10194261507E+01 0.  0.
         14    1    1    2    0    0  0.14013488094E-01 -0.35800290120E-02  0.19422486084E-01  0.24216263584E-01  0.00000000000E+00 0. -1.
     999901    1    3    3    0    0 -0.12912508048E+00  0.41846158857E-01  0.24172209691E-01  0.89073491182E+00  0.88000000000E+00 0. -1.
        -11    1    3    3    0    0  0.76048176236E-01 -0.23735552676E-01 -0.30161266577E-01  0.85186059259E-01  0.51100000000E-03 0. -1.
         11    1    3    3    0    0  0.39063416153E-01 -0.14530577169E-01 -0.13433429199E-01  0.43792765332E-01  0.51100000000E-03 0.  1.
</event>
<event>
 8    1  0.1126414E+005  0.1043930E+01  0.7957747E-01            NaN
         13   -1    0    0    0    0  0.00000000000E+00  0.00000000000E+00  0.74505805969E-08  0.10566000000E+00  0.10566000000E+00 0. -1.
     999900   -1    0    0    0    0 -0.00000000000E+00 -0.00000000000E+00 -0.74505805969E-08  0.93827000000E+00  0.93827000000E+00 0.  1.
     999902    2    1    2    0    0  0.14880124614E-01 -0.19258693594E-02  0.16881465306E-01  0.10213443640E+01  0.10210946082E+01 0.  0.
     999903    2    3    3    0    0  0.11886665529E+00 -0.56780771388E-01  0.67190335201E-02  0.13346738277E+00  0.20372999598E-01 0.  0.
         14    1    1    2    0    0 -0.14880124614E-01  0.19258693594E-02 -0.16881465306E-01  0.22585635970E-01  0.00000000000E+00 0.  1.
     999901    1    3    3    0    0 -0.10398653067E+00  0.54854902028E-01  0.10162431786E-01  0.88787698126E+00  0.88000000000E+00 0. -1.
        -11    1    4    4    0    0  0.20220452997E-01 -0.14576170377E-01  0.79345088880E-02  0.26163887604E-01  0.51100000000E-03 0. -1.
         11    1    4    4    0    0  0.98646202290E-01 -0.42204601011E-01 -0.12154753679E-02  0.10730349516E+00  0.51100000000E-03 0.  1.
</event>
<event>
 8    1  0.1126414E+005  0.1043930E+01  0.7957747E-01            NaN
         13   -1    0    0    0    0  0.00000000000E+00  0.00000000000E+00  0.74505805969E-08  0.10566000000E+00  0.10566000000E+00 0.  1.
     999900   -1    0    0    0    0 -0.00000000000E+00 -0.00000000000E+00 -0.74505805969E-08  0.93827000000E+00  0.93827000000E+00 0. -1.
     999902    2    1    2    0    0  0.78366792443E-03  0.10567812104E-01 -0.20732255687E-01  0.10206465463E+01  0.10203809354E+01 0.  0.
     999903    2    3    3    0    0 -0.89662939141E-01 -0.90910574320E-01  0.11153398904E-01  0.12963860777E+00  0.19431807398E-01 0.  0.
         14    1    1    2    0    0 -0.78366792443E-03 -0.10567812104E-01  0.20732255687E-01  0.23283453652E-01  0.00000000000E+00 0.  1.
     999901    1    3    3    0    0  0.90446607065E-01  0.10147838642E+00 -0.31885654592E-01  0.89100793858E+00  0.88000000000E+00 0. -1.
        -11    1    4    4    0    0 -0.83496858840E-01 -0.81245971785E-01  0.15157456841E-01  0.11748465000E+00  0.51100000000E-03 0. -1.
         11    1    4    4    0    0 -0.61660803010E-02 -0.96646025351E-02 -0.40040579366E-02  0.12153957767E-01  0.51100000000E-03 0.  1.
</event>
<event>
 8    1  0.1126414E+005  0.1043930E+01  0.7957747E-01            NaN
         13   -1    0    0    0    0  0.00000000000E+00  0.00000000000E+00  0.74505805969E-08  0.10566000000E+00  0.10566000000E+00 0.  1.
     999900   -1    0    0    0    0 -0.00000000000E+00 -0.00000000000E+00 -0.74505805969E-08  0.93827000000E+00  0.93827000000E+00 0. -1.
     999902    2    1    2    0    0 -0.60031170660E-02  0.22676035300E-02  0.21927620131E-01  0.10210826815E+01  0.10208270384E+01 0.  0.
     999903    2    3    3    0    0  0.10349315119E+00 -0.13575852237E-01  0.78783584987E-01  0.13233465833E+00  0.20260119097E-01 0.  0.
         14    1    1    2    0    0  0.60031170660E-02 -0.22676035300E-02 -0.21927620131E-01  0.22847318550E-01  0.00000000000E+00 0. -1.
     999901    1    3    3    0    0 -0.10949626826E+00  0.15843455767E-01 -0.56855964856E-01  0.88874802312E+00  0.88000000000E+00 0.  1.
        -11    1    4    4    0    0  0.63394362648E-01 -0.54021198416E-02  0.35898602589E-01  0.73054766464E-01  0.51100000000E-03 0.  1.
         11    1    4    4    0    0  0.40098788542E-01 -0.81737323952E-02  0.42884982399E-01  0.59279891870E-01  0.51100000000E-03 0. -1.
</event>
<event>
 8    1  0.1126414E+005  0.1043930E+01  0.7957747E-01            NaN
         13   -1    0    0    0    0  0.00000000000E+00  0.00000000000E+00  0.74505805969E-08  0.10566000000E+00  0.10566000000E+00 0.  1.
     999900   -1    0    0    0    0 -0.00000000000E+00 -0.00000000000E+00 -0.74505805969E-08  0.93827000000E+00  0.93827000000E+00 0.  1.
     999902    2    1    2    0    0  0.19704086373E-01 -0.89969189573E-02 -0.58260739243E-02  0.10214992464E+01  0.10212529421E+01 0.  0.
     999903    2    3    3    0    0 -0.84570127478E-02  0.12520086548E+00  0.28655630044E-01  0.13021305174E+00  0.19685424303E-01 0.  0.
         14    1    1    2    0    0 -0.19704086373E-01  0.89969189573E-02  0.58260739243E-02  0.22430753618E-01  0.00000000000E+00 0.  1.
     999901    1    3    3    0    0  0.28161099120E-01 -0.13419778443E+00 -0.34481703968E-01  0.89128619464E+00  0.88000000000E+00 0.  1.
        -11    1    4    4    0    0 -0.94550613350E-02  0.26420215838E-01  0.35799607786E-02  0.28293165782E-01  0.51100000000E-03 0. -1.
         11    1    4    4    0    0  0.99804858719E-03  0.98780649637E-01  0.25075669265E-01  0.10191988596E+00  0.51100000000E-03 0.  1.
</event>
<event>
 8    1  0.1126414E+005  0.1043930E+01  0.7957747E-01            NaN
         13   -1    0    0    0    0  0.00000000000E+00  0.00000000000E+00  0.74505805969E-08  0.10566000000E+00  0.10566000000E+00 0. -1.
     999900   -1    0    0    0    0 -0.00000000000E+00 -0.00000000000E+00 -0.74505805969E-08  0.93827000000E+00  0.93827000000E+00 0.  1.
     999902    2    1    2    0    0  0.16617137551E-01 -0.13377922493E-01 -0.96738913864E-02  0.10205060327E+01  0.10202371687E+01 0.  0.
     999903    2    3    3    0    0 -0.52423209854E-02  0.10058057966E+00  0.77339335900E-01  0.12863402512E+00  0.20528141832E-01 0.  0.
         14    1    1    2    0    0 -0.16617137551E-01  0.13377922493E-01  0.96738913864E-02  0.23423967323E-01  0.00000000000E+00 0. -1.
     999901    1    3    3    0    0  0.21859458536E-01 -0.11395850215E+00 -0.87013227287E-01  0.89187200756E+00  0.88000000000E+00 0.  1.
        -11    1    4    4    0    0 -0.42398200897E-03  0.57297279458E-01  0.31441056195E-01  0.65360225900E-01  0.51100000000E-03 0. -1.
         11    1    4    4    0    0 -0.48183389765E-02  0.43283300202E-01  0.45898279705E-01  0.63273799220E-01  0.51100000000E-03 0.  1.
</event>
<event>
 8    1  0.1126414E+005  0.1043930E+01  0.7957747E-01            NaN
         13   -1    0    0    0    0  0.00000000000E+00  0.00000000000E+00  0.74505805969E-08  0.10566000000E+00  0.10566000000E+00 0.  1.
     999900   -1    0    0    0    0 -0.00000000000E+00 -0.00000000000E+00 -0.74505805969E-08  0.93827000000E+00  0.93827000000E+00 0. -1.
     999902    2    1    2    0    0  0.79284812826E-02 -0.20478348470E-01 -0.86925768880E-02  0.10203125390E+01  0.10200391624E+01 0.  0.
     999903    2    3    3    0    0 -0.64764780371E-01  0.28268788305E-01 -0.10775148806E+00  0.13043992928E+00  0.20263040305E-01 0.  0.
         14    1    1    2    0    0 -0.79284812826E-02  0.20478348470E-01  0.86925768880E-02  0.23617461008E-01  0.00000000000E+00 0.  1.
     999901    1    3    3    0    0  0.72693261653E-01 -0.48747136775E-01  0.99058911173E-01  0.88987260971E+00  0.88000000000E+00 0.  1.
        -11    1    4    4    0    0 -0.33804106905E-01  0.18933374947E-01 -0.74960321528E-01  0.84383062608E-01  0.51100000000E-03 0. -1.
         11    1    4    4    0    0 -0.30960673465E-01  0.93354133584E-02 -0.32791166533E-01  0.46056866672E-01  0.51100000000E-03 0.  1.
</event>
<event>
 8    1  0.1126414E+005  0.1043930E+01  0.7957747E-01            NaN
         13   -1    0    0    0    0  0.00000000000E+00  0.00000000000E+00  0.74505805969E-08  0.10566000000E+00  0.10566000000E+00 0.  1.
     999900   -1    0    0    0    0 -0.00000000000E+00 -0.00000000000E+00 -0.74505805969E-08  0.93827000000E+00  0.93827000000E+00 0. -1.
     999902    2    1    2    0    0  0.13824150583E-01 -0.15126478528E-01  0.12764075831E-01  0.10197879387E+01  0.10195021338E+01 0.  0.
     999903    2    3    3    0    0  0.12159168512E+00  0.38825104644E-01 -0.20938810221E-01  0.13093446407E+00  0.20334046998E-01 0.  0.
         14    1    1    2    0    0 -0.13824150583E-01  0.15126478528E-01 -0.12764075831E-01  0.24142061300E-01  0.00000000000E+00 0.  1.
     999901    1    3    3    0    0 -0.10776753454E+00 -0.53951583172E-01  0.33702886052E-01  0.88885347463E+00  0.88000000000E+00 0.  1.
        -11    1    4    4    0    0  0.61463600343E-01  0.25336306066E-01 -0.19536583292E-01  0.69293879816E-01  0.51100000000E-03 0.  1.
         11    1    4    4    0    0  0.60128084779E-01  0.13488798578E-01 -0.14022269286E-02  0.61640584257E-01  0.51100000000E-03 0. -1.
</event>
<event>
 8    1  0.1126414E+005  0.1043930E+01  0.7957747E-01            NaN
         13   -1    0    0    0    0  0.00000000000E+00  0.00000000000E+00  0.74505805969E-08  0.10566000000E+00  0.10566000000E+00 0.  1.
     999900   -1    0    0    0    0 -0.00000000000E+00 -0.00000000000E+00 -0.74505805969E-08  0.93827000000E+00  0.93827000000E+00 0.  1.
     999902    2    1    2    0    0  0.19003379497E-01 -0.14375844867E-01 -0.72396925445E-03  0.10200905898E+01  0.10198119895E+01 0.  0.
     999903    2    3    3    0    0  0.43608078972E-02 -0.53780023228E-02  0.12875086077E+00  0.13045072013E+00  0.19815818916E-01 0.  0.
         14    1    1    2    0    0 -0.19003379497E-01  0.14375844867E-01  0.72396925445E-03  0.23839410216E-01  0.00000000000E+00 0. -1.
     999901    1    3    3    0    0  0.14642571600E-01 -0.89978425443E-02 -0.12947483002E+00  0.88963986966E+00  0.88000000000E+00 0.  1.
        -11    1    4    4    0    0  0.11149233485E-01 -0.62808356375E-02  0.10325580668E+00  0.10404699437E+00  0.51100000000E-03 0.  1.
         11    1    4    4    0    0 -0.67884255878E-02  0.90283331476E-03  0.25495054088E-01  0.26403725758E-01  0.51100000000E-03 0. -1.
</event>
<event>
 8    1  0.1126414E+005  0.1043930E+01  0.7957747E-01            NaN
         13   -1    0    0    0    0  0.00000000000E+00  0.00000000000E+00  0.74505805969E-08  0.10566000000E+00  0.10566000000E+00 0.  1.
     999900   -1    0    0    0    0 -0.00000000000E+00 -0.00000000000E+00 -0.74505805969E-08  0.93827000000E+00  0.93827000000E+00 0.  1.
     999902    2    1    2    0    0  0.83685828127E-02  0.14820788993E-01 -0.16645457052E-01  0.10201232740E+01  0.10198454461E+01 0.  0.
     999903    2    3    3    0    0 -0.42276638531E-01 -0.16419854003E-01  0.11816011785E+00  0.12787137048E+00  0.18230418769E-01 0.  0.
         14    1    1    2    0    0 -0.83685828127E-02 -0.14820788993E-01  0.16645457052E-01  0.23806726048E-01  0.00000000000E+00 0.  1.
     999901    1    3    3    0    0  0.50645221344E-01  0.31240642996E-01 -0.13480557490E+00  0.89225190347E+00  0.88000000000E+00 0.  1.
        -11    1    4    4    0    0 -0.84283645506E-02  0.83891059247E-03  0.93940495838E-02  0.12659004248E-01  0.51100000000E-03 0. -1.
         11    1    4    4    0    0 -0.33848273981E-01 -0.17258764596E-01  0.10876606826E+00  0.11521236623E+00  0.51100000000E-03 0.  1.
</event>
<event>
 8    1  0.1126414E+005  0.1043930E+01  0.7957747E-01            NaN
         13   -1    0    0    0    0  0.00000000000E+00  0.00000000000E+00  0.74505805969E-08  0.10566000000E+00  0.10566000000E+00 0. -1.
     999900   -1    0    0    0    0 -0.00000000000E+00 -0.00000000000E+00 -0.74505805969E-08  0.93827000000E+00  0.93827000000E+00 0. -1.
     999902    2    1    2    0    0 -0.11687858191E-01  0.52068604370E-02 -0.22357730178E-01  0.10181698462E+01  0.10178439223E+01 0.  0.
     999903    2    3    3    0    0  0.10302415138E+00 -0.57718567096E-01  0.39738075699E-01  0.12633222440E+00  0.20864024175E-01 0.  0.
         14    1    1    2    0    0  0.11687858191E-01 -0.52068604370E-02  0.22357730178E-01  0.25760153793E-01  0.00000000000E+00 0. -1.
     999901    1    3    3    0    0 -0.11471200957E+00  0.62925427533E-01 -0.62095805877E-01  0.89183762181E+00  0.88000000000E+00 0. -1.
        -11    1    4    4    0    0  0.67492007076E-01 -0.47907181141E-01  0.31486240778E-01  0.88554579235E-01  0.51100000000E-03 0.  1.
         11    1    4    4    0    0  0.35532144307E-01 -0.98113859550E-02  0.82518349209E-02  0.37777645161E-01  0.51100000000E-03 0. -1.
</event>
<event>
 8    1  0.1126414E+005  0.1043930E+01  0.7957747E-01            NaN
         13   -1    0    0    0    0  0.00000000000E+00  0.00000000000E+00  0.74505805969E-08  0.10566000000E+00  0.10566000000E+00 0.  1.
     999900   -1    0    0    0    0 -0.00000000000E+00 -0.00000000000E+00 -0.74505805969E-08  0.93827000000E+00  0.93827000000E+00 0.  1.
     999902    2    1    2    0    0 -0.19381509306E-01 -0.11174282960E-01  0.64502054680E-03  0.10215486785E+01  0.10213034705E+01 0.  0.
     999903    2    3    3    0    0  0.13699850065E-01  0.49444291873E-01 -0.11873889218E+00  0.13080656843E+00  0.19468177537E-01 0.  0.
         14    1    1    2    0    0  0.19381509306E-01  0.11174282960E-01 -0.64502054680E-03  0.22381321546E-01  0.00000000000E+00 0.  1.
     999901    1    3    3    0    0 -0.33081359371E-01 -0.60618574833E-01  0.11938391273E+00  0.89074211002E+00  0.88000000000E+00 0. -1.
        -11    1    4    4    0    0  0.15703720014E-01  0.35269347720E-01 -0.69254902053E-01  0.79290833583E-01  0.51100000000E-03 0. -1.
         11    1    4    4    0    0 -0.20038699492E-02  0.14174944153E-01 -0.49483990130E-01  0.51515734846E-01  0.51100000000E-03 0.  1.
</event>
<event>
 8    1  0.1126414E+005  0.1043930E+01  0.7957747E-01            NaN
         13   -1    0    0    0    0  0.00000000000E+00  0.00000000000E+00  0.74505805969E-08  0.10566000000E+00  0.10566000000E+00 0. -1.
     999900   -1    0    0    0    0 -0.00000000000E+00 -0.00000000000E+00 -0.74505805969E-08  0.93827000000E+00  0.93827000000E+00 0.  1.
     999902    2    1    2    0    0 -0.21595616048E-01  0.90765951132E-02 -0.53615436032E-02  0.10198987420E+01  0.10196155857E+01 0.  0.
     999903    2    3    3    0    0 -0.88329117914E-01 -0.42223149227E-01 -0.86251321115E-01  0.13218922862E+00  0.21210242018E-01 0.  0.
         14    1    1    2    0    0  0.21595616048E-01 -0.90765951132E-02  0.53615436032E-02  0.24031258001E-01  0.00000000000E+00 0. -1.
     999901    1    3    3    0    0  0.66733501867E-01  0.51299744340E-01  0.80889777511E-01  0.88770951338E+00  0.88000000000E+00 0. -1.
        -11    1    4    4    0    0 -0.16783764087E-01 -0.14668624460E-01 -0.11407060890E-01  0.25044868528E-01  0.51100000000E-03 0. -1.
         11    1    4    4    0    0 -0.71545353828E-01 -0.27554524767E-01 -0.74844260225E-01  0.10714436009E+00  0.51100000000E-03 0.  1.
</event>
<event>
 8    1  0.1126414E+005  0.1043930E+01  0.7957747E-01            NaN
         13   -1    0    0    0    0  0.00000000000E+00  0.00000000000E+00  0.74505805969E-08  0.10566000000E+00  0.10566000000E+00 0.  1.
     999900   -1    0    0    0    0 -0.00000000000E+00 -0.00000000000E+00 -0.74505805969E-08  0.93827000000E+00  0.93827000000E+00 0. -1.
     999902    2    1    2    0    0 -0.51905252609E-02 -0.13154459645E-01 -0.63007624329E-02  0.10284483667E+01  0.10283318346E+01 0.  0.
     999903    2    3    3    0    0 -0.99922112244E-01  0.15660338690E-01  0.91132815113E-01  0.13755125248E+00  0.19633704303E-01 0.  0.
         14    1    1    2    0    0  0.51905252609E-02  0.13154459645E-01  0.63007624329E-02  0.15481633256E-01  0.00000000000E+00 0.  1.
     999901    1    3    3    0    0  0.94731586983E-01 -0.28814798335E-01 -0.97433577545E-01  0.89089711427E+00  0.88000000000E+00 0.  1.
        -11    1    4    4    0    0 -0.76602256343E-01  0.74491928651E-02  0.58853419832E-01  0.96888504468E-01  0.51100000000E-03 0. -1.
         11    1    4    4    0    0 -0.23319855902E-01  0.82111458249E-02  0.32279395281E-01  0.40662748010E-01  0.51100000000E-03 0.  1.
</event>
<event>
 8    1  0.1126414E+005  0.1043930E+01  0.7957747E-01            NaN
         13   -1    0    0    0    0  0.00000000000E+00  0.00000000000E+00  0.74505805969E-08  0.10566000000E+00  0.10566000000E+00 0. -1.
     999900   -1    0    0    0    0 -0.00000000000E+00 -0.00000000000E+00 -0.74505805969E-08  0.93827000000E+00  0.93827000000E+00 0. -1.
     999902    2    1    2    0    0  0.25127701520E-02  0.50841243384E-02 -0.22590339897E-01  0.10206386756E+01  0.10203728830E+01 0.  0.
     999903    2    3    3    0    0 -0.11302366374E+00  0.52360087992E-01 -0.37421954924E-01  0.13170467296E+00  0.20731396259E-01 0.  0.
         14    1    1    2    0    0 -0.25127701520E-02 -0.50841243384E-02  0.22590339897E-01  0.23291324368E-01  0.00000000000E+00 0.  1.
     999901    1    3    3    0    0  0.11553643389E+00 -0.47275963653E-01  0.14831615026E-01  0.88893400267E+00  0.88000000000E+00 0.  1.
        -11    1    4    4    0    0 -0.84168097568E-01  0.29203602113E-01 -0.23192900052E-01  0.92061342367E-01  0.51100000000E-03 0. -1.
         11    1    4    4    0    0 -0.28855566170E-01  0.23156485879E-01 -0.14229054872E-01  0.39643330597E-01  0.51100000000E-03 0.  1.
</event>
<event>
 8    1  0.1126414E+005  0.1043930E+01  0.7957747E-01            NaN
         13   -1    0    0    0    0  0.00000000000E+00  0.00000000000E+00  0.74505805969E-08  0.10566000000E+00  0.10566000000E+00 0.  1.
     999900   -1    0    0    0    0 -0.00000000000E+00 -0.00000000000E+00 -0.74505805969E-08  0.93827000000E+00  0.93827000000E+00 0. -1.
     999902    2    1    2    0    0 -0.20045886777E-01  0.12294712548E-01  0.40908936139E-02  0.10200609208E+01  0.10197816183E+01 0.  0.
     999903    2    3    3    0    0  0.59214721669E-01  0.22011625004E-01  0.10993013113E+00  0.13012912189E+00  0.29292656689E-01 0.  0.
         14    1    1    2    0    0  0.20045886777E-01 -0.12294712548E-01 -0.40908936139E-02  0.23869079242E-01  0.00000000000E+00 0.  1.
     999901    1    3    3    0    0 -0.79260608446E-01 -0.97169124561E-02 -0.10583923752E+00  0.88993179887E+00  0.88000000000E+00 0. -1.
        -11    1    4    4    0    0  0.30663196143E-01  0.75676041257E-02  0.81184068541E-01  0.87112653132E-01  0.51100000000E-03 0. -1.
         11    1    4    4    0    0  0.28551525525E-01  0.14444020878E-01  0.28746062589E-01  0.43016468757E-01  0.51100000000E-03 0.  1.
</event>
<event>
 8    1  0.1126414E+005  0.1043930E+01  0.7957747E-01            NaN
         13   -1    0    0    0    0  0.00000000000E+00  0.00000000000E+00  0.74505805969E-08  0.10566000000E+00  0.10566000000E+00 0.  1.
     999900   -1    0    0    0    0 -0.00000000000E+00 -0.00000000000E+00 -0.74505805969E-08  0.93827000000E+00  0.93827000000E+00 0.  1.
     999902    2    1    2    0    0 -0.65069986065E-02  0.16049484570E-01 -0.15221737988E-01  0.10208729340E+01  0.10206125215E+01 0.  0.
     999903    2    3    3    0    0 -0.10786246646E+00 -0.24249579625E-01  0.66545818740E-01  0.13037707281E+00  0.18640851364E-01 0.  0.
         14    1    1    2    0    0  0.65069986065E-02 -0.16049484570E-01  0.15221737988E-01  0.23057066015E-01  0.00000000000E+00 0. -1.
     999901    1    3    3    0    0  0.10135546785E+00  0.40299064195E-01 -0.81767556728E-01  0.89049586118E+00  0.88000000000E+00 0.  1.
        -11    1    4    4    0    0 -0.49712809369E-02 -0.41562101272E-02  0.79774307857E-02  0.10290201150E-01  0.51100000000E-03 0.  1.
         11    1    4    4    0    0 -0.10289118552E+00 -0.20093369498E-01  0.58568387954E-01  0.12008687166E+00  0.51100000000E-03 0. -1.
</event>
<event>
 8    1  0.1126414E+005  0.1043930E+01  0.7957747E-01            NaN
         13   -1    0    0    0    0  0.00000000000E+00  0.00000000000E+00  0.74505805969E-08  0.10566000000E+00  0.10566000000E+00 0.  1.
     999900   -1    0    0    0    0 -0.00000000000E+00 -0.00000000000E+00 -0.74505805969E-08  0.93827000000E+00  0.93827000000E+00 0. -1.
     999902    2    1    2    0    0  0.83514743913E-02  0.19972071854E-01 -0.12593251804E-01  0.10188856240E+01  0.10185777800E+01 0.  0.
     999903    2    3    3    0    0  0.10093925110E+00  0.80500435982E-01 -0.16126959043E-01  0.13195345841E+00  0.21967789415E-01 0.  0.
         14    1    1    2    0    0 -0.83514743913E-02 -0.19972071854E-01  0.12593251804E-01  0.25044376008E-01  0.00000000000E+00 0.  1.
     999901    1    3    3    0    0 -0.92587776710E-01 -0.60528364128E-01  0.35337072387E-02  0.88693216558E+00  0.88000000000E+00 0.  1.
        -11    1    4    4    0    0  0.28835810592E-01  0.36405409520E-01 -0.57024818185E-02  0.46793559757E-01  0.51100000000E-03 0.  1.
         11    1    4    4    0    0  0.72103440509E-01  0.44095026462E-01 -0.10424477224E-01  0.85159898652E-01  0.51100000000E-03 0. -1.
</event>
<event>
 8    1  0.1126414E+005  0.1043930E+01  0.7957747E-01            NaN
         13   -1    0    0    0    0  0.00000000000E+00  0.00000000000E+00  0.74505805969E-08  0.10566000000E+00  0.10566000000E+00 0. -1.
     999900   -1    0    0    0    0 -0.00000000000E+00 -0.00000000000E+00 -0.74505805969E-08  0.93827000000E+00  0.93827000000E+00 0.  1.
     999902    2    1    2    0    0 -0.10640166284E-01  0.42993740312E-02  0.12277385903E-01  0.10271242879E+01  0.10269867919E+01 0.  0.
     999903    2    3    3    0    0  0.43006711549E-01  0.79391292976E-01  0.10277577602E+00  0.13768247279E+00  0.15525737954E-01 0.  0.
         14    1    1    2    0    0  0.10640166284E-01 -0.42993740312E-02 -0.12277385903E-01  0.16805712131E-01  0.00000000000E+00 0.  1.
     999901    1    3    3    0    0 -0.53646877833E-01 -0.75091918945E-01 -0.90498390117E-01  0.88944181508E+00  0.88000000000E+00 0.  1.
        -11    1    4    4    0    0  0.17439827596E-01  0.23805053901E-01  0.24688268316E-01  0.38478564049E-01  0.51100000000E-03 0. -1.
         11    1    4    4    0    0  0.25566883953E-01  0.55586239074E-01  0.78087507705E-01  0.99203908744E-01  0.51100000000E-03 0.  1.
</event>
<event>
 8    1  0.1126414E+005  0.1043930E+01  0.7957747E-01            NaN
         13   -1    0    0    0    0  0.00000000000E+00  0.00000000000E+00  0.74505805969E-08  0.10566000000E+00  0.10566000000E+00 0. -1.
     999900   -1    0    0    0    0 -0.00000000000E+00 -0.00000000000E+00 -0.74505805969E-08  0.93827000000E+00  0.93827000000E+00 0. -1.
     999902    2    1    2    0    0 -0.66387429521E-02 -0.14991669466E-01 -0.16474042331E-01  0.10206874285E+01  0.10204227602E+01 0.  0.
     999903    2    3    3    0    0 -0.44127105149E-01  0.97455809799E-01  0.68486290075E-01  0.12868514652E+00  0.20607249549E-01 0.  0.
         14    1    1    2    0    0  0.66387429521E-02  0.14991669466E-01  0.16474042331E-01  0.23242571547E-01  0.00000000000E+00 0. -1.
     999901    1    3    3    0    0  0.37488362197E-01 -0.11244747927E+00 -0.84960332406E-01  0.89200228193E+00  0.88000000000E+00 0.  1.
        -11    1    4    4    0    0 -0.16510260974E-01  0.19464142866E-01  0.10264094553E-01  0.27514620349E-01  0.51100000000E-03 0.  1.
         11    1    4    4    0    0 -0.27616844175E-01  0.77991666933E-01  0.58222195522E-01  0.10117052617E+00  0.51100000000E-03 0. -1.
</event>
<event>
 8    1  0.1126414E+005  0.1043930E+01  0.7957747E-01            NaN
         13   -1    0    0    0    0  0.00000000000E+00  0.00000000000E+00  0.74505805969E-08  0.10566000000E+00  0.10566000000E+00 0. -1.
     999900   -1    0    0    0    0 -0.00000000000E+00 -0.00000000000E+00 -0.74505805969E-08  0.93827000000E+00  0.93827000000E+00 0.  1.
     999902    2    1    2    0    0  0.14252042038E-01  0.18654399988E-01 -0.50755450521E-03  0.10204488383E+01  0.10201786445E+01 0.  0.
     999903    2    3    3    0    0 -0.11367758423E+00  0.70262992363E-02 -0.58746977439E-01  0.12921764926E+00  0.16553896390E-01 0.  0.
         14    1    1    2    0    0 -0.14252042038E-01 -0.18654399988E-01  0.50755450521E-03  0.23481161656E-01  0.00000000000E+00 0.  1.
     999901    1    3    3    0    0  0.12792962627E+00  0.11628100752E-01  0.58239422934E-01  0.89123118908E+00  0.88000000000E+00 0. -1.
        -11    1    4    4    0    0 -0.51606290069E-01 -0.25487162119E-02 -0.19923846268E-01  0.55379832974E-01  0.51100000000E-03 0.  1.
         11    1    4    4    0    0 -0.62071294161E-01  0.95750154482E-02 -0.38823131171E-01  0.73837816291E-01  0.51100000000E-03 0. -1.
</event>
<event>
 8    1  0.1126414E+005  0.1043930E+01  0.7957747E-01            NaN
         13   -1    0    0    0    0  0.00000000000E+00  0.00000000000E+00  0.74505805969E-08  0.10566000000E+00  0.10566000000E+00 0. -1.
     999900   -1    0    0    0    0 -0.00000000000E+00 -0.00000000000E+00 -0.74505805969E-08  0.93827000000E+00  0.93827000000E+00 0.  1.
     999902    2    1    2    0    0  0.17176726308E-01  0.16301575114E-01 -0.16727363609E-02  0.10201901743E+01  0.10199139240E+01 0.  0.
     999903    2    3    3    0    0 -0.20330206336E-01 -0.12489839604E+00  0.39269907834E-03  0.12814282808E+00  0.20186717280E-01 0.  0.
         14    1    1    2    0    0 -0.17176726308E-01 -0.16301575114E-01  0.16727363609E-02  0.23739825711E-01  0.00000000000E+00 0. -1.
     999901    1    3    3    0    0  0.37506932644E-01  0.14119997115E+00 -0.20654354392E-02  0.89204734621E+00  0.88000000000E+00 0. -1.
        -11    1    4    4    0    0 -0.88627533803E-02 -0.30503189850E-01 -0.77619161771E-02  0.32703233055E-01  0.51100000000E-03 0.  1.
         11    1    4    4    0    0 -0.11467452956E-01 -0.94395206186E-01  0.81546152555E-02  0.95439595028E-01  0.51100000000E-03 0. -1.
</event>
<event>
 8    1  0.1126414E+005  0.1043930E+01  0.7957747E-01            NaN
         13   -1    0    0    0    0  0.00000000000E+00  0.00000000000E+00  0.74505805969E-08  0.10566000000E+00  0.10566000000E+00 0.  1.
     999900   -1    0    0    0    0 -0.00000000000E+00 -0.00000000000E+00 -0.74505805969E-08  0.93827000000E+00  0.93827000000E+00 0. -1.
     999902    2    1    2    0    0 -0.38870786277E-02  0.21924106155E-01 -0.71218800496E-02  0.10205527250E+01  0.10202849443E+01 0.  0.
     999903    2    3    3    0    0  0.20627746504E-01 -0.12109336480E+00  0.30533156138E-01  0.12787536145E+00  0.18185915363E-01 0.  0.
         14    1    1    2    0    0  0.38870786277E-02 -0.21924106155E-01  0.71218800496E-02  0.23377274999E-01  0.00000000000E+00 0.  1.
     999901    1    3    3    0    0 -0.24514825132E-01  0.14301747095E+00 -0.37655036187E-01  0.89267736355E+00  0.88000000000E+00 0.  1.
        -11    1    4    4    0    0  0.14453812409E-01 -0.97717811478E-01  0.31471900108E-01  0.10367461112E+00  0.51100000000E-03 0. -1.
         11    1    4    4    0    0  0.61739340959E-02 -0.23375553321E-01 -0.93874396982E-03  0.24200750330E-01  0.51100000000E-03 0.  1.
</event>
<event>
 8    1  0.1126414E+005  0.1043930E+01  0.7957747E-01            NaN
         13   -1    0    0    0    0  0.00000000000E+00  0.00000000000E+00  0.74505805969E-08  0.10566000000E+00  0.10566000000E+00 0.  1.
     999900   -1    0    0    0    0 -0.00000000000E+00 -0.00000000000E+00 -0.74505805969E-08  0.93827000000E+00  0.93827000000E+00 0. -1.
     999902    2    1    2    0    0  0.34346234345E-02  0.97016560784E-02  0.21456383022E-01  0.10201330434E+01  0.10198554462E+01 0.  0.
     999903    2    3    3    0    0  0.75364728001E-01  0.36272949443E-01  0.10175541402E+00  0.13315620725E+00  0.19515177670E-01 0.  0.
         14    1    1    2    0    0 -0.34346234345E-02 -0.97016560784E-02 -0.21456383022E-01  0.23796956553E-01  0.00000000000E+00 0. -1.
     999901    1    3    3    0    0 -0.71930104566E-01 -0.26571293365E-01 -0.80299030994E-01  0.88697683620E+00  0.88000000000E+00 0. -1.
        -11    1    4    4    0    0  0.16026818151E-01  0.15332898998E-01  0.34810126600E-01  0.41279083403E-01  0.51100000000E-03 0. -1.
         11    1    4    4    0    0  0.59337909849E-01  0.20940050445E-01  0.66945287416E-01  0.91877123846E-01  0.51100000000E-03 0.  1.
</event>
<event>
 8    1  0.1126414E+005  0.1043930E+01  0.7957747E-01            NaN
         13   -1    0    0    0    0  0.00000000000E+00  0.00000000000E+00  0.74505805969E-08  0.10566000000E+00  0.10566000000E+00 0.  1.
     999900   -1    0    0    0    0 -0.00000000000E+00 -0.00000000000E+00 -0.74505805969E-08  0.93827000000E+00  0.93827000000E+00 0. -1.
     999902    2    1    2    0    0  0.22110178818E-01  0.19853782705E-01  0.81013852474E-02  0.10131295919E+01  0.10126612982E+01 0.  0.
     999903    2    3    3    0    0  0.44639943358E-01  0.11461468293E+00  0.26498295085E-01  0.12756442504E+00  0.21006494366E-01 0.  0.
         14    1    1    2    0    0 -0.22110178818E-01 -0.19853782705E-01 -0.81013852474E-02  0.30800408081E-01  0.00000000000E+00 0.  1.
     999901    1    3    3    0    0 -0.22529764540E-01 -0.94760900229E-01 -0.18396909837E-01  0.88556516688E+00  0.88000000000E+00 0. -1.
        -11    1    4    4    0    0  0.16693745071E-01  0.47408622912E-01  0.47867320869E-03  0.50266777298E-01  0.51100000000E-03 0.  1.
         11    1    4    4    0    0  0.27946198287E-01  0.67206060022E-01  0.26019621876E-01  0.77297647739E-01  0.51100000000E-03 0. -1.
</event>
<event>
 8    1  0.1126414E+005  0.1043930E+01  0.7957747E-01            NaN
         13   -1    0    0    0    0  0.00000000000E+00  0.00000000000E+00  0.74505805969E-08  0.10566000000E+00  0.10566000000E+00 0. -1.
     999900   -1    0    0    0    0 -0.00000000000E+00 -0.00000000000E+00 -0.74505805969E-08  0.93827000000E+00  0.93827000000E+00 0.  1.
     999902    2    1    2    0    0  0.12651783013E-01  0.18721965842E-01 -0.13726381067E-02  0.10212923377E+01  0.10210414170E+01 0.  0.
     999903    2    3    3    0    0 -0.62843743127E-01 -0.57376208957E-01  0.95730380159E-01  0.12948546242E+00  0.18995101660E-01 0.  0.
         14    1    1    2    0    0 -0.12651783013E-01 -0.18721965842E-01  0.13726381067E-02  0.22637662285E-01  0.00000000000E+00 0. -1.
     999901    1    3    3    0    0  0.75495526140E-01  0.76098174798E-01 -0.97103018266E-01  0.89180687530E+00  0.88000000000E+00 0.  1.
        -11    1    4    4    0    0 -0.12943340766E-01 -0.22365921988E-01  0.23111176779E-01  0.34672065841E-01  0.51100000000E-03 0. -1.
         11    1    4    4    0    0 -0.49900402361E-01 -0.35010286968E-01  0.72619203380E-01  0.94813396575E-01  0.51100000000E-03 0.  1.
</event>
<event>
 8    1  0.1126414E+005  0.1043930E+01  0.7957747E-01            NaN
         13   -1    0    0    0    0  0.00000000000E+00  0.00000000000E+00  0.74505805969E-08  0.10566000000E+00  0.10566000000E+00 0.  1.
     999900   -1    0    0    0    0 -0.00000000000E+00 -0.00000000000E+00 -0.74505805969E-08  0.93827000000E+00  0.93827000000E+00 0. -1.
     999902    2    1    2    0    0  0.20112530589E-01 -0.11316368271E-01  0.35556341571E-02  0.10205801261E+01  0.10203129800E+01 0.  0.
     999903    2    3    3    0    0  0.10881496556E+00  0.38371640639E-01  0.62588792790E-01  0.13276148806E+00  0.19879039076E-01 0.  0.
         14    1    1    2    0    0 -0.20112530589E-01  0.11316368271E-01 -0.35556341571E-02  0.23349873914E-01  0.00000000000E+00 0. -1.
     999901    1    3    3    0    0 -0.88702434973E-01 -0.49688008910E-01 -0.59033158633E-01  0.88781863802E+00  0.88000000000E+00 0. -1.
        -11    1    4    4    0    0  0.39468171766E-01  0.42348232171E-02  0.18802502258E-01  0.43925681809E-01  0.51100000000E-03 0. -1.
         11    1    4    4    0    0  0.69346793796E-01  0.34136817422E-01  0.43786290532E-01  0.88835806255E-01  0.51100000000E-03 0.  1.
</event>
<event>
 8    1  0.1126414E+005  0.1043930E+01  0.7957747E-01            NaN
         13   -1    0    0    0    0  0.00000000000E+00  0.00000000000E+00  0.74505805969E-08  0.10566000000E+00  0.10566000000E+00 0.  1.
     999900   -1    0    0    0    0 -0.00000000000E+00 -0.00000000000E+00 -0.74505805969E-08  0.93827000000E+00  0.93827000000E+00 0.  1.
     999902    2    1    2    0    0 -0.18457683246E-01  0.91663401773E-03  0.14402536993E-01  0.10205001182E+01  0.10202311169E+01 0.  0.
     999903    2    3    3    0    0  0.64300156164E-01 -0.63626151850E-01  0.92316998301E-01  0.13084552542E+00  0.20379550187E-01 0.  0.
         14    1    1    2    0    0  0.18457683246E-01 -0.91663401773E-03 -0.14402536993E-01  0.23429881787E-01  0.00000000000E+00 0. -1.
     999901    1    3    3    0    0 -0.82757839410E-01  0.64542785868E-01 -0.77914461308E-01  0.88965459279E+00  0.88000000000E+00 0.  1.
        -11    1    4    4    0    0  0.28640397116E-01 -0.15498565007E-01  0.27948435984E-01  0.42916827226E-01  0.51100000000E-03 0. -1.
         11    1    4    4    0    0  0.35659759048E-01 -0.48127586844E-01  0.64368562317E-01  0.87928698196E-01  0.51100000000E-03 0.  1.
</event>
<event>
 8    1  0.1126414E+005  0.1043930E+01  0.7957747E-01            NaN
         13   -1    0    0    0    0  0.00000000000E+00  0.00000000000E+00  0.74505805969E-08  0.10566000000E+00  0.10566000000E+00 0.  1.
     999900   -1    0    0    0    0 -0.00000000000E+00 -0.00000000000E+00 -0.74505805969E-08  0.93827000000E+00  0.93827000000E+00 0. -1.
     999902    2    1    2    0    0 -0.48438894181E-03 -0.22321394316E-01 -0.58228177784E-02  0.10208565416E+01  0.10205957544E+01 0.  0.
     999903    2    3    3    0    0  0.10955898211E+00 -0.69902505137E-01  0.49429570925E-02  0.13266207665E+00  0.26177527950E-01 0.  0.
         14    1    1    2    0    0  0.48438894181E-03  0.22321394316E-01  0.58228177784E-02  0.23073458426E-01  0.00000000000E+00 0.  1.
     999901    1    3    3    0    0 -0.11004337105E+00  0.47581110821E-01 -0.10765774871E-01  0.88819446493E+00  0.88000000000E+00 0.  1.
        -11    1    4    4    0    0  0.38200236876E-01 -0.24241858246E-01  0.14242857585E-01  0.47434648748E-01  0.51100000000E-03 0.  1.
         11    1    4    4    0    0  0.71358745235E-01 -0.45660646891E-01 -0.92999004929E-02  0.85227427898E-01  0.51100000000E-03 0. -1.
</event>
<event>
 8    1  0.1126414E+005  0.1043930E+01  0.7957747E-01            NaN
         13   -1    0    0    0    0  0.00000000000E+00  0.00000000000E+00  0.74505805969E-08  0.10566000000E+00  0.10566000000E+00 0.  1.
     999900   -1    0    0    0    0 -0.00000000000E+00 -0.00000000000E+00 -0.74505805969E-08  0.93827000000E+00  0.93827000000E+00 0.  1.
     999902    2    1    2    0    0  0.15226010789E-01  0.11249087594E-01 -0.13153692905E-01  0.10208780367E+01  0.10206177408E+01 0.  0.
     999903    2    3    3    0    0  0.13052160115E+00  0.54544348655E-02  0.14353374491E-01  0.13291222094E+00  0.19849430448E-01 0.  0.
         14    1    1    2    0    0 -0.15226010789E-01 -0.11249087594E-01  0.13153692905E-01  0.23051963328E-01  0.00000000000E+00 0.  1.
     999901    1    3    3    0    0 -0.11529559036E+00  0.57946527288E-02 -0.27507067396E-01  0.88796581573E+00  0.88000000000E+00 0. -1.
        -11    1    4    4    0    0  0.74018741155E-01  0.11982508763E-01  0.12362591071E-01  0.75996377134E-01  0.51100000000E-03 0.  1.
         11    1    4    4    0    0  0.56502859993E-01 -0.65280738979E-02  0.19907834204E-02  0.56915843803E-01  0.51100000000E-03 0. -1.
</event>
<event>
 8    1  0.1126414E+005  0.1043930E+01  0.7957747E-01            NaN
         13   -1    0    0    0    0  0.00000000000E+00  0.00000000000E+00  0.74505805969E-08  0.10566000000E+00  0.10566000000E+00 0.  1.
     999900   -1    0    0    0    0 -0.00000000000E+00 -0.00000000000E+00 -0.74505805969E-08  0.93827000000E+00  0.93827000000E+00 0.  1.
     999902    2    1    2    0    0  0.19495390923E-01  0.11812211329E-01  0.55054335675E-02  0.10204798741E+01  0.10202104024E+01 0.  0.
     999903    2    3    3    0    0  0.10985874025E+00 -0.61487414388E-02 -0.70644929049E-01  0.13239935502E+00  0.20787818046E-01 0.  0.
         14    1    1    2    0    0 -0.19495390923E-01 -0.11812211329E-01 -0.55054335675E-02  0.23450125852E-01  0.00000000000E+00 0.  1.
     999901    1    3    3    0    0 -0.90363349328E-01  0.17960952767E-01  0.76150362617E-01  0.88808051913E+00  0.88000000000E+00 0. -1.
        -11    1    4    4    0    0  0.19285460200E-01 -0.91358075193E-02 -0.14058714237E-01  0.25559744153E-01  0.51100000000E-03 0.  1.
         11    1    4    4    0    0  0.90573280050E-01  0.29870660805E-02 -0.56586214812E-01  0.10683961087E+00  0.51100000000E-03 0. -1.
</event>
<event>
 8    1  0.1126414E+005  0.1043930E+01  0.7957747E-01            NaN
         13   -1    0    0    0    0  0.00000000000E+00  0.00000000000E+00  0.74505805969E-08  0.10566000000E+00  0.10566000000E+00 0.  1.
     999900   -1    0    0    0    0 -0.00000000000E+00 -0.00000000000E+00 -0.74505805969E-08  0.93827000000E+00  0.93827000000E+00 0. -1.
     999902    2    1    2    0    0  0.20786773991E-01 -0.98555991038E-02 -0.23174534070E-02  0.10208087241E+01  0.10205468426E+01 0.  0.
     999903    2    3    3    0    0  0.34341225596E-01 -0.90498714050E-01  0.88161017841E-01  0.13239812712E+00  0.19686593899E-01 0.  0.
         14    1    1    2    0    0 -0.20786773991E-01  0.98555991038E-02  0.23174534070E-02  0.23121275850E-01  0.00000000000E+00 0.  1.
     999901    1    3    3    0    0 -0.13554451604E-01  0.80643114946E-01 -0.90478471248E-01  0.88841059702E+00  0.88000000000E+00 0. -1.
        -11    1    4    4    0    0  0.25940800717E-01 -0.40708854524E-01  0.42317744564E-01  0.64196484362E-01  0.51100000000E-03 0.  1.
         11    1    4    4    0    0  0.84004248782E-02 -0.49789859526E-01  0.45843273278E-01  0.68201642763E-01  0.51100000000E-03 0. -1.
</event>
<event>
 8    1  0.1126414E+005  0.1043930E+01  0.7957747E-01            NaN
         13   -1    0    0    0    0  0.00000000000E+00  0.00000000000E+00  0.74505805969E-08  0.10566000000E+00  0.10566000000E+00 0.  1.
     999900   -1    0    0    0    0 -0.00000000000E+00 -0.00000000000E+00 -0.74505805969E-08  0.93827000000E+00  0.93827000000E+00 0. -1.
     999902    2    1    2    0    0  0.32207172607E-02  0.18730160731E-01 -0.82296047105E-02  0.10232196563E+01  0.10230100424E+01 0.  0.
     999903    2    3    3    0    0 -0.98482153364E-01  0.88803207833E-01  0.84965462554E-02  0.13443764148E+00  0.20409407024E-01 0.  0.
         14    1    1    2    0    0 -0.32207172607E-02 -0.18730160731E-01  0.82296047105E-02  0.20710343656E-01  0.00000000000E+00 0. -1.
     999901    1    3    3    0    0  0.10170287062E+00 -0.70073047103E-01 -0.16726150966E-01  0.88878201487E+00  0.88000000000E+00 0. -1.
        -11    1    4    4    0    0 -0.49444697540E-01  0.54367157204E-01  0.11762226045E-01  0.74425647325E-01  0.51100000000E-03 0. -1.
         11    1    4    4    0    0 -0.49037455823E-01  0.34436050630E-01 -0.32656797899E-02  0.60011994152E-01  0.51100000000E-03 0.  1.
</event>
<event>
 8    1  0.1126414E+005  0.1043930E+01  0.7957747E-01            NaN
         13   -1    0    0    0    0  0.00000000000E+00  0.00000000000E+00  0.74505805969E-08  0.10566000000E+00  0.10566000000E+00 0. -1.
     999900   -1    0    0    0    0 -0.00000000000E+00 -0.00000000000E+00 -0.74505805969E-08  0.93827000000E+00  0.93827000000E+00 0.  1.
     999902    2    1    2    0    0  0.18693868644E-01 -0.78350076435E-02 -0.12467467836E-01  0.10201332392E+01  0.10198556466E+01 0.  0.
     999903    2    3    3    0    0  0.10565825789E+00  0.54143126145E-01  0.52296355054E-01  0.13131467122E+00  0.20334418002E-01 0.  0.
         14    1    1    2    0    0 -0.18693868644E-01  0.78350076435E-02  0.12467467836E-01  0.23796760786E-01  0.00000000000E+00 0. -1.
     999901    1    3    3    0    0 -0.86964389245E-01 -0.61978133788E-01 -0.64763822890E-01  0.88881856800E+00  0.88000000000E+00 0.  1.
        -11    1    4    4    0    0  0.65985945673E-01  0.27307860844E-01  0.40035461475E-01  0.81871628704E-01  0.51100000000E-03 0.  1.
         11    1    4    4    0    0  0.39672312216E-01  0.26835265301E-01  0.12260893580E-01  0.49443042511E-01  0.51100000000E-03 0. -1.
</event>
<event>
 8    1  0.1126414E+005  0.1043930E+01  0.7957747E-01            NaN
         13   -1    0    0    0    0  0.00000000000E+00  0.00000000000E+00  0.74505805969E-08  0.10566000000E+00  0.10566000000E+00 0.  1.
     999900   -1    0    0    0    0 -0.00000000000E+00 -0.00000000000E+00 -0.74505805969E-08  0.93827000000E+00  0.93827000000E+00 0.  1.
     999902    2    1    2    0    0  0.27428974524E-01 -0.15479653402E-02  0.59951701324E-02  0.10158108445E+01  0.10154215799E+01 0.  0.
     999903    2    3    3    0    0 -0.89447254727E-01  0.32689132941E-01 -0.76127185072E-01  0.12363579830E+00  0.20520027396E-01 0.  0.
         14    1    1    2    0    0 -0.27428974524E-01  0.15479653402E-02 -0.59951701324E-02  0.28119155483E-01  0.00000000000E+00 0. -1.
     999901    1    3    3    0    0  0.11687622925E+00 -0.34237098281E-01  0.82122355204E-01  0.89217504621E+00  0.88000000000E+00 0. -1.
        -11    1    4    4    0    0 -0.19344361899E-02  0.42362266685E-02 -0.88603466105E-03  0.47680014871E-02  0.51100000000E-03 0. -1.
         11    1    4    4    0    0 -0.87512818537E-01  0.28452906272E-01 -0.75241150411E-01  0.11886779682E+00  0.51100000000E-03 0.  1.
</event>
<event>
 8    1  0.1126414E+005  0.1043930E+01  0.7957747E-01            NaN
         13   -1    0    0    0    0  0.00000000000E+00  0.00000000000E+00  0.74505805969E-08  0.10566000000E+00  0.10566000000E+00 0. -1.
     999900   -1    0    0    0    0 -0.00000000000E+00 -0.00000000000E+00 -0.74505805969E-08  0.93827000000E+00  0.93827000000E+00 0.  1.
     999902    2    1    2    0    0  0.10759282377E-01  0.13205744667E-01  0.16839513394E-01  0.10199774832E+01  0.10196962014E+01 0.  0.
     999903    2    3    3    0    0  0.89578378510E-01  0.95076851928E-01  0.14372979451E-01  0.13266614444E+00  0.18161213396E-01 0.  0.
         14    1    1    2    0    0 -0.10759282377E-01 -0.13205744667E-01 -0.16839513394E-01  0.23952516795E-01  0.00000000000E+00 0.  1.
     999901    1    3    3    0    0 -0.78819096133E-01 -0.81871107261E-01  0.24665339427E-02  0.88731133877E+00  0.88000000000E+00 0.  1.
        -11    1    4    4    0    0  0.68503961166E-01  0.64218118267E-01  0.16030704750E-01  0.95257566760E-01  0.51100000000E-03 0. -1.
         11    1    4    4    0    0  0.21074417344E-01  0.30858733661E-01 -0.16577252992E-02  0.37408577675E-01  0.51100000000E-03 0.  1.
</event>
<event>
 8    1  0.1126414E+005  0.1043930E+01  0.7957747E-01            NaN
         13   -1    0    0    0    0  0.00000000000E+00  0.00000000000E+00  0.74505805969E-08  0.10566000000E+00  0.10566000000E+00 0.  1.
     999900   -1    0    0    0    0 -0.00000000000E+00 -0.00000000000E+00 -0.74505805969E-08  0.93827000000E+00  0.93827000000E+00 0. -1.
     999902    2    1    2    0    0 -0.15780542176E-01 -0.14809826356E-01 -0.13005227257E-01  0.10186813881E+01  0.10183684392E+01 0.  0.
     999903    2    3    3    0    0 -0.94952539694E-01 -0.89184887108E-01 -0.88945850545E-02  0.13199274361E+00  0.19314291047E-01 0.  0.
         14    1    1    2    0    0  0.15780542176E-01  0.14809826356E-01  0.13005227257E-01  0.25248611924E-01  0.00000000000E+00 0.  1.
     999901    1    3    3    0    0  0.79171997518E-01  0.74375060752E-01 -0.41106422021E-02  0.88668864447E+00  0.88000000000E+00 0.  1.
        -11    1    4    4    0    0 -0.61235745941E-01 -0.63883543565E-01  0.17538618768E-02  0.88511360129E-01  0.51100000000E-03 0. -1.
         11    1    4    4    0    0 -0.33716793753E-01 -0.25301343542E-01 -0.10648446931E-01  0.43481383477E-01  0.51100000000E-03 0.  1.
</event>
<event>
 8    1  0.1783767E+005  0.1043930E+01  0.7957747E-01            NaN
         13   -1    0    0    0    0  0.00000000000E+00  0.00000000000E+00  0.74505805969E-08  0.10566000000E+00  0.10566000000E+00 0.  1.
     999900   -1    0    0    0    0 -0.00000000000E+00 -0.00000000000E+00 -0.74505805969E-08  0.93827000000E+00  0.93827000000E+00 0.  1.
     999902    2    1    2    0    0  0.71282131245E-02 -0.15349371213E-01 -0.15264672847E-01  0.10211391059E+01  0.10208847382E+01 0.  0.
     999903    2    3    3    0    0 -0.11698765969E+00 -0.12326358183E-01 -0.55311575187E-01  0.13152253514E+00  0.20018872972E-01 0.  0.
         14    1    1    2    0    0 -0.71282131245E-02  0.15349371213E-01  0.15264672847E-01  0.22790894149E-01  0.00000000000E+00 0.  1.
     999901    1    3    3    0    0  0.12411587281E+00 -0.30230130301E-02  0.40046902340E-01  0.88961657071E+00  0.88000000000E+00 0. -1.
        -11    1    4    4    0    0 -0.69199037900E-01 -0.15181332458E-01 -0.26471557931E-01  0.75630577161E-01  0.51100000000E-03 0. -1.
         11    1    4    4    0    0 -0.47788621789E-01  0.28549742753E-02 -0.28840017256E-01  0.55891957981E-01  0.51100000000E-03 0.  1.
</event>
<event>
 8    1  0.1126414E+005  0.1043930E+01  0.7957747E-01            NaN
         13   -1    0    0    0    0  0.00000000000E+00  0.00000000000E+00  0.74505805969E-08  0.10566000000E+00  0.10566000000E+00 0.  1.
     999900   -1    0    0    0    0 -0.00000000000E+00 -0.00000000000E+00 -0.74505805969E-08  0.93827000000E+00  0.93827000000E+00 0. -1.
     999902    2    1    2    0    0  0.19036357111E-02 -0.86071251707E-02 -0.22758074939E-01  0.10195243366E+01  0.10192321799E+01 0.  0.
     999903    2    3    3    0    0 -0.10739763889E+00 -0.47032040426E-01 -0.55314327831E-01  0.13133339294E+00  0.21036149139E-01 0.  0.
         14    1    1    2    0    0 -0.19036357111E-02  0.86071251707E-02  0.22758074939E-01  0.24405663432E-01  0.00000000000E+00 0.  1.
     999901    1    3    3    0    0  0.10930127461E+00  0.38424915256E-01  0.32556252892E-01  0.88819094363E+00  0.88000000000E+00 0. -1.
        -11    1    4    4    0    0 -0.71156969330E-01 -0.20322935175E-01 -0.31903266565E-01  0.80587936547E-01  0.51100000000E-03 0.  1.
         11    1    4    4    0    0 -0.36240669565E-01 -0.26709105252E-01 -0.23411061265E-01  0.50745456392E-01  0.51100000000E-03 0. -1.
</event>
<event>
 8    1  0.1126414E+005  0.1043930E+01  0.7957747E-01            NaN
         13   -1    0    0    0    0  0.00000000000E+00  0.00000000000E+00  0.74505805969E-08  0.10566000000E+00  0.10566000000E+00 0. -1.
     999900   -1    0    0    0    0 -0.00000000000E+00 -0.00000000000E+00 -0.74505805969E-08  0.93827000000E+00  0.93827000000E+00 0.  1.
     999902    2    1    2    0    0  0.32407139503E-02  0.83224682763E-02 -0.21837941746E-01  0.10203363270E+01  0.10200635073E+01 0.  0.
     999903    2    3    3    0    0  0.89260945441E-01 -0.12451807212E-01 -0.95453506264E-01  0.13283967796E+00  0.20308724692E-01 0.  0.
         14    1    1    2    0    0 -0.32407139503E-02 -0.83224682763E-02  0.21837941746E-01  0.23593672983E-01  0.00000000000E+00 0. -1.
     999901    1    3    3    0    0 -0.86020231491E-01  0.20774275489E-01  0.73615564517E-01  0.88749664906E+00  0.88000000000E+00 0. -1.
        -11    1    4    4    0    0  0.34890949551E-01 -0.14852056979E-01 -0.41025632325E-01  0.55868824810E-01  0.51100000000E-03 0. -1.
         11    1    4    4    0    0  0.54369995890E-01  0.24002497665E-02 -0.54427873939E-01  0.76970853150E-01  0.51100000000E-03 0.  1.
</event>
<event>
 8    1  0.1126414E+005  0.1043930E+01  0.7957747E-01            NaN
         13   -1    0    0    0    0  0.00000000000E+00  0.00000000000E+00  0.74505805969E-08  0.10566000000E+00  0.10566000000E+00 0.  1.
     999900   -1    0    0    0    0 -0.00000000000E+00 -0.00000000000E+00 -0.74505805969E-08  0.93827000000E+00  0.93827000000E+00 0.  1.
     999902    2    1    2    0    0  0.54413774980E-03 -0.20053160717E-01  0.12107563788E-01  0.10204988574E+01  0.10202298269E+01 0.  0.
     999903    2    3    3    0    0 -0.17477565738E-01 -0.43559650184E-01  0.12286529065E+00  0.13306175494E+00  0.20165380029E-01 0.  0.
         14    1    1    2    0    0 -0.54413774980E-03  0.20053160717E-01 -0.12107563788E-01  0.23431142557E-01  0.00000000000E+00 0. -1.
     999901    1    3    3    0    0  0.18021703488E-01  0.23506489467E-01 -0.11075772686E+00  0.88743710251E+00  0.88000000000E+00 0.  1.
        -11    1    4    4    0    0 -0.92508162691E-02 -0.41373371668E-01  0.10595394610E+00  0.11412201058E+00  0.51100000000E-03 0.  1.
         11    1    4    4    0    0 -0.82267494692E-02 -0.21862785164E-02  0.16911344553E-01  0.18939744353E-01  0.51100000000E-03 0. -1.
</event>
<event>
 8    1  0.1126414E+005  0.1043930E+01  0.7957747E-01            NaN
         13   -1    0    0    0    0  0.00000000000E+00  0.00000000000E+00  0.74505805969E-08  0.10566000000E+00  0.10566000000E+00 0. -1.
     999900   -1    0    0    0    0 -0.00000000000E+00 -0.00000000000E+00 -0.74505805969E-08  0.93827000000E+00  0.93827000000E+00 0. -1.
     999902    2    1    2    0    0 -0.20261738862E-01 -0.11294030380E-01  0.55164884608E-03  0.10207266058E+01  0.10204628393E+01 0.  0.
     999903    2    3    3    0    0  0.11395585628E+00  0.40228386020E-01 -0.37819542597E-01  0.12823499772E+00  0.20239481610E-01 0.  0.
         14    1    1    2    0    0  0.20261738862E-01  0.11294030380E-01 -0.55164884608E-03  0.23203394157E-01  0.00000000000E+00 0.  1.
     999901    1    3    3    0    0 -0.13421759514E+00 -0.51522416400E-01  0.38371191443E-01  0.89249160812E+00  0.88000000000E+00 0.  1.
        -11    1    4    4    0    0  0.21861387761E-01  0.13278802911E-01 -0.14785922119E-02  0.25626046076E-01  0.51100000000E-03 0.  1.
         11    1    4    4    0    0  0.92094468519E-01  0.26949583108E-01 -0.36340950385E-01  0.10260895164E+00  0.51100000000E-03 0. -1.
</event>
<event>
 8    1  0.1126414E+005  0.1043930E+01  0.7957747E-01            NaN
         13   -1    0    0    0    0  0.00000000000E+00  0.00000000000E+00  0.74505805969E-08  0.10566000000E+00  0.10566000000E+00 0.  1.
     999900   -1    0    0    0    0 -0.00000000000E+00 -0.00000000000E+00 -0.74505805969E-08  0.93827000000E+00  0.93827000000E+00 0. -1.
     999902    2    1    2    0    0 -0.63117881309E-02  0.22726128224E-01  0.11036700488E-02  0.10203178493E+01  0.10200445970E+01 0.  0.
     999903    2    3    3    0    0  0.11185368529E+00  0.43974199260E-01 -0.47610850810E-01  0.13083054518E+00  0.20121166059E-01 0.  0.
         14    1    1    2    0    0  0.63117881309E-02 -0.22726128224E-01 -0.11036700488E-02  0.23612150708E-01  0.00000000000E+00 0.  1.
     999901    1    3    3    0    0 -0.11816547342E+00 -0.21248071036E-01  0.48714520858E-01  0.88948730411E+00  0.88000000000E+00 0.  1.
        -11    1    4    4    0    0  0.48830083520E-01  0.15004456889E-01 -0.10468817524E-01  0.52147560292E-01  0.51100000000E-03 0.  1.
         11    1    4    4    0    0  0.63023601772E-01  0.28969742371E-01 -0.37142033286E-01  0.78682984889E-01  0.51100000000E-03 0. -1.
</event>
<event>
 8    1  0.1126414E+005  0.1043930E+01  0.7957747E-01            NaN
         13   -1    0    0    0    0  0.00000000000E+00  0.00000000000E+00  0.74505805969E-08  0.10566000000E+00  0.10566000000E+00 0.  1.
     999900   -1    0    0    0    0 -0.00000000000E+00 -0.00000000000E+00 -0.74505805969E-08  0.93827000000E+00  0.93827000000E+00 0. -1.
     999902    2    1    2    0    0 -0.18304303296E-01  0.85760992557E-02 -0.11926830835E-01  0.10204598851E+01  0.10201899484E+01 0.  0.
     999903    2    3    3    0    0  0.59970083429E-01 -0.10026081493E+00 -0.53057708215E-01  0.12935713990E+00  0.16416678293E-01 0.  0.
         14    1    1    2    0    0  0.18304303296E-01 -0.85760992557E-02  0.11926830835E-01  0.23470114856E-01  0.00000000000E+00 0.  1.
     999901    1    3    3    0    0 -0.78274386725E-01  0.10883691418E+00  0.41130877380E-01  0.89110274524E+00  0.88000000000E+00 0.  1.
        -11    1    4    4    0    0  0.44333527321E-01 -0.85894022563E-01 -0.45223779035E-01  0.10671783388E+00  0.51100000000E-03 0.  1.
         11    1    4    4    0    0  0.15636556108E-01 -0.14366792364E-01 -0.78339291798E-02  0.22639306021E-01  0.51100000000E-03 0. -1.
</event>
<event>
 8    1  0.1126414E+005  0.1043930E+01  0.7957747E-01            NaN
         13   -1    0    0    0    0  0.00000000000E+00  0.00000000000E+00  0.74505805969E-08  0.10566000000E+00  0.10566000000E+00 0.  1.
     999900   -1    0    0    0    0 -0.00000000000E+00 -0.00000000000E+00 -0.74505805969E-08  0.93827000000E+00  0.93827000000E+00 0. -1.
     999902    2    1    2    0    0  0.48001662559E-02  0.96103907605E-02  0.21445806132E-01  0.10199440915E+01  0.10196620155E+01 0.  0.
     999903    2    3    3    0    0  0.28614967331E-01 -0.12400913975E+00  0.12054436053E-01  0.12948942025E+00  0.20618376054E-01 0.  0.
         14    1    1    2    0    0 -0.48001662559E-02 -0.96103907605E-02 -0.21445806132E-01  0.23985908515E-01  0.00000000000E+00 0. -1.
     999901    1    3    3    0    0 -0.23814801075E-01  0.13361953052E+00  0.93913700783E-02  0.89045467123E+00  0.88000000000E+00 0. -1.
        -11    1    4    4    0    0  0.17717611413E-01 -0.76324911324E-01  0.17452808001E-01  0.80276194921E-01  0.51100000000E-03 0. -1.
         11    1    4    4    0    0  0.10897355918E-01 -0.47684228430E-01 -0.53983719477E-02  0.49213225333E-01  0.51100000000E-03 0.  1.
</event>
<event>
 8    1  0.1126414E+005  0.1043930E+01  0.7957747E-01            NaN
         13   -1    0    0    0    0  0.00000000000E+00  0.00000000000E+00  0.74505805969E-08  0.10566000000E+00  0.10566000000E+00 0. -1.
     999900   -1    0    0    0    0 -0.00000000000E+00 -0.00000000000E+00 -0.74505805969E-08  0.93827000000E+00  0.93827000000E+00 0.  1.
     999902    2    1    2    0    0  0.86195490211E-02 -0.19316744489E-01  0.47664516325E-02  0.10222470043E+01  0.10220170182E+01 0.  0.
     999903    2    3    3    0    0  0.71872488761E-01  0.48881676619E-01  0.98172920019E-01  0.13242863664E+00  0.18556632957E-01 0.  0.
         14    1    1    2    0    0 -0.86195490211E-02  0.19316744489E-01 -0.47664516325E-02  0.21682995737E-01  0.00000000000E+00 0.  1.
     999901    1    3    3    0    0 -0.63252939740E-01 -0.68198421109E-01 -0.93406468386E-01  0.88981836763E+00  0.88000000000E+00 0. -1.
        -11    1    4    4    0    0  0.28872270425E-01  0.10472061855E-01  0.27590250674E-01  0.41288680437E-01  0.51100000000E-03 0. -1.
         11    1    4    4    0    0  0.43000218336E-01  0.38409614765E-01  0.70582669345E-01  0.91139956200E-01  0.51100000000E-03 0.  1.
</event>
<event>
 8    1  0.1126414E+005  0.1043930E+01  0.7957747E-01            NaN
         13   -1    0    0    0    0  0.00000000000E+00  0.00000000000E+00  0.74505805969E-08  0.10566000000E+00  0.10566000000E+00 0. -1.
     999900   -1    0    0    0    0 -0.00000000000E+00 -0.00000000000E+00 -0.74505805969E-08  0.93827000000E+00  0.93827000000E+00 0.  1.
     999902    2    1    2    0    0 -0.10129856379E-03 -0.20221118666E-01 -0.10773228794E-01  0.10210178556E+01  0.10207607433E+01 0.  0.
     999903    2    3    3    0    0 -0.71086238303E-01 -0.56878831151E-01  0.92483348967E-01  0.13138615070E+00  0.20510876364E-01 0.  0.
         14    1    1    2    0    0  0.10129856379E-03  0.20221118666E-01  0.10773228794E-01  0.22912144381E-01  0.00000000000E+00 0. -1.
     999901    1    3    3    0    0  0.70984939739E-01  0.36657712485E-01 -0.10325657776E+00  0.88963170492E+00  0.88000000000E+00 0.  1.
        -11    1    4    4    0    0 -0.38862493474E-01 -0.32064213506E-01  0.36634512676E-01  0.62295712748E-01  0.51100000000E-03 0.  1.
         11    1    4    4    0    0 -0.32223744829E-01 -0.24814617644E-01  0.55848836291E-01  0.69090437947E-01  0.51100000000E-03 0. -1.
</event>
<event>
 8    1  0.1126414E+005  0.1043930E+01  0.7957747E-01            NaN
         13   -1    0    0    0    0  0.00000000000E+00  0.00000000000E+00  0.74505805969E-08  0.10566000000E+00  0.10566000000E+00 0. -1.
     999900   -1    0    0    0    0 -0.00000000000E+00 -0.00000000000E+00 -0.74505805969E-08  0.93827000000E+00  0.93827000000E+00 0. -1.
     999902    2    1    2    0    0  0.16282315051E-01  0.91478959067E-02 -0.20161363341E-01  0.10164476720E+01  0.10160760756E+01 0.  0.
     999903    2    3    3    0    0  0.22739538086E-01  0.11627230056E-01 -0.12606099870E+00  0.13007158045E+00  0.19363924566E-01 0.  0.
         14    1    1    2    0    0 -0.16282315051E-01 -0.91478959067E-02  0.20161363341E-01  0.27482328044E-01  0.00000000000E+00 0. -1.
     999901    1    3    3    0    0 -0.64572230350E-02 -0.24793341494E-02  0.10589963536E+00  0.88637609151E+00  0.88000000000E+00 0.  1.
        -11    1    4    4    0    0  0.13623617276E-01  0.11712684259E-01 -0.11109982203E+00  0.11254430904E+00  0.51100000000E-03 0. -1.
         11    1    4    4    0    0  0.91159208103E-02 -0.85454202729E-04 -0.14961176671E-01  0.17527271408E-01  0.51100000000E-03 0.  1.
</event>
<event>
 8    1  0.1126414E+005  0.1043930E+01  0.7957747E-01            NaN
         13   -1    0    0    0    0  0.00000000000E+00  0.00000000000E+00  0.74505805969E-08  0.10566000000E+00  0.10566000000E+00 0. -1.
     999900   -1    0    0    0    0 -0.00000000000E+00 -0.00000000000E+00 -0.74505805969E-08  0.93827000000E+00  0.93827000000E+00 0. -1.
     999902    2    1    2    0    0 -0.20308109117E-01  0.19042395311E-03 -0.29472806851E-02  0.10234082549E+01  0.10232024796E+01 0.  0.
     999903    2    3    3    0    0  0.10409850998E+00 -0.42842158449E-01  0.64175681157E-01  0.13108863617E+00  0.19843441246E-01 0.  0.
         14    1    1    2    0    0  0.20308109117E-01 -0.19042395311E-03  0.29472806851E-02  0.20521745068E-01  0.00000000000E+00 0.  1.
     999901    1    3    3    0    0 -0.12440661910E+00  0.43032582402E-01 -0.67122961842E-01  0.89231961876E+00  0.88000000000E+00 0. -1.
        -11    1    4    4    0    0  0.29045958316E-01 -0.21526414247E-01  0.23211716320E-01  0.42966255368E-01  0.51100000000E-03 0.  1.
         11    1    4    4    0    0  0.75052551662E-01 -0.21315744202E-01  0.40963964837E-01  0.88122380801E-01  0.51100000000E-03 0. -1.
</event>
<event>
 8    1  0.1126414E+005  0.1043930E+01  0.7957747E-01            NaN
         13   -1    0    0    0    0  0.00000000000E+00  0.00000000000E+00  0.74505805969E-08  0.10566000000E+00  0.10566000000E+00 0.  1.
     999900   -1    0    0    0    0 -0.00000000000E+00 -0.00000000000E+00 -0.74505805969E-08  0.93827000000E+00  0.93827000000E+00 0.  1.
     999902    2    1    2    0    0 -0.14262919301E-01 -0.25392508332E-01  0.15442803224E-03  0.10148055396E+01  0.10143875241E+01 0.  0.
     999903    2    3    3    0    0  0.83406694341E-01  0.46543211529E-01  0.75460290937E-01  0.12329834713E+00  0.19628542878E-01 0.  0.
         14    1    1    2    0    0  0.14262919301E-01  0.25392508332E-01 -0.15442803224E-03  0.29124460413E-01  0.00000000000E+00 0. -1.
     999901    1    3    3    0    0 -0.97669613642E-01 -0.71935719860E-01 -0.75305862905E-01  0.89150719246E+00  0.88000000000E+00 0.  1.
        -11    1    4    4    0    0  0.57834331494E-01  0.36413218934E-01  0.63532924101E-01  0.93313589462E-01  0.51100000000E-03 0. -1.
         11    1    4    4    0    0  0.25572362847E-01  0.10129992595E-01  0.11927366836E-01  0.29984757664E-01  0.51100000000E-03 0.  1.
</event>
<event>
 8    1  0.1126414E+005  0.1043930E+01  0.7957747E-01            NaN
         13   -1    0    0    0    0  0.00000000000E+00  0.00000000000E+00  0.74505805969E-08  0.10566000000E+00  0.10566000000E+00 0. -1.
     999900   -1    0    0    0    0 -0.00000000000E+00 -0.00000000000E+00 -0.74505805969E-08  0.93827000000E+00  0.93827000000E+00 0.  1.
     999902    2    1    2    0    0 -0.87239871537E-02  0.17793274677E-01 -0.15546599285E-01  0.10187425959E+01  0.10184311815E+01 0.  0.
     999903    2    3    3    0    0 -0.21933533131E-01 -0.12341368542E+00  0.53504927721E-02  0.12714258125E+00  0.20605595557E-01 0.  0.
         14    1    1    2    0    0  0.87239871537E-02 -0.17793274677E-01  0.15546599285E-01  0.25187404092E-01  0.00000000000E+00 0. -1.
     999901    1    3    3    0    0  0.13209545977E-01  0.14120696010E+00 -0.20897092057E-01  0.89160001466E+00  0.88000000000E+00 0. -1.
        -11    1    4    4    0    0  0.10012535996E-02 -0.52205983140E-01  0.21266750304E-02  0.52261372466E-01  0.51100000000E-03 0. -1.
         11    1    4    4    0    0 -0.22934786730E-01 -0.71207702282E-01  0.32238177417E-02  0.74881208781E-01  0.51100000000E-03 0.  1.
</event>
<event>
 8    1  0.1126414E+005  0.1043930E+01  0.7957747E-01            NaN
         13   -1    0    0    0    0  0.00000000000E+00  0.00000000000E+00  0.74505805969E-08  0.10566000000E+00  0.10566000000E+00 0.  1.
     999900   -1    0    0    0    0 -0.00000000000E+00 -0.00000000000E+00 -0.74505805969E-08  0.93827000000E+00  0.93827000000E+00 0.  1.
     999902    2    1    2    0    0 -0.13931031302E-01  0.50816236099E-02 -0.18921635881E-01  0.10198899327E+01  0.10196065663E+01 0.  0.
     999903    2    3    3    0    0  0.53755437176E-01 -0.74144037838E-01 -0.91171576706E-01  0.13080151336E+00  0.20243372374E-01 0.  0.
         14    1    1    2    0    0  0.13931031302E-01 -0.50816236099E-02  0.18921635881E-01  0.24040067306E-01  0.00000000000E+00 0.  1.
     999901    1    3    3    0    0 -0.67686468478E-01  0.79225661448E-01  0.72249940825E-01  0.88908841934E+00  0.88000000000E+00 0. -1.
        -11    1    4    4    0    0  0.30931559030E-01 -0.28496348990E-01 -0.33357162925E-01  0.53682070463E-01  0.51100000000E-03 0. -1.
         11    1    4    4    0    0  0.22823878146E-01 -0.45647688848E-01 -0.57814413781E-01  0.77119442896E-01  0.51100000000E-03 0.  1.
</event>
<event>
 7    1  0.1289598E+005  0.1043930E+01  0.7957747E-01            NaN
         13   -1    0    0    0    0  0.00000000000E+00  0.00000000000E+00  0.74505805969E-08  0.10566000000E+00  0.10566000000E+00 0. -1.
     999900   -1    0    0    0    0 -0.00000000000E+00 -0.00000000000E+00 -0.74505805969E-08  0.93827000000E+00  0.93827000000E+00 0.  1.
     999903    2    1    2    0    0  0.29897348987E-02  0.67312839663E-01  0.91153177921E-01  0.11515540251E+00  0.20295516368E-01 0.  0.
         14    1    1    2    0    0 -0.33727183098E-01  0.14169715283E-01 -0.19811260694E-01  0.41602761461E-01  0.00000000000E+00 0.  1.
     999901    1    1    2    0    0  0.30737448199E-01 -0.81482554946E-01 -0.71341917228E-01  0.88717183603E+00  0.88000000000E+00 0.  1.
        -11    1    3    3    0    0 -0.81598953980E-02  0.35700476539E-01  0.52122036913E-01  0.63703027957E-01  0.51100000000E-03 0.  1.
         11    1    3    3    0    0  0.11149630297E-01  0.31612363124E-01  0.39031141009E-01  0.51452374557E-01  0.51100000000E-03 0. -1.
</event>
<event>
 8    1  0.1126414E+005  0.1043930E+01  0.7957747E-01            NaN
         13   -1    0    0    0    0  0.00000000000E+00  0.00000000000E+00  0.74505805969E-08  0.10566000000E+00  0.10566000000E+00 0. -1.
     999900   -1    0    0    0    0 -0.00000000000E+00 -0.00000000000E+00 -0.74505805969E-08  0.93827000000E+00  0.93827000000E+00 0. -1.
     999902    2    1    2    0    0  0.48093061634E-02  0.10600892320E-01  0.15173338057E-01  0.10248057083E+01  0.10246272499E+01 0.  0.
     999903    2    3    3    0    0 -0.11333433325E+00  0.21273589245E-02 -0.66804796468E-01  0.13309379587E+00  0.20046967810E-01 0.  0.
         14    1    1    2    0    0 -0.48093061634E-02 -0.10600892320E-01 -0.15173338057E-01  0.19124291661E-01  0.00000000000E+00 0.  1.
     999901    1    3    3    0    0  0.11814363941E+00  0.84735333954E-02  0.81978134525E-01  0.89171191247E+00  0.88000000000E+00 0.  1.
        -11    1    4    4    0    0 -0.39419195015E-01 -0.17914977865E-02 -0.34159335401E-01  0.52193904970E-01  0.51100000000E-03 0. -1.
         11    1    4    4    0    0 -0.73915138234E-01  0.39188567110E-02 -0.32645461067E-01  0.80899890899E-01  0.51100000000E-03 0.  1.
</event>
<event>
 8    1  0.1126414E+005  0.1043930E+01  0.7957747E-01            NaN
         13   -1    0    0    0    0  0.00000000000E+00  0.00000000000E+00  0.74505805969E-08  0.10566000000E+00  0.10566000000E+00 0. -1.
     999900   -1    0    0    0    0 -0.00000000000E+00 -0.00000000000E+00 -0.74505805969E-08  0.93827000000E+00  0.93827000000E+00 0. -1.
     999902    2    1    2    0    0 -0.24133012864E-01  0.48501173632E-02 -0.23767559640E-02  0.10191999592E+01  0.10188998881E+01 0.  0.
     999903    2    3    3    0    0 -0.66090846722E-01 -0.10937872551E+00  0.18267838957E-01  0.13058593295E+00  0.19679083576E-01 0.  0.
         14    1    1    2    0    0  0.24133012864E-01 -0.48501173632E-02  0.23767559640E-02  0.24730040785E-01  0.00000000000E+00 0.  1.
     999901    1    3    3    0    0  0.41957833858E-01  0.11422884288E+00 -0.20644594921E-01  0.88861402626E+00  0.88000000000E+00 0. -1.
        -11    1    4    4    0    0 -0.14674752121E-01 -0.19963594664E-01  0.11209684105E-01  0.27199477945E-01  0.51100000000E-03 0. -1.
         11    1    4    4    0    0 -0.51416094600E-01 -0.89415130849E-01  0.70581548518E-02  0.10338645501E+00  0.51100000000E-03 0.  1.
</event>
<event>
 8    1  0.1126414E+005  0.1043930E+01  0.7957747E-01            NaN
         13   -1    0    0    0    0  0.00000000000E+00  0.00000000000E+00  0.74505805969E-08  0.10566000000E+00  0.10566000000E+00 0.  1.
     999900   -1    0    0    0    0 -0.00000000000E+00 -0.00000000000E+00 -0.74505805969E-08  0.93827000000E+00  0.93827000000E+00 0. -1.
     999902    2    1    2    0    0  0.85222159260E-02  0.13034349477E-01  0.17323601495E-01  0.10206355887E+01  0.10203697248E+01 0.  0.
     999903    2    3    3    0    0 -0.31832256482E-01  0.34954932959E-01 -0.11811080874E+00  0.12909115629E+00  0.21891176294E-01 0.  0.
         14    1    1    2    0    0 -0.85222159260E-02 -0.13034349477E-01 -0.17323601495E-01  0.23294411332E-01  0.00000000000E+00 0. -1.
     999901    1    3    3    0    0  0.40354472408E-01 -0.21920583482E-01  0.13543441024E+00  0.89154443238E+00  0.88000000000E+00 0.  1.
        -11    1    4    4    0    0 -0.26151518086E-01  0.34813185054E-01 -0.85127820229E-01  0.95618338460E-01  0.51100000000E-03 0.  1.
         11    1    4    4    0    0 -0.56807383962E-02  0.14174790410E-03 -0.32982988516E-01  0.33472817832E-01  0.51100000000E-03 0. -1.
</event>
<event>
 8    1  0.1126414E+005  0.1043930E+01  0.7957747E-01            NaN
         13   -1    0    0    0    0  0.00000000000E+00  0.00000000000E+00  0.74505805969E-08  0.10566000000E+00  0.10566000000E+00 0.  1.
     999900   -1    0    0    0    0 -0.00000000000E+00 -0.00000000000E+00 -0.74505805969E-08  0.93827000000E+00  0.93827000000E+00 0.  1.
     999902    2    1    2    0    0  0.21558345906E-01  0.13831596080E-01  0.94004516587E-02  0.10166455022E+01  0.10162793087E+01 0.  0.
     999903    2    3    3    0    0  0.33404993493E-01 -0.82279855525E-01 -0.86880818052E-01  0.12611316867E+00  0.21688396669E-01 0.  0.
         14    1    1    2    0    0 -0.21558345906E-01 -0.13831596080E-01 -0.94004516587E-02  0.27284497791E-01  0.00000000000E+00 0. -1.
     999901    1    3    3    0    0 -0.11846647587E-01  0.96111451604E-01  0.96281269711E-01  0.89053233354E+00  0.88000000000E+00 0. -1.
        -11    1    4    4    0    0  0.19205101942E-01 -0.64085831094E-01 -0.54209664198E-01  0.86109108119E-01  0.51100000000E-03 0. -1.
         11    1    4    4    0    0  0.14199891551E-01 -0.18194024430E-01 -0.32671153854E-01  0.40004060547E-01  0.51100000000E-03 0.  1.
</event>
<event>
 8    1  0.1126414E+005  0.1043930E+01  0.7957747E-01            NaN
         13   -1    0    0    0    0  0.00000000000E+00  0.00000000000E+00  0.74505805969E-08  0.10566000000E+00  0.10566000000E+00 0. -1.
     999900   -1    0    0    0    0 -0.00000000000E+00 -0.00000000000E+00 -0.74505805969E-08  0.93827000000E+00  0.93827000000E+00 0.  1.
     999902    2    1    2    0    0 -0.20558787993E-01  0.10470385964E-01  0.48674540851E-02  0.10203506689E+01  0.10200781846E+01 0.  0.
     999903    2    3    3    0    0  0.27481772229E-01  0.45116627448E-01 -0.11700896165E+00  0.12997877009E+00  0.20313190057E-01 0.  0.
         14    1    1    2    0    0  0.20558787993E-01 -0.10470385964E-01 -0.48674540851E-02  0.23579331102E-01  0.00000000000E+00 0.  1.
     999901    1    3    3    0    0 -0.48040560222E-01 -0.34646241484E-01  0.12187641574E+00  0.89037189881E+00  0.88000000000E+00 0. -1.
        -11    1    4    4    0    0  0.22919625336E-01  0.18192403657E-01 -0.58838046561E-01  0.65714911706E-01  0.51100000000E-03 0. -1.
         11    1    4    4    0    0  0.45621468930E-02  0.26924223791E-01 -0.58170915089E-01  0.64263858383E-01  0.51100000000E-03 0.  1.
</event>
<event>
 8    1  0.1126414E+005  0.1043930E+01  0.7957747E-01            NaN
         13   -1    0    0    0    0  0.00000000000E+00  0.00000000000E+00  0.74505805969E-08  0.10566000000E+00  0.10566000000E+00 0.  1.
     999900   -1    0    0    0    0 -0.00000000000E+00 -0.00000000000E+00 -0.74505805969E-08  0.93827000000E+00  0.93827000000E+00 0. -1.
     999902    2    1    2    0    0  0.66646599402E-03 -0.35100830398E-02 -0.23662546157E-01  0.10199992468E+01  0.10197184820E+01 0.  0.
     999903    2    3    3    0    0  0.44585832091E-01 -0.87440507601E-01 -0.87012247778E-01  0.13265128143E+00  0.19786167112E-01 0.  0.
         14    1    1    2    0    0 -0.66646599402E-03  0.35100830398E-02  0.23662546157E-01  0.23930753237E-01  0.00000000000E+00 0.  1.
     999901    1    3    3    0    0 -0.43919366097E-01  0.83930424561E-01  0.63349701622E-01  0.88734796533E+00  0.88000000000E+00 0.  1.
        -11    1    4    4    0    0  0.11258206223E-01 -0.42400167402E-01 -0.33858595670E-01  0.55418291428E-01  0.51100000000E-03 0.  1.
         11    1    4    4    0    0  0.33327625868E-01 -0.45040340198E-01 -0.53153652109E-01  0.77232990002E-01  0.51100000000E-03 0. -1.
</event>
<event>
 8    1  0.1126414E+005  0.1043930E+01  0.7957747E-01            NaN
         13   -1    0    0    0    0  0.00000000000E+00  0.00000000000E+00  0.74505805969E-08  0.10566000000E+00  0.10566000000E+00 0.  1.
     999900   -1    0    0    0    0 -0.00000000000E+00 -0.00000000000E+00 -0.74505805969E-08  0.93827000000E+00  0.93827000000E+00 0. -1.
     999902    2    1    2    0    0  0.19768911679E-01  0.96326649350E-02 -0.93098735679E-02  0.10200496347E+01  0.10197700649E+01 0.  0.
     999903    2    3    3    0    0  0.12294553760E+00  0.24328363404E-01 -0.40768324351E-01  0.13334167044E+00  0.20260067195E-01 0.  0.
         14    1    1    2    0    0 -0.19768911679E-01 -0.96326649350E-02  0.93098735679E-02  0.23880365336E-01  0.00000000000E+00 0.  1.
     999901    1    3    3    0    0 -0.10317662593E+00 -0.14695698469E-01  0.31458450784E-01  0.88670796422E+00  0.88000000000E+00 0. -1.
        -11    1    4    4    0    0  0.74622847229E-01  0.13289349197E-01 -0.14258728979E-01  0.77128131080E-01  0.51100000000E-03 0. -1.
         11    1    4    4    0    0  0.48322690375E-01  0.11039014207E-01 -0.26509595372E-01  0.56213539362E-01  0.51100000000E-03 0.  1.
</event>
<event>
 8    1  0.1126414E+005  0.1043930E+01  0.7957747E-01            NaN
         13   -1    0    0    0    0  0.00000000000E+00  0.00000000000E+00  0.74505805969E-08  0.10566000000E+00  0.10566000000E+00 0. -1.
     999900   -1    0    0    0    0 -0.00000000000E+00 -0.00000000000E+00 -0.74505805969E-08  0.93827000000E+00  0.93827000000E+00 0. -1.
     999902    2    1    2    0    0  0.95412474785E-02 -0.21125423115E-01 -0.25095234623E-02  0.10206144127E+01  0.10203480596E+01 0.  0.
     999903    2    3    3    0    0 -0.94072163953E-02 -0.91831805630E-01  0.92712398676E-01  0.13245583939E+00  0.20673274397E-01 0.  0.
         14    1    1    2    0    0 -0.95412474785E-02  0.21125423115E-01  0.25095234623E-02  0.23315587345E-01  0.00000000000E+00 0.  1.
     999901    1    3    3    0    0  0.18948463874E-01  0.70706382515E-01 -0.95221922138E-01  0.88815857327E+00  0.88000000000E+00 0. -1.
        -11    1    4    4    0    0  0.33367906189E-02 -0.22912591545E-01  0.14008836425E-01  0.27067132133E-01  0.51100000000E-03 0.  1.
         11    1    4    4    0    0 -0.12744007014E-01 -0.68919214084E-01  0.78703562251E-01  0.10538870725E+00  0.51100000000E-03 0. -1.
</event>
<event>
 8    1  0.1126414E+005  0.1043930E+01  0.7957747E-01            NaN
         13   -1    0    0    0    0  0.00000000000E+00  0.00000000000E+00  0.74505805969E-08  0.10566000000E+00  0.10566000000E+00 0. -1.
     999900   -1    0    0    0    0 -0.00000000000E+00 -0.00000000000E+00 -0.74505805969E-08  0.93827000000E+00  0.93827000000E+00 0. -1.
     999902    2    1    2    0    0 -0.11542334862E-01  0.31713650167E-02 -0.20429230796E-01  0.10202522357E+01  0.10199774448E+01 0.  0.
     999903    2    3    3    0    0  0.12374260588E+00  0.23760090673E-01  0.18000956775E-01  0.12884728278E+00  0.20020325117E-01 0.  0.
         14    1    1    2    0    0  0.11542334862E-01 -0.31713650167E-02  0.20429230796E-01  0.23677764275E-01  0.00000000000E+00 0. -1.
     999901    1    3    3    0    0 -0.13528494074E+00 -0.20588725656E-01 -0.38430187572E-01  0.89140495294E+00  0.88000000000E+00 0. -1.
        -11    1    4    4    0    0  0.54935655649E-01  0.93707093000E-02 -0.19762366154E-02  0.55766505059E-01  0.51100000000E-03 0. -1.
         11    1    4    4    0    0  0.68806950227E-01  0.14389381373E-01  0.19977193391E-01  0.73080777723E-01  0.51100000000E-03 0.  1.
</event>
<event>
 8    1  0.1126414E+005  0.1043930E+01  0.7957747E-01            NaN
         13   -1    0    0    0    0  0.00000000000E+00  0.00000000000E+00  0.74505805969E-08  0.10566000000E+00  0.10566000000E+00 0. -1.
     999900   -1    0    0    0    0 -0.00000000000E+00 -0.00000000000E+00 -0.74505805969E-08  0.93827000000E+00  0.93827000000E+00 0.  1.
     999902    2    1    2    0    0  0.13161221557E-01  0.19911850223E-01 -0.38001322449E-04  0.10200615904E+01  0.10197823039E+01 0.  0.
     999903    2    3    3    0    0  0.12362783062E+00  0.34760559048E-01 -0.25966610623E-01  0.13265207466E+00  0.20740565912E-01 0.  0.
         14    1    1    2    0    0 -0.13161221557E-01 -0.19911850223E-01  0.38001322449E-04  0.23868409588E-01  0.00000000000E+00 0.  1.
     999901    1    3    3    0    0 -0.11046660906E+00 -0.14848708825E-01  0.25928609300E-01  0.88740951575E+00  0.88000000000E+00 0.  1.
        -11    1    4    4    0    0  0.10555663065E+00  0.36653601448E-01 -0.19968520557E-01  0.11351075591E+00  0.51100000000E-03 0. -1.
         11    1    4    4    0    0  0.18071199967E-01 -0.18930423999E-02 -0.59980900655E-02  0.19141318742E-01  0.51100000000E-03 0.  1.
</event>
<event>
 8    1  0.1126414E+005  0.1043930E+01  0.7957747E-01            NaN
         13   -1    0    0    0    0  0.00000000000E+00  0.00000000000E+00  0.74505805969E-08  0.10566000000E+00  0.10566000000E+00 0.  1.
     999900   -1    0    0    0    0 -0.00000000000E+00 -0.00000000000E+00 -0.74505805969E-08  0.93827000000E+00  0.93827000000E+00 0. -1.
     999902    2    1    2    0    0  0.16387070831E-01  0.38332896960E-02  0.29894015224E-01  0.10096242811E+01  0.10090412810E+01 0.  0.
     999903    2    3    3    0    0 -0.41195353299E-02  0.93787232958E-01 -0.70846173556E-01  0.11908465909E+00  0.18680473384E-01 0.  0.
         14    1    1    2    0    0 -0.16387070831E-01 -0.38332896960E-02 -0.29894015224E-01  0.34305718860E-01  0.00000000000E+00 0. -1.
     999901    1    3    3    0    0  0.20506606160E-01 -0.89953943262E-01  0.10074018878E+00  0.89053962205E+00  0.88000000000E+00 0.  1.
        -11    1    4    4    0    0 -0.22713564331E-02  0.63527882187E-01 -0.58352136548E-01  0.86291273232E-01  0.51100000000E-03 0.  1.
         11    1    4    4    0    0 -0.18481788968E-02  0.30259350771E-01 -0.12494037008E-01  0.32793385859E-01  0.51100000000E-03 0. -1.
</event>
<event>
 8    1  0.1126414E+005  0.1043930E+01  0.7957747E-01            NaN
         13   -1    0    0    0    0  0.00000000000E+00  0.00000000000E+00  0.74505805969E-08  0.10566000000E+00  0.10566000000E+00 0.  1.
     999900   -1    0    0    0    0 -0.00000000000E+00 -0.00000000000E+00 -0.74505805969E-08  0.93827000000E+00  0.93827000000E+00 0. -1.
     999902    2    1    2    0    0 -0.18403332869E-01  0.27639684829E-01  0.12061630648E-01  0.10086012897E+01  0.10079823628E+01 0.  0.
     999903    2    3    3    0    0  0.23379132509E-02 -0.11355167127E+00 -0.14252319292E-01  0.11671697977E+00  0.22809578596E-01 0.  0.
         14    1    1    2    0    0  0.18403332869E-01 -0.27639684829E-01 -0.12061630648E-01  0.35328710308E-01  0.00000000000E+00 0. -1.
     999901    1    3    3    0    0 -0.20741246120E-01  0.14119135609E+00  0.26313949940E-01  0.89188430992E+00  0.88000000000E+00 0.  1.
        -11    1    4    4    0    0  0.34152979787E-02 -0.74616473279E-01 -0.20035185926E-01  0.77336615784E-01  0.51100000000E-03 0. -1.
         11    1    4    4    0    0 -0.10773847278E-02 -0.38935197986E-01  0.57828666339E-02  0.39380363985E-01  0.51100000000E-03 0.  1.
</event>
<event>
 8    1  0.1126414E+005  0.1043930E+01  0.7957747E-01            NaN
         13   -1    0    0    0    0  0.00000000000E+00  0.00000000000E+00  0.74505805969E-08  0.10566000000E+00  0.10566000000E+00 0.  1.
     999900   -1    0    0    0    0 -0.00000000000E+00 -0.00000000000E+00 -0.74505805969E-08  0.93827000000E+00  0.93827000000E+00 0.  1.
     999902    2    1    2    0    0 -0.19520370765E-01  0.13992982248E-01 -0.90885095414E-02  0.10182502525E+01  0.10179263860E+01 0.  0.
     999903    2    3    3    0    0 -0.41699484156E-02  0.43114566343E-01  0.11911309023E+00  0.12835174573E+00  0.20248162074E-01 0.  0.
         14    1    1    2    0    0  0.19520370765E-01 -0.13992982248E-01  0.90885095414E-02  0.25679747519E-01  0.00000000000E+00 0. -1.
     999901    1    3    3    0    0 -0.15350422349E-01 -0.29121584095E-01 -0.12820159977E+00  0.88989850675E+00  0.88000000000E+00 0.  1.
        -11    1    4    4    0    0  0.77675501619E-02  0.20636638203E-01  0.48160100905E-01  0.52970389011E-01  0.51100000000E-03 0. -1.
         11    1    4    4    0    0 -0.11937498578E-01  0.22477928140E-01  0.70952989327E-01  0.75381356722E-01  0.51100000000E-03 0.  1.
</event>
<event>
 8    1  0.1126414E+005  0.1043930E+01  0.7957747E-01            NaN
         13   -1    0    0    0    0  0.00000000000E+00  0.00000000000E+00  0.74505805969E-08  0.10566000000E+00  0.10566000000E+00 0. -1.
     999900   -1    0    0    0    0 -0.00000000000E+00 -0.00000000000E+00 -0.74505805969E-08  0.93827000000E+00  0.93827000000E+00 0.  1.
     999902    2    1    2    0    0 -0.11341394209E-01 -0.14925197103E-04  0.20557136469E-01  0.10204518547E+01  0.10201817311E+01 0.  0.
     999903    2    3    3    0    0  0.96506326909E-01  0.18774475043E-01 -0.79490253303E-01  0.12804295030E+00  0.20256966824E-01 0.  0.
         14    1    1    2    0    0  0.11341394209E-01  0.14925197103E-04 -0.20557136469E-01  0.23478145267E-01  0.00000000000E+00 0.  1.
     999901    1    3    3    0    0 -0.10784772112E+00 -0.18789400240E-01  0.10004738977E+00  0.89240890443E+00  0.88000000000E+00 0. -1.
        -11    1    4    4    0    0  0.42224666248E-01  0.17698270819E-01 -0.31462937153E-01  0.55554736658E-01  0.51100000000E-03 0.  1.
         11    1    4    4    0    0  0.54281660660E-01  0.10762042236E-02 -0.48027316149E-01  0.72488213642E-01  0.51100000000E-03 0. -1.
</event>
<event>
 8    1  0.1126414E+005  0.1043930E+01  0.7957747E-01            NaN
         13   -1    0    0    0    0  0.00000000000E+00  0.00000000000E+00  0.74505805969E-08  0.10566000000E+00  0.10566000000E+00 0.  1.
     999900   -1    0    0    0    0 -0.00000000000E+00 -0.00000000000E+00 -0.74505805969E-08  0.93827000000E+00  0.93827000000E+00 0. -1.
     999902    2    1    2    0    0 -0.20418782599E-01 -0.49486855241E-02  0.11304397620E-01  0.10200719704E+01  0.10197929296E+01 0.  0.
     999903    2    3    3    0    0  0.93105291258E-01 -0.80865768296E-01  0.32901513913E-01  0.12927594759E+00  0.20540040552E-01 0.  0.
         14    1    1    2    0    0  0.20418782599E-01  0.49486855241E-02 -0.11304397620E-01  0.23858029609E-01  0.00000000000E+00 0. -1.
     999901    1    3    3    0    0 -0.11352407386E+00  0.75917082771E-01 -0.21597116293E-01  0.89079602280E+00  0.88000000000E+00 0. -1.
        -11    1    4    4    0    0  0.18638686468E-01 -0.20183284856E-01  0.15822026204E-01  0.31707463712E-01  0.51100000000E-03 0.  1.
         11    1    4    4    0    0  0.74466604790E-01 -0.60682483440E-01  0.17079487708E-01  0.97568483881E-01  0.51100000000E-03 0. -1.
</event>
<event>
 8    1  0.1126414E+005  0.1043930E+01  0.7957747E-01            NaN
         13   -1    0    0    0    0  0.00000000000E+00  0.00000000000E+00  0.74505805969E-08  0.10566000000E+00  0.10566000000E+00 0. -1.
     999900   -1    0    0    0    0 -0.00000000000E+00 -0.00000000000E+00 -0.74505805969E-08  0.93827000000E+00  0.93827000000E+00 0. -1.
     999902    2    1    2    0    0  0.24096688314E-01 -0.38814864407E-02 -0.40441977255E-02  0.10191899139E+01  0.10188895960E+01 0.  0.
     999903    2    3    3    0    0  0.82543259674E-01  0.30853023283E-01  0.94837883163E-01  0.13104569488E+00  0.20333501917E-01 0.  0.
         14    1    1    2    0    0 -0.24096688314E-01  0.38814864407E-02  0.40441977255E-02  0.24740086094E-01  0.00000000000E+00 0. -1.
     999901    1    3    3    0    0 -0.58446571359E-01 -0.34734509724E-01 -0.98882080889E-01  0.88814421903E+00  0.88000000000E+00 0. -1.
        -11    1    4    4    0    0  0.40275050112E-01  0.17426208503E-01  0.32823946246E-01  0.54803512410E-01  0.51100000000E-03 0.  1.
         11    1    4    4    0    0  0.42268209562E-01  0.13426814780E-01  0.62013936917E-01  0.76242182469E-01  0.51100000000E-03 0. -1.
</event>
<event>
 8    1  0.1126414E+005  0.1043930E+01  0.7957747E-01            NaN
         13   -1    0    0    0    0  0.00000000000E+00  0.00000000000E+00  0.74505805969E-08  0.10566000000E+00  0.10566000000E+00 0.  1.
     999900   -1    0    0    0    0 -0.00000000000E+00 -0.00000000000E+00 -0.74505805969E-08  0.93827000000E+00  0.93827000000E+00 0.  1.
     999902    2    1    2    0    0 -0.19848323109E-01  0.38492858608E-02  0.12090218645E-01  0.10203727014E+01  0.10201007320E+01 0.  0.
     999903    2    3    3    0    0 -0.16684763823E-01 -0.12785357387E+00 -0.35426770040E-02  0.13042886112E+00  0.19344755339E-01 0.  0.
         14    1    1    2    0    0  0.19848323109E-01 -0.38492858608E-02 -0.12090218645E-01  0.23557298630E-01  0.00000000000E+00 0. -1.
     999901    1    3    3    0    0 -0.31635592860E-02  0.13170285973E+00  0.15632895649E-01  0.88994384025E+00  0.88000000000E+00 0. -1.
        -11    1    4    4    0    0 -0.10224202754E-01 -0.46695162311E-01 -0.97047313719E-02  0.48779252118E-01  0.51100000000E-03 0.  1.
         11    1    4    4    0    0 -0.64605610687E-02 -0.81158411556E-01  0.61620543679E-02  0.81649609005E-01  0.51100000000E-03 0. -1.
</event>
<event>
 8    1  0.1126414E+005  0.1043930E+01  0.7957747E-01            NaN
         13   -1    0    0    0    0  0.00000000000E+00  0.00000000000E+00  0.74505805969E-08  0.10566000000E+00  0.10566000000E+00 0.  1.
     999900   -1    0    0    0    0 -0.00000000000E+00 -0.00000000000E+00 -0.74505805969E-08  0.93827000000E+00  0.93827000000E+00 0. -1.
     999902    2    1    2    0    0 -0.19897383408E-01 -0.13201695376E-01  0.33214864436E-02  0.10198214351E+01  0.10195364322E+01 0.  0.
     999903    2    3    3    0    0 -0.11893649753E+00 -0.11950566546E-01 -0.53202874247E-01  0.13246281835E+00  0.20667509061E-01 0.  0.
         14    1    1    2    0    0  0.19897383408E-01  0.13201695376E-01 -0.33214864436E-02  0.24108564857E-01  0.00000000000E+00 0.  1.
     999901    1    3    3    0    0  0.99039114122E-01 -0.12511288303E-02  0.56524360691E-01  0.88735861680E+00  0.88000000000E+00 0.  1.
        -11    1    4    4    0    0 -0.22213982934E-01 -0.69804302924E-03 -0.16754857335E-02  0.22293870802E-01  0.51100000000E-03 0. -1.
         11    1    4    4    0    0 -0.96722514596E-01 -0.11252523517E-01 -0.51527388514E-01  0.11016894755E+00  0.51100000000E-03 0.  1.
</event>
<event>
 8    1  0.1126414E+005  0.1043930E+01  0.7957747E-01            NaN
         13   -1    0    0    0    0  0.00000000000E+00  0.00000000000E+00  0.74505805969E-08  0.10566000000E+00  0.10566000000E+00 0. -1.
     999900   -1    0    0    0    0 -0.00000000000E+00 -0.00000000000E+00 -0.74505805969E-08  0.93827000000E+00  0.93827000000E+00 0.  1.
     999902    2    1    2    0    0  0.53691401182E-02 -0.95945622719E-03  0.23052468539E-01  0.10202410885E+01  0.10199660358E+01 0.  0.
     999903    2    3    3    0    0 -0.31784483977E-01  0.72190828330E-01  0.10465100029E+00  0.13266592195E+00  0.20655407743E-01 0.  0.
         14    1    1    2    0    0 -0.53691401182E-02  0.95945622719E-03 -0.23052468539E-01  0.23688911490E-01  0.00000000000E+00 0.  1.
     999901    1    3    3    0    0  0.37153624095E-01 -0.73150284557E-01 -0.81598531747E-01  0.88757516656E+00  0.88000000000E+00 0.  1.
        -11    1    4    4    0    0 -0.67870083278E-02  0.40396126263E-01  0.56319120516E-01  0.69642048762E-01  0.51100000000E-03 0.  1.
         11    1    4    4    0    0 -0.24997475649E-01  0.31794702067E-01  0.48331879770E-01  0.63023873187E-01  0.51100000000E-03 0. -1.
</event>
<event>
 8    1  0.1126414E+005  0.1043930E+01  0.7957747E-01            NaN
         13   -1    0    0    0    0  0.00000000000E+00  0.00000000000E+00  0.74505805969E-08  0.10566000000E+00  0.10566000000E+00 0. -1.
     999900   -1    0    0    0    0 -0.00000000000E+00 -0.00000000000E+00 -0.74505805969E-08  0.93827000000E+00  0.93827000000E+00 0.  1.
     999902    2    1    2    0    0  0.10332355763E-01 -0.17519929766E-01 -0.12532664037E-01  0.10200391402E+01  0.10197593218E+01 0.  0.
     999903    2    3    3    0    0 -0.95620050512E-01  0.80900766461E-01 -0.18054764637E-01  0.12821906897E+00  0.20640422641E-01 0.  0.
         14    1    1    2    0    0 -0.10332355763E-01  0.17519929766E-01  0.12532664037E-01  0.23890859810E-01  0.00000000000E+00 0.  1.
     999901    1    3    3    0    0  0.10595240627E+00 -0.98420696227E-01  0.55221006004E-02  0.89182007122E+00  0.88000000000E+00 0.  1.
        -11    1    4    4    0    0 -0.61919391252E-01  0.51393573171E-01 -0.21491997306E-01  0.83291520850E-01  0.51100000000E-03 0. -1.
         11    1    4    4    0    0 -0.33700659260E-01  0.29507193290E-01  0.34372326687E-02  0.44927548117E-01  0.51100000000E-03 0.  1.
</event>
<event>
 8    1  0.1126414E+005  0.1043930E+01  0.7957747E-01            NaN
         13   -1    0    0    0    0  0.00000000000E+00  0.00000000000E+00  0.74505805969E-08  0.10566000000E+00  0.10566000000E+00 0. -1.
     999900   -1    0    0    0    0 -0.00000000000E+00 -0.00000000000E+00 -0.74505805969E-08  0.93827000000E+00  0.93827000000E+00 0.  1.
     999902    2    1    2    0    0 -0.53585537876E-03 -0.22570967452E-01  0.82795314245E-02  0.10198824148E+01  0.10195988690E+01 0.  0.
     999903    2    3    3    0    0 -0.95275236630E-01 -0.66223272306E-02 -0.85655802162E-01  0.12968369746E+00  0.18966259765E-01 0.  0.
         14    1    1    2    0    0  0.53585537876E-03  0.22570967452E-01 -0.82795314245E-02  0.24047585186E-01  0.00000000000E+00 0.  1.
     999901    1    3    3    0    0  0.94739381252E-01 -0.15948640221E-01  0.93935333587E-01  0.89019871736E+00  0.88000000000E+00 0. -1.
        -11    1    4    4    0    0 -0.39316116378E-01 -0.79977049524E-02 -0.46233433118E-01  0.61216923726E-01  0.51100000000E-03 0. -1.
         11    1    4    4    0    0 -0.55959120252E-01  0.13753777217E-02 -0.39422369044E-01  0.68466773732E-01  0.51100000000E-03 0.  1.
</event>
<event>
 8    1  0.1388083E+005  0.1043930E+01  0.7957747E-01            NaN
         13   -1    0    0    0    0  0.00000000000E+00  0.00000000000E+00  0.74505805969E-08  0.10566000000E+00  0.10566000000E+00 0. -1.
     999900   -1    0    0    0    0 -0.00000000000E+00 -0.00000000000E+00 -0.74505805969E-08  0.93827000000E+00  0.93827000000E+00 0.  1.
     999902    2    1    2    0    0 -0.43705493420E-02 -0.16174725906E-01  0.16800084099E-01  0.10202030894E+01  0.10199271432E+01 0.  0.
     999903    2    3    3    0    0  0.10600215380E+00  0.54048469612E-01  0.48474112779E-01  0.12996903319E+00  0.19609087199E-01 0.  0.
         14    1    1    2    0    0  0.43705493420E-02  0.16174725906E-01 -0.16800084099E-01  0.23726910574E-01  0.00000000000E+00 0.  1.
     999901    1    3    3    0    0 -0.11037270314E+00 -0.70223195518E-01 -0.31674028680E-01  0.89023405624E+00  0.88000000000E+00 0.  1.
        -11    1    4    4    0    0  0.38655174523E-01  0.20522032856E-01  0.28152705523E-01  0.52040487115E-01  0.51100000000E-03 0.  1.
         11    1    4    4    0    0  0.67346979279E-01  0.33526436756E-01  0.20321407256E-01  0.77928546075E-01  0.51100000000E-03 0. -1.
</event>
<event>
 8    1  0.1126414E+005  0.1043930E+01  0.7957747E-01            NaN
         13   -1    0    0    0    0  0.00000000000E+00  0.00000000000E+00  0.74505805969E-08  0.10566000000E+00  0.10566000000E+00 0. -1.
     999900   -1    0    0    0    0 -0.00000000000E+00 -0.00000000000E+00 -0.74505805969E-08  0.93827000000E+00  0.93827000000E+00 0.  1.
     999902    2    1    2    0    0  0.16253766150E-01  0.16078216725E-01  0.28342759432E-02  0.10208924852E+01  0.10206325192E+01 0.  0.
     999903    2    3    3    0    0 -0.71536555104E-01 -0.10168119462E+00  0.25269477314E-01  0.12843645957E+00  0.20020829323E-01 0.  0.
         14    1    1    2    0    0 -0.16253766150E-01 -0.16078216725E-01 -0.28342759432E-02  0.23037514780E-01  0.00000000000E+00 0.  1.
     999901    1    3    3    0    0  0.87790321254E-01  0.11775941134E+00 -0.22435201371E-01  0.89245602565E+00  0.88000000000E+00 0.  1.
        -11    1    4    4    0    0 -0.30911545737E-01 -0.28682598570E-01  0.49809506921E-02  0.42465116406E-01  0.51100000000E-03 0.  1.
         11    1    4    4    0    0 -0.40625009367E-01 -0.72998596050E-01  0.20288526622E-01  0.85971343160E-01  0.51100000000E-03 0. -1.
</event>
<event>
 8    1  0.1559160E+005  0.1043930E+01  0.7957747E-01            NaN
         13   -1    0    0    0    0  0.00000000000E+00  0.00000000000E+00  0.74505805969E-08  0.10566000000E+00  0.10566000000E+00 0. -1.
     999900   -1    0    0    0    0 -0.00000000000E+00 -0.00000000000E+00 -0.74505805969E-08  0.93827000000E+00  0.93827000000E+00 0.  1.
     999902    2    1    2    0    0  0.28521594147E-01 -0.17727842328E-01 -0.22003618035E-02  0.10102758871E+01  0.10097151918E+01 0.  0.
     999903    2    3    3    0    0 -0.40900860024E-01 -0.18912601361E-01 -0.11050437303E+00  0.12092182952E+00  0.19501424414E-01 0.  0.
         14    1    1    2    0    0 -0.28521594147E-01  0.17727842328E-01  0.22003618035E-02  0.33654112948E-01  0.00000000000E+00 0. -1.
     999901    1    3    3    0    0  0.69422454171E-01  0.11847590333E-02  0.10830401123E+00  0.88935405753E+00  0.88000000000E+00 0. -1.
        -11    1    4    4    0    0 -0.14222124821E-01  0.30260981087E-02 -0.33664562514E-01  0.36674105230E-01  0.51100000000E-03 0.  1.
         11    1    4    4    0    0 -0.26678735203E-01 -0.21938699470E-01 -0.76839810520E-01  0.84247724291E-01  0.51100000000E-03 0. -1.
</event>
<event>
 8    1  0.1126414E+005  0.1043930E+01  0.7957747E-01            NaN
         13   -1    0    0    0    0  0.00000000000E+00  0.00000000000E+00  0.74505805969E-08  0.10566000000E+00  0.10566000000E+00 0.  1.
     999900   -1    0    0    0    0 -0.00000000000E+00 -0.00000000000E+00 -0.74505805969E-08  0.93827000000E+00  0.93827000000E+00 0.  1.
     999902    2    1    2    0    0 -0.19485916244E-01 -0.11790845303E-01 -0.36782908947E-02  0.10208593522E+01  0.10205986294E+01 0.  0.
     999903    2    3    3    0    0 -0.99025045790E-01  0.35800065543E-01 -0.78823453198E-01  0.13280633391E+00  0.18351598445E-01 0.  0.
         14    1    1    2    0    0  0.19485916244E-01  0.11790845303E-01  0.36782908947E-02  0.23070647775E-01  0.00000000000E+00 0.  1.
     999901    1    3    3    0    0  0.79539129546E-01 -0.47590910846E-01  0.75145162304E-01  0.88805301832E+00  0.88000000000E+00 0. -1.
        -11    1    4    4    0    0 -0.44665877144E-01  0.72702393322E-02 -0.29123493356E-01  0.53817617444E-01  0.51100000000E-03 0. -1.
         11    1    4    4    0    0 -0.54359168646E-01  0.28529826211E-01 -0.49699959842E-01  0.78988716465E-01  0.51100000000E-03 0.  1.
</event>
<event>
 8    1  0.1126414E+005  0.1043930E+01  0.7957747E-01            NaN
         13   -1    0    0    0    0  0.00000000000E+00  0.00000000000E+00  0.74505805969E-08  0.10566000000E+00  0.10566000000E+00 0.  1.
     999900   -1    0    0    0    0 -0.00000000000E+00 -0.00000000000E+00 -0.74505805969E-08  0.93827000000E+00  0.93827000000E+00 0. -1.
     999902    2    1    2    0    0  0.55493021723E-02 -0.28135171447E-02  0.25668639791E-01  0.10175180765E+01  0.10171752289E+01 0.  0.
     999903    2    3    3    0    0 -0.36934649013E-01  0.96930588670E-01 -0.68618601669E-01  0.12586575826E+00  0.19338285594E-01 0.  0.
         14    1    1    2    0    0 -0.55493021723E-02  0.28135171447E-02 -0.25668639791E-01  0.26411923482E-01  0.00000000000E+00 0. -1.
     999901    1    3    3    0    0  0.42483951185E-01 -0.99744105814E-01  0.94287241460E-01  0.89165231826E+00  0.88000000000E+00 0.  1.
        -11    1    4    4    0    0 -0.22292075473E-01  0.54090908909E-01 -0.49812497334E-01  0.76839501997E-01  0.51100000000E-03 0. -1.
         11    1    4    4    0    0 -0.14642573540E-01  0.42839679761E-01 -0.18806104335E-01  0.49026256263E-01  0.51100000000E-03 0.  1.
</event>
<event>
 8    1  0.1126414E+005  0.1043930E+01  0.7957747E-01            NaN
         13   -1    0    0    0    0  0.00000000000E+00  0.00000000000E+00  0.74505805969E-08  0.10566000000E+00  0.10566000000E+00 0. -1.
     999900   -1    0    0    0    0 -0.00000000000E+00 -0.00000000000E+00 -0.74505805969E-08  0.93827000000E+00  0.93827000000E+00 0. -1.
     999902    2    1    2    0    0 -0.18636376864E-02  0.22162520939E-01 -0.62921837510E-02  0.10208163232E+01  0.10205546157E+01 0.  0.
     999903    2    3    3    0    0 -0.77239857188E-01  0.99030692655E-01 -0.38573537696E-01  0.13366787106E+00  0.24619267185E-01 0.  0.
         14    1    1    2    0    0  0.18636376864E-02 -0.22162520939E-01  0.62921837510E-02  0.23113676820E-01  0.00000000000E+00 0. -1.
     999901    1    3    3    0    0  0.75376219501E-01 -0.76868171716E-01  0.32281353945E-01  0.88714845212E+00  0.88000000000E+00 0.  1.
        -11    1    4    4    0    0 -0.29656095308E-01  0.22804572181E-01 -0.17825624247E-01  0.41443292606E-01  0.51100000000E-03 0.  1.
         11    1    4    4    0    0 -0.47583761880E-01  0.76226120474E-01 -0.20747913450E-01  0.92224578452E-01  0.51100000000E-03 0. -1.
</event>
<event>
 8    1  0.1126414E+005  0.1043930E+01  0.7957747E-01            NaN
         13   -1    0    0    0    0  0.00000000000E+00  0.00000000000E+00  0.74505805969E-08  0.10566000000E+00  0.10566000000E+00 0. -1.
     999900   -1    0    0    0    0 -0.00000000000E+00 -0.00000000000E+00 -0.74505805969E-08  0.93827000000E+00  0.93827000000E+00 0.  1.
     999902    2    1    2    0    0 -0.21065038913E-01  0.63684477316E-02  0.90523229012E-02  0.10201342537E+01  0.10198566851E+01 0.  0.
     999903    2    3    3    0    0  0.41720286480E-01  0.10450227995E+00  0.63677195334E-01  0.13077711354E+00  0.19661113928E-01 0.  0.
         14    1    1    2    0    0  0.21065038913E-01 -0.63684477316E-02 -0.90523229012E-02  0.23795746276E-01  0.00000000000E+00 0.  1.
     999901    1    3    3    0    0 -0.62785325394E-01 -0.98133832219E-01 -0.54624872433E-01  0.88935714019E+00  0.88000000000E+00 0.  1.
        -11    1    4    4    0    0  0.71574051185E-03  0.14507265065E-01  0.13682226524E-01  0.19960898471E-01  0.51100000000E-03 0.  1.
         11    1    4    4    0    0  0.41004545968E-01  0.89995014886E-01  0.49994968810E-01  0.11081621507E+00  0.51100000000E-03 0. -1.
</event>
<event>
 8    1  0.1126414E+005  0.1043930E+01  0.7957747E-01            NaN
         13   -1    0    0    0    0  0.00000000000E+00  0.00000000000E+00  0.74505805969E-08  0.10566000000E+00  0.10566000000E+00 0. -1.
     999900   -1    0    0    0    0 -0.00000000000E+00 -0.00000000000E+00 -0.74505805969E-08  0.93827000000E+00  0.93827000000E+00 0. -1.
     999902    2    1    2    0    0  0.17394232670E-01  0.11205825283E-01 -0.11051810101E-01  0.10204721152E+01  0.10202024631E+01 0.  0.
     999903    2    3    3    0    0  0.11070708048E+00 -0.15053128107E-01  0.66821442806E-01  0.13173083472E+00  0.20130903187E-01 0.  0.
         14    1    1    2    0    0 -0.17394232670E-01 -0.11205825283E-01  0.11051810101E-01  0.23457884750E-01  0.00000000000E+00 0. -1.
     999901    1    3    3    0    0 -0.93312847810E-01  0.26258953390E-01 -0.77873252907E-01  0.88874128053E+00  0.88000000000E+00 0. -1.
        -11    1    4    4    0    0  0.76432641078E-01 -0.19259730179E-01  0.43147286794E-01  0.89860087400E-01  0.51100000000E-03 0.  1.
         11    1    4    4    0    0  0.34274439402E-01  0.42066020720E-02  0.23674156012E-01  0.41870747320E-01  0.51100000000E-03 0. -1.
</event>
<event>
 8    1  0.1126414E+005  0.1043930E+01  0.7957747E-01            NaN
         13   -1    0    0    0    0  0.00000000000E+00  0.00000000000E+00  0.74505805969E-08  0.10566000000E+00  0.10566000000E+00 0. -1.
     999900   -1    0    0    0    0 -0.00000000000E+00 -0.00000000000E+00 -0.74505805969E-08  0.93827000000E+00  0.93827000000E+00 0.  1.
     999902    2    1    2    0    0 -0.87843260983E-02 -0.17488692580E-01  0.87316546828E-02  0.10224996349E+01  0.10222750329E+01 0.  0.
     999903    2    3    3    0    0  0.12577573942E+00  0.28627248304E-01  0.12359343258E-01  0.13107030439E+00  0.19687949479E-01 0.  0.
         14    1    1    2    0    0  0.87843260983E-02  0.17488692580E-01 -0.87316546828E-02  0.21430365061E-01  0.00000000000E+00 0.  1.
     999901    1    3    3    0    0 -0.13456006552E+00 -0.46115940884E-01 -0.36276885749E-02  0.89142933055E+00  0.88000000000E+00 0.  1.
        -11    1    4    4    0    0  0.19792480821E-01  0.99910205437E-02 -0.29639288972E-02  0.22374288460E-01  0.51100000000E-03 0. -1.
         11    1    4    4    0    0  0.10598325860E+00  0.18636227761E-01  0.15323272155E-01  0.10869601593E+00  0.51100000000E-03 0.  1.
</event>
<event>
 8    1  0.1126414E+005  0.1043930E+01  0.7957747E-01            NaN
         13   -1    0    0    0    0  0.00000000000E+00  0.00000000000E+00  0.74505805969E-08  0.10566000000E+00  0.10566000000E+00 0.  1.
     999900   -1    0    0    0    0 -0.00000000000E+00 -0.00000000000E+00 -0.74505805969E-08  0.93827000000E+00  0.93827000000E+00 0.  1.
     999902    2    1    2    0    0  0.19452745630E-01 -0.59741414826E-02  0.12876093744E-01  0.10198490227E+01  0.10195646794E+01 0.  0.
     999903    2    3    3    0    0  0.16266373356E-01  0.96428510209E-01 -0.80927532720E-01  0.12895308241E+00  0.22728383729E-01 0.  0.
         14    1    1    2    0    0 -0.19452745630E-01  0.59741414826E-02 -0.12876093744E-01  0.24080977329E-01  0.00000000000E+00 0. -1.
     999901    1    3    3    0    0  0.31863722736E-02 -0.10240265169E+00  0.93803626464E-01  0.89089594026E+00  0.88000000000E+00 0. -1.
        -11    1    4    4    0    0  0.19404221413E-01  0.46886405964E-01 -0.40107994338E-01  0.64682077918E-01  0.51100000000E-03 0.  1.
         11    1    4    4    0    0 -0.31378480570E-02  0.49542104245E-01 -0.40819538382E-01  0.64271004490E-01  0.51100000000E-03 0. -1.
</event>
<event>
 8    1  0.1126414E+005  0.1043930E+01  0.7957747E-01            NaN
         13   -1    0    0    0    0  0.00000000000E+00  0.00000000000E+00  0.74505805969E-08  0.10566000000E+00  0.10566000000E+00 0.  1.
     999900   -1    0    0    0    0 -0.00000000000E+00 -0.00000000000E+00 -0.74505805969E-08  0.93827000000E+00  0.93827000000E+00 0. -1.
     999902    2    1    2    0    0  0.15747848275E-01 -0.11876165382E-02  0.17744096534E-01  0.10201758820E+01  0.10198992951E+01 0.  0.
     999903    2    3    3    0    0  0.90577205815E-01  0.90247270537E-01 -0.22516080213E-01  0.13136732382E+00  0.20039956278E-01 0.  0.
         14    1    1    2    0    0 -0.15747848275E-01  0.11876165382E-02 -0.17744096534E-01  0.23754117962E-01  0.00000000000E+00 0. -1.
     999901    1    3    3    0    0 -0.74829357539E-01 -0.91434887075E-01  0.40260176747E-01  0.88880855821E+00  0.88000000000E+00 0.  1.
        -11    1    4    4    0    0  0.58986091218E-01  0.71463787341E-01 -0.15800103687E-01  0.94001788578E-01  0.51100000000E-03 0. -1.
         11    1    4    4    0    0  0.31591114597E-01  0.18783483196E-01 -0.67159765260E-02  0.37365535245E-01  0.51100000000E-03 0.  1.
</event>
<event>
 8    1  0.1126414E+005  0.1043930E+01  0.7957747E-01            NaN
         13   -1    0    0    0    0  0.00000000000E+00  0.00000000000E+00  0.74505805969E-08  0.10566000000E+00  0.10566000000E+00 0.  1.
     999900   -1    0    0    0    0 -0.00000000000E+00 -0.00000000000E+00 -0.74505805969E-08  0.93827000000E+00  0.93827000000E+00 0. -1.
     999902    2    1    2    0    0 -0.66925445085E-02 -0.16213269759E-01  0.15828918034E-01  0.10203034278E+01  0.10200298377E+01 0.  0.
     999903    2    3    3    0    0  0.11968952861E+00  0.24219840635E-01 -0.35728164656E-01  0.12886335824E+00  0.20422522110E-01 0.  0.
         14    1    1    2    0    0  0.66925445085E-02  0.16213269759E-01 -0.15828918034E-01  0.23626572210E-01  0.00000000000E+00 0. -1.
     999901    1    3    3    0    0 -0.12638207311E+00 -0.40433110394E-01  0.51557082691E-01  0.89144006955E+00  0.88000000000E+00 0.  1.
        -11    1    4    4    0    0  0.81157812790E-01  0.16727655229E-01 -0.14142609025E-01  0.84063544639E-01  0.51100000000E-03 0. -1.
         11    1    4    4    0    0  0.38531715816E-01  0.74921854059E-02 -0.21585555632E-01  0.44799813602E-01  0.51100000000E-03 0.  1.
</event>
<event>
 8    1  0.1126414E+005  0.1043930E+01  0.7957747E-01            NaN
         13   -1    0    0    0    0  0.00000000000E+00  0.00000000000E+00  0.74505805969E-08  0.10566000000E+00  0.10566000000E+00 0. -1.
     999900   -1    0    0    0    0 -0.00000000000E+00 -0.00000000000E+00 -0.74505805969E-08  0.93827000000E+00  0.93827000000E+00 0.  1.
     999902    2    1    2    0    0 -0.16969131563E-01  0.12687394389E-01 -0.46373005391E-02  0.10222406948E+01  0.10220105734E+01 0.  0.
     999903    2    3    3    0    0 -0.77073212382E-01 -0.46749100817E-01 -0.96381976449E-01  0.13344247079E+00  0.19790127168E-01 0.  0.
         14    1    1    2    0    0  0.16969131563E-01 -0.12687394389E-01  0.46373005391E-02  0.21689305168E-01  0.00000000000E+00 0. -1.
     999901    1    3    3    0    0  0.60104080819E-01  0.59436495206E-01  0.91744675910E-01  0.88879822404E+00  0.88000000000E+00 0. -1.
        -11    1    4    4    0    0 -0.11898733137E-01 -0.11989847910E-01 -0.94351424898E-02  0.19355085584E-01  0.51100000000E-03 0. -1.
         11    1    4    4    0    0 -0.65174479246E-01 -0.34759252908E-01 -0.86946833960E-01  0.11408738521E+00  0.51100000000E-03 0.  1.
</event>
<event>
 7    1  0.1126414E+005  0.1043930E+01  0.7957747E-01            NaN
         13   -1    0    0    0    0  0.00000000000E+00  0.00000000000E+00  0.74505805969E-08  0.10566000000E+00  0.10566000000E+00 0.  1.
     999900   -1    0    0    0    0 -0.00000000000E+00 -0.00000000000E+00 -0.74505805969E-08  0.93827000000E+00  0.93827000000E+00 0.  1.
     999902    2    1    2    0    0 -0.17617396768E-01 -0.83996658730E-02  0.14081476137E-01  0.10198631135E+01  0.10195791069E+01 0.  0.
         14    1    1    2    0    0  0.17617396768E-01  0.83996658730E-02 -0.14081476137E-01  0.24066886501E-01  0.00000000000E+00 0. -1.
     999901    1    3    3    0    0  0.64298209000E-01  0.85132617586E-01  0.39941904492E-01  0.88734276240E+00  0.88000000000E+00 0. -1.
        -11    1    3    3    0    0 -0.30346528578E-01 -0.56344352175E-01 -0.25625836892E-01  0.68938686208E-01  0.51100000000E-03 0. -1.
         11    1    3    3    0    0 -0.51569077190E-01 -0.37187931284E-01 -0.23459146401E-03  0.63581664886E-01  0.51100000000E-03 0.  1.
</event>
<event>
 8    1  0.1126414E+005  0.1043930E+01  0.7957747E-01            NaN
         13   -1    0    0    0    0  0.00000000000E+00  0.00000000000E+00  0.74505805969E-08  0.10566000000E+00  0.10566000000E+00 0. -1.
     999900   -1    0    0    0    0 -0.00000000000E+00 -0.00000000000E+00 -0.74505805969E-08  0.93827000000E+00  0.93827000000E+00 0.  1.
     999902    2    1    2    0    0 -0.13114868237E-02  0.23437097983E-01  0.36693461354E-02  0.10201711772E+01  0.10198944794E+01 0.  0.
     999903    2    3    3    0    0 -0.79250727354E-01 -0.94102521263E-01  0.31776396693E-01  0.12849853907E+00  0.19135643765E-01 0.  0.
         14    1    1    2    0    0  0.13114868237E-02 -0.23437097983E-01 -0.36693461354E-02  0.23758822795E-01  0.00000000000E+00 0.  1.
     999901    1    3    3    0    0  0.77939240530E-01  0.11753961925E+00 -0.28107050558E-01  0.89167263813E+00  0.88000000000E+00 0.  1.
        -11    1    4    4    0    0 -0.52493979935E-01 -0.73161156048E-01  0.17985371352E-01  0.91825417981E-01  0.51100000000E-03 0.  1.
         11    1    4    4    0    0 -0.26756747419E-01 -0.20941365215E-01  0.13791025341E-01  0.36673121089E-01  0.51100000000E-03 0. -1.
</event>
<event>
 8    1  0.1126414E+005  0.1043930E+01  0.7957747E-01            NaN
         13   -1    0    0    0    0  0.00000000000E+00  0.00000000000E+00  0.74505805969E-08  0.10566000000E+00  0.10566000000E+00 0.  1.
     999900   -1    0    0    0    0 -0.00000000000E+00 -0.00000000000E+00 -0.74505805969E-08  0.93827000000E+00  0.93827000000E+00 0.  1.
     999902    2    1    2    0    0 -0.53858640447E-02 -0.22693264510E-01 -0.26786475120E-02  0.10204530552E+01  0.10201829595E+01 0.  0.
     999903    2    3    3    0    0  0.90223349577E-01 -0.91673108982E-01  0.22458093937E-01  0.13223506592E+00  0.20917336263E-01 0.  0.
         14    1    1    2    0    0  0.53858640447E-02  0.22693264510E-01  0.26786475120E-02  0.23476944821E-01  0.00000000000E+00 0. -1.
     999901    1    3    3    0    0 -0.95609213621E-01  0.68979844471E-01 -0.25136741449E-01  0.88821798926E+00  0.88000000000E+00 0. -1.
        -11    1    4    4    0    0  0.72986438761E-01 -0.64709994152E-01  0.10660330581E-01  0.98123938748E-01  0.51100000000E-03 0. -1.
         11    1    4    4    0    0  0.17236910815E-01 -0.26963114829E-01  0.11797763356E-01  0.34111127172E-01  0.51100000000E-03 0.  1.
</event>
<event>
 8    1  0.1126414E+005  0.1043930E+01  0.7957747E-01            NaN
         13   -1    0    0    0    0  0.00000000000E+00  0.00000000000E+00  0.74505805969E-08  0.10566000000E+00  0.10566000000E+00 0. -1.
     999900   -1    0    0    0    0 -0.00000000000E+00 -0.00000000000E+00 -0.74505805969E-08  0.93827000000E+00  0.93827000000E+00 0. -1.
     999902    2    1    2    0    0  0.22603505100E-02 -0.24964173231E-01  0.94177794255E-02  0.10171528885E+01  0.10168003663E+01 0.  0.
     999903    2    3    3    0    0  0.40869288816E-01 -0.34907280248E-02 -0.11830274396E+00  0.12683592752E+00  0.20231888982E-01 0.  0.
         14    1    1    2    0    0 -0.22603505100E-02  0.24964173231E-01 -0.94177794255E-02  0.26777111473E-01  0.00000000000E+00 0.  1.
     999901    1    3    3    0    0 -0.38608938306E-01 -0.21473445206E-01  0.12772052338E+00  0.89031696101E+00  0.88000000000E+00 0.  1.
        -11    1    4    4    0    0  0.16902307404E-01 -0.98109514473E-02 -0.68018665012E-01  0.70772471166E-01  0.51100000000E-03 0.  1.
         11    1    4    4    0    0  0.23966981412E-01  0.63202234225E-02 -0.50284078943E-01  0.56063456353E-01  0.51100000000E-03 0. -1.
</event>
<event>
 8    1  0.1126414E+005  0.1043930E+01  0.7957747E-01            NaN
         13   -1    0    0    0    0  0.00000000000E+00  0.00000000000E+00  0.74505805969E-08  0.10566000000E+00  0.10566000000E+00 0. -1.
     999900   -1    0    0    0    0 -0.00000000000E+00 -0.00000000000E+00 -0.74505805969E-08  0.93827000000E+00  0.93827000000E+00 0.  1.
     999902    2    1    2    0    0 -0.21372154242E-01  0.94248824948E-02  0.18690947724E-02  0.10204973112E+01  0.10202282447E+01 0.  0.
     999903    2    3    3    0    0 -0.74475548608E-01  0.10303537016E+00  0.34335880445E-01  0.13334626094E+00  0.20961340008E-01 0.  0.
         14    1    1    2    0    0  0.21372154242E-01 -0.94248824948E-02 -0.18690947724E-02  0.23432688754E-01  0.00000000000E+00 0.  1.
     999901    1    3    3    0    0  0.53103394366E-01 -0.93610487666E-01 -0.32466785672E-01  0.88715105031E+00  0.88000000000E+00 0. -1.
        -11    1    4    4    0    0 -0.43895755592E-01  0.73102804978E-01  0.15856459375E-01  0.86732611396E-01  0.51100000000E-03 0.  1.
         11    1    4    4    0    0 -0.30579793016E-01  0.29932565183E-01  0.18479421070E-01  0.46613649540E-01  0.51100000000E-03 0. -1.
</event>
<event>
 8    1  0.1126414E+005  0.1043930E+01  0.7957747E-01            NaN
         13   -1    0    0    0    0  0.00000000000E+00  0.00000000000E+00  0.74505805969E-08  0.10566000000E+00  0.10566000000E+00 0. -1.
     999900   -1    0    0    0    0 -0.00000000000E+00 -0.00000000000E+00 -0.74505805969E-08  0.93827000000E+00  0.93827000000E+00 0. -1.
     999902    2    1    2    0    0 -0.49532900231E-02  0.57311677025E-02 -0.22412142901E-01  0.10202723265E+01  0.10199980072E+01 0.  0.
     999903    2    3    3    0    0  0.12598423008E+00 -0.42325630835E-02  0.21037269133E-01  0.12946832927E+00  0.20725365459E-01 0.  0.
         14    1    1    2    0    0  0.49532900231E-02 -0.57311677025E-02  0.22412142901E-01  0.23657673484E-01  0.00000000000E+00 0. -1.
     999901    1    3    3    0    0 -0.13093752010E+00  0.99637307860E-02 -0.43449412034E-01  0.89080399724E+00  0.88000000000E+00 0.  1.
        -11    1    4    4    0    0  0.76235807244E-01 -0.67793095239E-02  0.22018320659E-01  0.79642481814E-01  0.51100000000E-03 0.  1.
         11    1    4    4    0    0  0.49748422833E-01  0.25467464404E-02 -0.98105152604E-03  0.49825847457E-01  0.51100000000E-03 0. -1.
</event>
<event>
 8    1  0.1126414E+005  0.1043930E+01  0.7957747E-01            NaN
         13   -1    0    0    0    0  0.00000000000E+00  0.00000000000E+00  0.74505805969E-08  0.10566000000E+00  0.10566000000E+00 0. -1.
     999900   -1    0    0    0    0 -0.00000000000E+00 -0.00000000000E+00 -0.74505805969E-08  0.93827000000E+00  0.93827000000E+00 0. -1.
     999902    2    1    2    0    0 -0.28196226369E-02 -0.23228171693E-01 -0.70731954358E-04  0.10205312130E+01  0.10202629335E+01 0.  0.
     999903    2    3    3    0    0  0.24202940222E-01 -0.12578628913E+00  0.33659369097E-01  0.13352157035E+00  0.16943546666E-01 0.  0.
         14    1    1    2    0    0  0.28196226369E-02  0.23228171693E-01  0.70731954358E-04  0.23398787042E-01  0.00000000000E+00 0.  1.
     999901    1    3    3    0    0 -0.27022562859E-01  0.10255811744E+00 -0.33730101051E-01  0.88700964260E+00  0.88000000000E+00 0. -1.
        -11    1    4    4    0    0  0.23393609385E-01 -0.79344803682E-01  0.23041014330E-01  0.85872046055E-01  0.51100000000E-03 0. -1.
         11    1    4    4    0    0  0.80933083627E-03 -0.46441485447E-01  0.10618354767E-01  0.47649524299E-01  0.51100000000E-03 0.  1.
</event>
<event>
 8    1  0.1126414E+005  0.1043930E+01  0.7957747E-01            NaN
         13   -1    0    0    0    0  0.00000000000E+00  0.00000000000E+00  0.74505805969E-08  0.10566000000E+00  0.10566000000E+00 0. -1.
     999900   -1    0    0    0    0 -0.00000000000E+00 -0.00000000000E+00 -0.74505805969E-08  0.93827000000E+00  0.93827000000E+00 0. -1.
     999902    2    1    2    0    0 -0.13837035647E-01 -0.64267251931E-02 -0.17188393681E-01  0.10209472406E+01  0.10206885229E+01 0.  0.
     999903    2    3    3    0    0 -0.49022988696E-01 -0.18731329613E-01 -0.12160520591E+00  0.13399046304E+00  0.20285510914E-01 0.  0.
         14    1    1    2    0    0  0.13837035647E-01  0.64267251931E-02  0.17188393681E-01  0.22982759398E-01  0.00000000000E+00 0. -1.
     999901    1    3    3    0    0  0.35185953049E-01  0.12304604420E-01  0.10441681223E+00  0.88695677756E+00  0.88000000000E+00 0.  1.
        -11    1    4    4    0    0 -0.29455096114E-01 -0.21396533870E-01 -0.74977962742E-01  0.83350887018E-01  0.51100000000E-03 0.  1.
         11    1    4    4    0    0 -0.19567892582E-01  0.26652042574E-02 -0.46627243165E-01  0.50639576025E-01  0.51100000000E-03 0. -1.
</event>
<event>
 8    1  0.1126414E+005  0.1043930E+01  0.7957747E-01            NaN
         13   -1    0    0    0    0  0.00000000000E+00  0.00000000000E+00  0.74505805969E-08  0.10566000000E+00  0.10566000000E+00 0. -1.
     999900   -1    0    0    0    0 -0.00000000000E+00 -0.00000000000E+00 -0.74505805969E-08  0.93827000000E+00  0.93827000000E+00 0. -1.
     999902    2    1    2    0    0  0.21850610989E-01 -0.87480249007E-02  0.40584850954E-02  0.10200459375E+01  0.10197662802E+01 0.  0.
     999903    2    3    3    0    0  0.10402257514E+00  0.34540206525E-01  0.71832390573E-01  0.13256669552E+00  0.20007858981E-01 0.  0.
         14    1    1    2    0    0 -0.21850610989E-01  0.87480249007E-02 -0.40584850954E-02  0.23884062501E-01  0.00000000000E+00 0.  1.
     999901    1    3    3    0    0 -0.82171964152E-01 -0.43288231426E-01 -0.67773905478E-01  0.88747924197E+00  0.88000000000E+00 0. -1.
        -11    1    4    4    0    0  0.91183162036E-01  0.23280119908E-01  0.57662103748E-01  0.11036988879E+00  0.51100000000E-03 0.  1.
         11    1    4    4    0    0  0.12839413106E-01  0.11260086617E-01  0.14170286826E-01  0.22196806735E-01  0.51100000000E-03 0. -1.
</event>
<event>
 8    1  0.1126414E+005  0.1043930E+01  0.7957747E-01            NaN
         13   -1    0    0    0    0  0.00000000000E+00  0.00000000000E+00  0.74505805969E-08  0.10566000000E+00  0.10566000000E+00 0. -1.
     999900   -1    0    0    0    0 -0.00000000000E+00 -0.00000000000E+00 -0.74505805969E-08  0.93827000000E+00  0.93827000000E+00 0. -1.
     999902    2    1    2    0    0  0.96951486011E-02  0.11231364312E-01  0.16541131089E-01  0.10217095484E+01  0.10214678913E+01 0.  0.
     999903    2    3    3    0    0  0.58594499864E-01  0.10227608488E+00  0.61687945245E-01  0.13451254520E+00  0.19862257529E-01 0.  0.
         14    1    1    2    0    0 -0.96951486011E-02 -0.11231364312E-01 -0.16541131089E-01  0.22220451580E-01  0.00000000000E+00 0.  1.
     999901    1    3    3    0    0 -0.48899351263E-01 -0.91044720569E-01 -0.45146814156E-01  0.88719700322E+00  0.88000000000E+00 0. -1.
        -11    1    4    4    0    0  0.19344203230E-01  0.22167968314E-01  0.84042544512E-02  0.30602444864E-01  0.51100000000E-03 0.  1.
         11    1    4    4    0    0  0.39250296634E-01  0.80108116567E-01  0.53283690794E-01  0.10391010033E+00  0.51100000000E-03 0. -1.
</event>
<event>
 8    1  0.1333920E+005  0.1043930E+01  0.7957747E-01            NaN
         13   -1    0    0    0    0  0.00000000000E+00  0.00000000000E+00  0.74505805969E-08  0.10566000000E+00  0.10566000000E+00 0.  1.
     999900   -1    0    0    0    0 -0.00000000000E+00 -0.00000000000E+00 -0.74505805969E-08  0.93827000000E+00  0.93827000000E+00 0. -1.
     999902    2    1    2    0    0 -0.27398637346E-01  0.60710015425E-02  0.24050797864E-01  0.10069707892E+01  0.10062922970E+01 0.  0.
     999903    2    3    3    0    0 -0.23939829946E-01 -0.81175816895E-01  0.83712007443E-01  0.12063934404E+00  0.19583728809E-01 0.  0.
         14    1    1    2    0    0  0.27398637346E-01 -0.60710015425E-02 -0.24050797864E-01  0.36959210842E-01  0.00000000000E+00 0.  1.
     999901    1    3    3    0    0 -0.34588074004E-02  0.87246818437E-01 -0.59661209579E-01  0.88633144512E+00  0.88000000000E+00 0. -1.
        -11    1    4    4    0    0 -0.69468709564E-02 -0.39129093272E-01  0.51300030563E-01  0.64894523753E-01  0.51100000000E-03 0.  1.
         11    1    4    4    0    0 -0.16992958989E-01 -0.42046723623E-01  0.32411976880E-01  0.55744820287E-01  0.51100000000E-03 0. -1.
</event>
<event>
 8    1  0.1126414E+005  0.1043930E+01  0.7957747E-01            NaN
         13   -1    0    0    0    0  0.00000000000E+00  0.00000000000E+00  0.74505805969E-08  0.10566000000E+00  0.10566000000E+00 0. -1.
     999900   -1    0    0    0    0 -0.00000000000E+00 -0.00000000000E+00 -0.74505805969E-08  0.93827000000E+00  0.93827000000E+00 0. -1.
     999902    2    1    2    0    0  0.13833056663E-01 -0.10257353134E-01 -0.15492352828E-01  0.10207658090E+01  0.10205029432E+01 0.  0.
     999903    2    3    3    0    0 -0.58218742553E-01 -0.75969968010E-01  0.85265353656E-01  0.12966439783E+00  0.19540151123E-01 0.  0.
         14    1    1    2    0    0 -0.13833056663E-01  0.10257353134E-01  0.15492352828E-01  0.23164191031E-01  0.00000000000E+00 0. -1.
     999901    1    3    3    0    0  0.72051799216E-01  0.65712614875E-01 -0.10075770648E+00  0.89110141114E+00  0.88000000000E+00 0. -1.
        -11    1    4    4    0    0 -0.23880584364E-01 -0.40262527351E-01  0.30800572327E-01  0.56038288651E-01  0.51100000000E-03 0.  1.
         11    1    4    4    0    0 -0.34338158189E-01 -0.35707440659E-01  0.54464781329E-01  0.73626109176E-01  0.51100000000E-03 0. -1.
</event>
<event>
 8    1  0.1126414E+005  0.1043930E+01  0.7957747E-01            NaN
         13   -1    0    0    0    0  0.00000000000E+00  0.00000000000E+00  0.74505805969E-08  0.10566000000E+00  0.10566000000E+00 0.  1.
     999900   -1    0    0    0    0 -0.00000000000E+00 -0.00000000000E+00 -0.74505805969E-08  0.93827000000E+00  0.93827000000E+00 0. -1.
     999902    2    1    2    0    0 -0.14552646330E-01  0.16870586196E-01 -0.59007822104E-02  0.10208818889E+01  0.10206216810E+01 0.  0.
     999903    2    3    3    0    0  0.36461242005E-01  0.66624591772E-01 -0.10644397950E+00  0.13229491377E+00  0.20083949860E-01 0.  0.
         14    1    1    2    0    0  0.14552646330E-01 -0.16870586196E-01  0.59007822104E-02  0.23048111083E-01  0.00000000000E+00 0. -1.
     999901    1    3    3    0    0 -0.51013888335E-01 -0.49754005576E-01  0.10054319729E+00  0.88858697514E+00  0.88000000000E+00 0.  1.
        -11    1    4    4    0    0  0.29614669286E-01  0.36712179590E-01 -0.55680624413E-01  0.72975378198E-01  0.51100000000E-03 0. -1.
         11    1    4    4    0    0  0.68465727193E-02  0.29912412182E-01 -0.50763355083E-01  0.59319535575E-01  0.51100000000E-03 0.  1.
</event>
<event>
 8    1  0.1126414E+005  0.1043930E+01  0.7957747E-01            NaN
         13   -1    0    0    0    0  0.00000000000E+00  0.00000000000E+00  0.74505805969E-08  0.10566000000E+00  0.10566000000E+00 0.  1.
     999900   -1    0    0    0    0 -0.00000000000E+00 -0.00000000000E+00 -0.74505805969E-08  0.93827000000E+00  0.93827000000E+00 0.  1.
     999902    2    1    2    0    0 -0.21459613609E-01  0.57098657678E-02 -0.10331118480E-01  0.10194381729E+01  0.10191439245E+01 0.  0.
     999903    2    3    3    0    0  0.44881849999E-01  0.69122279893E-01 -0.98723410034E-01  0.13026129444E+00  0.20722526503E-01 0.  0.
         14    1    1    2    0    0  0.21459613609E-01 -0.57098657678E-02  0.10331118480E-01  0.24491827052E-01  0.00000000000E+00 0.  1.
     999901    1    3    3    0    0 -0.66341463608E-01 -0.63412414125E-01  0.88392291554E-01  0.88917687850E+00  0.88000000000E+00 0. -1.
        -11    1    4    4    0    0  0.20803784091E-01  0.43825159974E-01 -0.69286219429E-01  0.84582997127E-01  0.51100000000E-03 0.  1.
         11    1    4    4    0    0  0.24078065909E-01  0.25297119919E-01 -0.29437190604E-01  0.45678297317E-01  0.51100000000E-03 0. -1.
</event>
<event>
 8    1  0.1126414E+005  0.1043930E+01  0.7957747E-01            NaN
         13   -1    0    0    0    0  0.00000000000E+00  0.00000000000E+00  0.74505805969E-08  0.10566000000E+00  0.10566000000E+00 0. -1.
     999900   -1    0    0    0    0 -0.00000000000E+00 -0.00000000000E+00 -0.74505805969E-08  0.93827000000E+00  0.93827000000E+00 0. -1.
     999902    2    1    2    0    0  0.11767121818E-01 -0.24278247498E-01  0.10196660093E-01  0.10150878376E+01  0.10146780019E+01 0.  0.
     999903    2    3    3    0    0 -0.59280449756E-01 -0.84344270899E-01  0.74562782036E-01  0.12784565965E+00  0.12521041114E-01 0.  0.
         14    1    1    2    0    0 -0.11767121818E-01  0.24278247498E-01 -0.10196660093E-01  0.28842162445E-01  0.00000000000E+00 0.  1.
     999901    1    3    3    0    0  0.71047571574E-01  0.60066023400E-01 -0.64366121943E-01  0.88724217790E+00  0.88000000000E+00 0. -1.
        -11    1    4    4    0    0 -0.32438973458E-01 -0.48201570840E-01  0.34463739900E-01  0.67555080633E-01  0.51100000000E-03 0.  1.
         11    1    4    4    0    0 -0.26841476298E-01 -0.36142700059E-01  0.40099042135E-01  0.60290579020E-01  0.51100000000E-03 0. -1.
</event>
<event>
 8    1  0.1126414E+005  0.1043930E+01  0.7957747E-01            NaN
         13   -1    0    0    0    0  0.00000000000E+00  0.00000000000E+00  0.74505805969E-08  0.10566000000E+00  0.10566000000E+00 0. -1.
     999900   -1    0    0    0    0 -0.00000000000E+00 -0.00000000000E+00 -0.74505805969E-08  0.93827000000E+00  0.93827000000E+00 0.  1.
     999902    2    1    2    0    0 -0.23179995613E-01 -0.53589430738E-02 -0.15293623030E-02  0.10200895005E+01  0.10198108744E+01 0.  0.
     999903    2    3    3    0    0 -0.29399673133E-02 -0.12803129531E+00  0.19115015838E-01  0.13111011092E+00  0.20586922278E-01 0.  0.
         14    1    1    2    0    0  0.23179995613E-01  0.53589430738E-02  0.15293623030E-02  0.23840499502E-01  0.00000000000E+00 0. -1.
     999901    1    3    3    0    0 -0.20240028299E-01  0.12267235223E+00 -0.20644378141E-01  0.88897938958E+00  0.88000000000E+00 0.  1.
        -11    1    4    4    0    0 -0.26027154856E-02 -0.12033124458E+00  0.12624243613E-01  0.12102072218E+00  0.51100000000E-03 0. -1.
         11    1    4    4    0    0 -0.33725182768E-03 -0.77000507308E-02  0.64907722246E-02  0.10089388739E-01  0.51100000000E-03 0.  1.
</event>
<event>
 8    1  0.1126414E+005  0.1043930E+01  0.7957747E-01            NaN
         13   -1    0    0    0    0  0.00000000000E+00  0.00000000000E+00  0.74505805969E-08  0.10566000000E+00  0.10566000000E+00 0.  1.
     999900   -1    0    0    0    0 -0.00000000000E+00 -0.00000000000E+00 -0.74505805969E-08  0.93827000000E+00  0.93827000000E+00 0.  1.
     999902    2    1    2    0    0 -0.16348769399E-01  0.16743201168E-01 -0.53558393938E-02  0.10199237079E+01  0.10196411466E+01 0.  0.
     999903    2    3    3    0    0  0.41588227539E-01 -0.72475751885E-01 -0.96255382172E-01  0.12886846599E+00  0.18964905728E-01 0.  0.
         14    1    1    2    0    0  0.16348769399E-01 -0.16743201168E-01  0.53558393938E-02  0.24006292130E-01  0.00000000000E+00 0.  1.
     999901    1    3    3    0    0 -0.57936996938E-01  0.89218953053E-01  0.90899542778E-01  0.89105524188E+00  0.88000000000E+00 0. -1.
        -11    1    4    4    0    0  0.41992275403E-01 -0.60246906079E-01 -0.82435769337E-01  0.11040361440E+00  0.51100000000E-03 0.  1.
         11    1    4    4    0    0 -0.40404786361E-03 -0.12228845806E-01 -0.13819612835E-01  0.18464851592E-01  0.51100000000E-03 0. -1.
</event>
<event>
 8    1  0.1126414E+005  0.1043930E+01  0.7957747E-01            NaN
         13   -1    0    0    0    0  0.00000000000E+00  0.00000000000E+00  0.74505805969E-08  0.10566000000E+00  0.10566000000E+00 0.  1.
     999900   -1    0    0    0    0 -0.00000000000E+00 -0.00000000000E+00 -0.74505805969E-08  0.93827000000E+00  0.93827000000E+00 0. -1.
     999902    2    1    2    0    0  0.15258632054E-01 -0.67245163061E-02  0.20682252890E-01  0.10173630928E+01  0.10170161563E+01 0.  0.
     999903    2    3    3    0    0  0.29304643161E-01  0.12208936422E+00 -0.64609345241E-02  0.12746025608E+00  0.20971367107E-01 0.  0.
         14    1    1    2    0    0 -0.15258632054E-01  0.67245163061E-02 -0.20682252890E-01  0.26566907165E-01  0.00000000000E+00 0. -1.
     999901    1    3    3    0    0 -0.14046011107E-01 -0.12881388053E+00  0.27143187414E-01  0.88990283676E+00  0.88000000000E+00 0.  1.
        -11    1    4    4    0    0  0.22448353302E-01  0.88950992977E-01  0.45944294359E-02  0.91856287865E-01  0.51100000000E-03 0. -1.
         11    1    4    4    0    0  0.68562898591E-02  0.33138371243E-01 -0.11055363960E-01  0.35603968214E-01  0.51100000000E-03 0.  1.
</event>
<event>
 8    1  0.1126414E+005  0.1043930E+01  0.7957747E-01            NaN
         13   -1    0    0    0    0  0.00000000000E+00  0.00000000000E+00  0.74505805969E-08  0.10566000000E+00  0.10566000000E+00 0.  1.
     999900   -1    0    0    0    0 -0.00000000000E+00 -0.00000000000E+00 -0.74505805969E-08  0.93827000000E+00  0.93827000000E+00 0. -1.
     999902    2    1    2    0    0 -0.21120156043E-01 -0.96007391437E-02 -0.65564241563E-03  0.10207208412E+01  0.10204569421E+01 0.  0.
     999903    2    3    3    0    0 -0.12839524599E+00 -0.16317800293E-01 -0.26845959478E-01  0.13379412694E+00  0.20701523218E-01 0.  0.
         14    1    1    2    0    0  0.21120156043E-01  0.96007391437E-02  0.65564241563E-03  0.23209158760E-01  0.00000000000E+00 0.  1.
     999901    1    3    3    0    0  0.10727508995E+00  0.67170611490E-02  0.26190317062E-01  0.88692671430E+00  0.88000000000E+00 0. -1.
        -11    1    4    4    0    0 -0.91965553763E-01 -0.14150049220E-01 -0.99639530863E-02  0.93581133002E-01  0.51100000000E-03 0. -1.
         11    1    4    4    0    0 -0.36429692228E-01 -0.21677510725E-02 -0.16882006392E-01  0.40212993937E-01  0.51100000000E-03 0.  1.
</event>
<event>
 8    1  0.1126414E+005  0.1043930E+01  0.7957747E-01            NaN
         13   -1    0    0    0    0  0.00000000000E+00  0.00000000000E+00  0.74505805969E-08  0.10566000000E+00  0.10566000000E+00 0. -1.
     999900   -1    0    0    0    0 -0.00000000000E+00 -0.00000000000E+00 -0.74505805969E-08  0.93827000000E+00  0.93827000000E+00 0.  1.
     999902    2    1    2    0    0 -0.40108335243E-02 -0.19142843625E-01 -0.82142986888E-02  0.10227165620E+01  0.10224965312E+01 0.  0.
     999903    2    3    3    0    0 -0.39629942488E-01 -0.11150989585E+00  0.61845582082E-01  0.13439861211E+00  0.15268323408E-01 0.  0.
         14    1    1    2    0    0  0.40108335243E-02  0.19142843625E-01  0.82142986888E-02  0.21213437971E-01  0.00000000000E+00 0.  1.
     999901    1    3    3    0    0  0.35619108964E-01  0.92367052223E-01 -0.70059880771E-01  0.88831794992E+00  0.88000000000E+00 0.  1.
        -11    1    4    4    0    0 -0.11439012559E-01 -0.49652622033E-01  0.21169248399E-01  0.55178184836E-01  0.51100000000E-03 0.  1.
         11    1    4    4    0    0 -0.28190929929E-01 -0.61857273815E-01  0.40676333683E-01  0.79220427271E-01  0.51100000000E-03 0. -1.
</event>
<event>
 8    1  0.1126414E+005  0.1043930E+01  0.7957747E-01            NaN
         13   -1    0    0    0    0  0.00000000000E+00  0.00000000000E+00  0.74505805969E-08  0.10566000000E+00  0.10566000000E+00 0. -1.
     999900   -1    0    0    0    0 -0.00000000000E+00 -0.00000000000E+00 -0.74505805969E-08  0.93827000000E+00  0.93827000000E+00 0. -1.
     999902    2    1    2    0    0  0.84715261516E-02  0.21525521654E-01 -0.25420074170E-02  0.10206582008E+01  0.10203928587E+01 0.  0.
     999903    2    3    3    0    0  0.20658362545E-01 -0.80996632509E-01 -0.97009721073E-01  0.12960070543E+00  0.19955812288E-01 0.  0.
         14    1    1    2    0    0 -0.84715261516E-02 -0.21525521654E-01  0.25420074170E-02  0.23271799233E-01  0.00000000000E+00 0.  1.
     999901    1    3    3    0    0 -0.12186836393E-01  0.10252215416E+00  0.94467713656E-01  0.89105749534E+00  0.88000000000E+00 0.  1.
        -11    1    4    4    0    0  0.11696942067E-01 -0.17486423915E-01 -0.16987157328E-01  0.27044742745E-01  0.51100000000E-03 0. -1.
         11    1    4    4    0    0  0.89614204777E-02 -0.63510208594E-01 -0.80022563745E-01  0.10255596268E+00  0.51100000000E-03 0.  1.
</event>
<event>
 8    1  0.1126414E+005  0.1043930E+01  0.7957747E-01            NaN
         13   -1    0    0    0    0  0.00000000000E+00  0.00000000000E+00  0.74505805969E-08  0.10566000000E+00  0.10566000000E+00 0.  1.
     999900   -1    0    0    0    0 -0.00000000000E+00 -0.00000000000E+00 -0.74505805969E-08  0.93827000000E+00  0.93827000000E+00 0.  1.
     999902    2    1    2    0    0  0.17605787125E-02 -0.25202490845E-01  0.35614174256E-02  0.10184163002E+01  0.10180966613E+01 0.  0.
     999903    2    3    3    0    0  0.21101002686E-01 -0.11308271305E+00  0.61742630055E-01  0.13191641925E+00  0.18890129637E-01 0.  0.
         14    1    1    2    0    0 -0.17605787125E-02  0.25202490845E-01 -0.35614174256E-02  0.25513699777E-01  0.00000000000E+00 0. -1.
     999901    1    3    3    0    0 -0.19340423974E-01  0.87880222205E-01 -0.58181212630E-01  0.88649988097E+00  0.88000000000E+00 0.  1.
        -11    1    4    4    0    0  0.14689291307E-01 -0.99735764424E-01  0.47797615135E-01  0.11157002787E+00  0.51100000000E-03 0. -1.
         11    1    4    4    0    0  0.64117113789E-02 -0.13346948626E-01  0.13945014920E-01  0.20346391389E-01  0.51100000000E-03 0.  1.
</event>
<event>
 8    1  0.1126414E+005  0.1043930E+01  0.7957747E-01            NaN
         13   -1    0    0    0    0  0.00000000000E+00  0.00000000000E+00  0.74505805969E-08  0.10566000000E+00  0.10566000000E+00 0. -1.
     999900   -1    0    0    0    0 -0.00000000000E+00 -0.00000000000E+00 -0.74505805969E-08  0.93827000000E+00  0.93827000000E+00 0.  1.
     999902    2    1    2    0    0  0.23020059495E-01 -0.20053042238E-02  0.38338678109E-02  0.10205068720E+01  0.10202380275E+01 0.  0.
     999903    2    3    3    0    0 -0.66425930873E-02 -0.12233253809E+00 -0.40797055930E-01  0.13070327818E+00  0.20237915849E-01 0.  0.
         14    1    1    2    0    0 -0.23020059495E-01  0.20053042238E-02 -0.38338678109E-02  0.23423128027E-01  0.00000000000E+00 0.  1.
     999901    1    3    3    0    0  0.29662652583E-01  0.12032723386E+00  0.44630923741E-01  0.88980359379E+00  0.88000000000E+00 0. -1.
        -11    1    4    4    0    0  0.22833088156E-02 -0.24393795126E-01 -0.16042026758E-01  0.29289562702E-01  0.51100000000E-03 0. -1.
         11    1    4    4    0    0 -0.89259019029E-02 -0.97938742959E-01 -0.24755029172E-01  0.10141371548E+00  0.51100000000E-03 0.  1.
</event>
<event>
 8    1  0.1126414E+005  0.1043930E+01  0.7957747E-01            NaN
         13   -1    0    0    0    0  0.00000000000E+00  0.00000000000E+00  0.74505805969E-08  0.10566000000E+00  0.10566000000E+00 0.  1.
     999900   -1    0    0    0    0 -0.00000000000E+00 -0.00000000000E+00 -0.74505805969E-08  0.93827000000E+00  0.93827000000E+00 0.  1.
     999902    2    1    2    0    0  0.87658716803E-03 -0.22957253228E-01  0.13047863938E-02  0.10209189951E+01  0.10206596338E+01 0.  0.
     999903    2    3    3    0    0 -0.68759202480E-01  0.10455551163E+00  0.22052603549E-01  0.12876479296E+00  0.20841584512E-01 0.  0.
         14    1    1    2    0    0 -0.87658716803E-03  0.22957253228E-01 -0.13047863938E-02  0.23011004940E-01  0.00000000000E+00 0.  1.
     999901    1    3    3    0    0  0.69635789648E-01 -0.12751276486E+00 -0.20747817155E-01  0.89215420210E+00  0.88000000000E+00 0.  1.
        -11    1    4    4    0    0 -0.28025668509E-01  0.32540356140E-01 -0.70229716720E-03  0.42954245604E-01  0.51100000000E-03 0.  1.
         11    1    4    4    0    0 -0.40733533971E-01  0.72015155493E-01  0.22754900716E-01  0.85810547359E-01  0.51100000000E-03 0. -1.
</event>
<event>
 8    1  0.1126414E+005  0.1043930E+01  0.7957747E-01            NaN
         13   -1    0    0    0    0  0.00000000000E+00  0.00000000000E+00  0.74505805969E-08  0.10566000000E+00  0.10566000000E+00 0. -1.
     999900   -1    0    0    0    0 -0.00000000000E+00 -0.00000000000E+00 -0.74505805969E-08  0.93827000000E+00  0.93827000000E+00 0.  1.
     999902    2    1    2    0    0 -0.25223448638E-02 -0.48927311448E-02  0.23276518135E-01  0.10200114436E+01  0.10197309684E+01 0.  0.
     999903    2    3    3    0    0  0.11608137885E+00 -0.74213850368E-02 -0.51930563165E-01  0.12887209290E+00  0.19526122631E-01 0.  0.
         14    1    1    2    0    0  0.25223448638E-02  0.48927311448E-02 -0.23276518135E-01  0.23918556356E-01  0.00000000000E+00 0.  1.
     999901    1    3    3    0    0 -0.11860372372E+00  0.25286538919E-02  0.75207081300E-01  0.89113935075E+00  0.88000000000E+00 0. -1.
        -11    1    4    4    0    0  0.99792080376E-01 -0.13066732408E-01 -0.42947173167E-01  0.10942540658E+00  0.51100000000E-03 0. -1.
         11    1    4    4    0    0  0.16289298478E-01  0.56453473716E-02 -0.89833899977E-02  0.19446686317E-01  0.51100000000E-03 0.  1.
</event>
<event>
 8    1  0.1126414E+005  0.1043930E+01  0.7957747E-01            NaN
         13   -1    0    0    0    0  0.00000000000E+00  0.00000000000E+00  0.74505805969E-08  0.10566000000E+00  0.10566000000E+00 0.  1.
     999900   -1    0    0    0    0 -0.00000000000E+00 -0.00000000000E+00 -0.74505805969E-08  0.93827000000E+00  0.93827000000E+00 0. -1.
     999902    2    1    2    0    0 -0.25796725345E-02  0.23486862192E-01  0.19365969126E-02  0.10202226633E+01  0.10199471775E+01 0.  0.
     999903    2    3    3    0    0  0.12423682583E+00  0.51168861311E-02  0.33572978876E-01  0.13037956424E+00  0.20266090979E-01 0.  0.
         14    1    1    2    0    0  0.25796725345E-02 -0.23486862192E-01 -0.19365969126E-02  0.23707336704E-01  0.00000000000E+00 0.  1.
     999901    1    3    3    0    0 -0.12681649837E+00  0.18369976061E-01 -0.31636381964E-01  0.88984309906E+00  0.88000000000E+00 0. -1.
        -11    1    4    4    0    0  0.48912464915E-01 -0.76320773851E-02  0.15454526571E-01  0.51863101930E-01  0.51100000000E-03 0. -1.
         11    1    4    4    0    0  0.75324360917E-01  0.12748963516E-01  0.18118452306E-01  0.78516462307E-01  0.51100000000E-03 0.  1.
</event>
<event>
 8    1  0.1126414E+005  0.1043930E+01  0.7957747E-01            NaN
         13   -1    0    0    0    0  0.00000000000E+00  0.00000000000E+00  0.74505805969E-08  0.10566000000E+00  0.10566000000E+00 0. -1.
     999900   -1    0    0    0    0 -0.00000000000E+00 -0.00000000000E+00 -0.74505805969E-08  0.93827000000E+00  0.93827000000E+00 0.  1.
     999902    2    1    2    0    0 -0.17741016092E-01 -0.70471584433E-02  0.13252025644E-01  0.10206916206E+01  0.10204270489E+01 0.  0.
     999903    2    3    3    0    0  0.78838552591E-02 -0.85668210904E-01 -0.95213993108E-01  0.13018458460E+00  0.21934540110E-01 0.  0.
         14    1    1    2    0    0  0.17741016092E-01  0.70471584433E-02 -0.13252025644E-01  0.23238379414E-01  0.00000000000E+00 0.  1.
     999901    1    3    3    0    0 -0.25624871351E-01  0.78621052461E-01  0.10846601875E+00  0.89050703599E+00  0.88000000000E+00 0.  1.
        -11    1    4    4    0    0  0.13008815355E-01 -0.39950138195E-01 -0.37011046711E-01  0.55993941801E-01  0.51100000000E-03 0.  1.
         11    1    4    4    0    0 -0.51249600962E-02 -0.45718072709E-01 -0.58202946397E-01  0.74190642796E-01  0.51100000000E-03 0. -1.
</event>
<event>
 8    1  0.1126414E+005  0.1043930E+01  0.7957747E-01            NaN
         13   -1    0    0    0    0  0.00000000000E+00  0.00000000000E+00  0.74505805969E-08  0.10566000000E+00  0.10566000000E+00 0. -1.
     999900   -1    0    0    0    0 -0.00000000000E+00 -0.00000000000E+00 -0.74505805969E-08  0.93827000000E+00  0.93827000000E+00 0. -1.
     999902    2    1    2    0    0 -0.22111226486E-01 -0.33929684412E-02  0.69033350873E-02  0.10205190067E+01  0.10202504440E+01 0.  0.
     999903    2    3    3    0    0 -0.46817405569E-01 -0.70633617542E-01  0.10041533664E+00  0.13266981084E+00  0.18359234317E-01 0.  0.
         14    1    1    2    0    0  0.22111226486E-01  0.33929684412E-02 -0.69033350873E-02  0.23410993291E-01  0.00000000000E+00 0.  1.
     999901    1    3    3    0    0  0.24706179083E-01  0.67240649101E-01 -0.93512001548E-01  0.88784919587E+00  0.88000000000E+00 0. -1.
        -11    1    4    4    0    0 -0.64618413884E-02 -0.13214749296E-01  0.29105406159E-01  0.32615499103E-01  0.51100000000E-03 0. -1.
         11    1    4    4    0    0 -0.40355564180E-01 -0.57418868246E-01  0.71309930477E-01  0.10005431173E+00  0.51100000000E-03 0.  1.
</event>
<event>
 8    1  0.1171028E+005  0.1043930E+01  0.7957747E-01            NaN
         13   -1    0    0    0    0  0.00000000000E+00  0.00000000000E+00  0.74505805969E-08  0.10566000000E+00  0.10566000000E+00 0. -1.
     999900   -1    0    0    0    0 -0.00000000000E+00 -0.00000000000E+00 -0.74505805969E-08  0.93827000000E+00  0.93827000000E+00 0.  1.
     999902    2    1    2    0    0 -0.18243783829E-01  0.54733227255E-02  0.12953613114E-01  0.10208954824E+01  0.10206355848E+01 0.  0.
     999903    2    3    3    0    0  0.25679915187E-01  0.51204800180E-01 -0.11480845458E+00  0.12941143578E+00  0.16880428418E-01 0.  0.
         14    1    1    2    0    0  0.18243783829E-01 -0.54733227255E-02 -0.12953613114E-01  0.23034517637E-01  0.00000000000E+00 0.  1.
     999901    1    3    3    0    0 -0.43923699015E-01 -0.45731477455E-01  0.12776206769E+00  0.89148404658E+00  0.88000000000E+00 0. -1.
        -11    1    4    4    0    0  0.20540154576E-01  0.23774503851E-01 -0.53445609454E-01  0.61998542517E-01  0.51100000000E-03 0.  1.
         11    1    4    4    0    0  0.51397606106E-02  0.27430296329E-01 -0.61362845124E-01  0.67412893267E-01  0.51100000000E-03 0. -1.
</event>
<event>
 8    1  0.1126414E+005  0.1043930E+01  0.7957747E-01            NaN
         13   -1    0    0    0    0  0.00000000000E+00  0.00000000000E+00  0.74505805969E-08  0.10566000000E+00  0.10566000000E+00 0.  1.
     999900   -1    0    0    0    0 -0.00000000000E+00 -0.00000000000E+00 -0.74505805969E-08  0.93827000000E+00  0.93827000000E+00 0.  1.
     999902    2    1    2    0    0  0.22386454590E-01  0.63607760589E-02  0.39017851029E-02  0.10203326114E+01  0.10200597047E+01 0.  0.
     999903    2    3    3    0    0  0.25799385738E-01  0.10548072704E+00  0.73338590424E-01  0.13204331016E+00  0.16281733087E-01 0.  0.
         14    1    1    2    0    0 -0.22386454590E-01 -0.63607760589E-02 -0.39017851029E-02  0.23597388588E-01  0.00000000000E+00 0. -1.
     999901    1    3    3    0    0 -0.34129311473E-02 -0.99119950979E-01 -0.69436805321E-01  0.88828930125E+00  0.88000000000E+00 0.  1.
        -11    1    4    4    0    0  0.10481234913E-01  0.45180249057E-01  0.21794189575E-01  0.51248014698E-01  0.51100000000E-03 0. -1.
         11    1    4    4    0    0  0.15318150824E-01  0.60300477980E-01  0.51544400849E-01  0.80795295465E-01  0.51100000000E-03 0.  1.
</event>
<event>
 8    1  0.1126414E+005  0.1043930E+01  0.7957747E-01            NaN
         13   -1    0    0    0    0  0.00000000000E+00  0.00000000000E+00  0.74505805969E-08  0.10566000000E+00  0.10566000000E+00 0. -1.
     999900   -1    0    0    0    0 -0.00000000000E+00 -0.00000000000E+00 -0.74505805969E-08  0.93827000000E+00  0.93827000000E+00 0.  1.
     999902    2    1    2    0    0  0.50946895324E-02 -0.89568650381E-02  0.21855732901E-01  0.10197669217E+01  0.10194806130E+01 0.  0.
     999903    2    3    3    0    0 -0.75430227790E-01  0.58261446486E-01 -0.82116296325E-01  0.12745938134E+00  0.20461973440E-01 0.  0.
         14    1    1    2    0    0 -0.50946895324E-02  0.89568650381E-02 -0.21855732901E-01  0.24163078309E-01  0.00000000000E+00 0.  1.
     999901    1    3    3    0    0  0.80524917323E-01 -0.67218311524E-01  0.10397202923E+00  0.89230754036E+00  0.88000000000E+00 0. -1.
        -11    1    4    4    0    0 -0.23996362861E-01  0.28213124783E-01 -0.39923073434E-01  0.54460249301E-01  0.51100000000E-03 0. -1.
         11    1    4    4    0    0 -0.51433864929E-01  0.30048321703E-01 -0.42193222892E-01  0.72999132034E-01  0.51100000000E-03 0.  1.
</event>
<event>
 8    1  0.1126414E+005  0.1043930E+01  0.7957747E-01            NaN
         13   -1    0    0    0    0  0.00000000000E+00  0.00000000000E+00  0.74505805969E-08  0.10566000000E+00  0.10566000000E+00 0. -1.
     999900   -1    0    0    0    0 -0.00000000000E+00 -0.00000000000E+00 -0.74505805969E-08  0.93827000000E+00  0.93827000000E+00 0.  1.
     999902    2    1    2    0    0  0.54654390877E-03 -0.99358794876E-02  0.21500179612E-01  0.10202386907E+01  0.10199635817E+01 0.  0.
     999903    2    3    3    0    0  0.29813921481E-01 -0.22707652651E-01 -0.12105632151E+00  0.12819493979E+00  0.19359809083E-01 0.  0.
         14    1    1    2    0    0 -0.54654390877E-03  0.99358794876E-02 -0.21500179612E-01  0.23691309267E-01  0.00000000000E+00 0.  1.
     999901    1    3    3    0    0 -0.29267377572E-01  0.12771773163E-01  0.14255650112E+00  0.89204375094E+00  0.88000000000E+00 0. -1.
        -11    1    4    4    0    0  0.11879962075E-01 -0.10989522757E-01 -0.25058223095E-01  0.29834188023E-01  0.51100000000E-03 0.  1.
         11    1    4    4    0    0  0.17933959406E-01 -0.11718129894E-01 -0.95998098415E-01  0.98360751769E-01  0.51100000000E-03 0. -1.
</event>
<event>
 8    1  0.1126414E+005  0.1043930E+01  0.7957747E-01            NaN
         13   -1    0    0    0    0  0.00000000000E+00  0.00000000000E+00  0.74505805969E-08  0.10566000000E+00  0.10566000000E+00 0. -1.
     999900   -1    0    0    0    0 -0.00000000000E+00 -0.00000000000E+00 -0.74505805969E-08  0.93827000000E+00  0.93827000000E+00 0.  1.
     999902    2    1    2    0    0 -0.18637831426E-02 -0.73126297936E-02  0.22240862454E-01  0.10204437443E+01  0.10201734319E+01 0.  0.
     999903    2    3    3    0    0 -0.52028523885E-01  0.98664597508E-01  0.67262767242E-01  0.13152606208E+00  0.18252535474E-01 0.  0.
         14    1    1    2    0    0  0.18637831426E-02  0.73126297936E-02 -0.22240862454E-01  0.23486255658E-01  0.00000000000E+00 0. -1.
     999901    1    3    3    0    0  0.50164740743E-01 -0.10597722730E+00 -0.45021904787E-01  0.88891768226E+00  0.88000000000E+00 0.  1.
        -11    1    4    4    0    0 -0.98603083152E-02  0.13825744431E-01  0.35577907927E-02  0.17357876756E-01  0.51100000000E-03 0.  1.
         11    1    4    4    0    0 -0.42168215570E-01  0.84838853078E-01  0.63704976449E-01  0.11416818533E+00  0.51100000000E-03 0. -1.
</event>
<event>
 8    1  0.1126414E+005  0.1043930E+01  0.7957747E-01            NaN
         13   -1    0    0    0    0  0.00000000000E+00  0.00000000000E+00  0.74505805969E-08  0.10566000000E+00  0.10566000000E+00 0.  1.
     999900   -1    0    0    0    0 -0.00000000000E+00 -0.00000000000E+00 -0.74505805969E-08  0.93827000000E+00  0.93827000000E+00 0.  1.
     999902    2    1    2    0    0 -0.12224632071E-01  0.39164526169E-02 -0.27146015436E-01  0.10139019067E+01  0.10134571476E+01 0.  0.
     999903    2    3    3    0    0  0.73786612211E-01 -0.83463211407E-01  0.46458144510E-01  0.12235790212E+00  0.20063031170E-01 0.  0.
         14    1    1    2    0    0  0.12224632071E-01 -0.39164526169E-02  0.27146015436E-01  0.30028093253E-01  0.00000000000E+00 0.  1.
     999901    1    3    3    0    0 -0.86011244282E-01  0.87379664024E-01 -0.73604159945E-01  0.89154400463E+00  0.88000000000E+00 0. -1.
        -11    1    4    4    0    0  0.38907809747E-01 -0.35474630048E-01  0.12957214260E-01  0.54225617182E-01  0.51100000000E-03 0. -1.
         11    1    4    4    0    0  0.34878802464E-01 -0.47988581358E-01  0.33500930250E-01  0.68132284937E-01  0.51100000000E-03 0.  1.
</event>
<event>
 8    1  0.1126414E+005  0.1043930E+01  0.7957747E-01            NaN
         13   -1    0    0    0    0  0.00000000000E+00  0.00000000000E+00  0.74505805969E-08  0.10566000000E+00  0.10566000000E+00 0.  1.
     999900   -1    0    0    0    0 -0.00000000000E+00 -0.00000000000E+00 -0.74505805969E-08  0.93827000000E+00  0.93827000000E+00 0.  1.
     999902    2    1    2    0    0 -0.22411462732E-01  0.41507328068E-02 -0.61970190589E-02  0.10203099812E+01  0.10200365446E+01 0.  0.
     999903    2    3    3    0    0 -0.11488124630E-01  0.12932796411E+00 -0.10158355910E-02  0.13136931767E+00  0.19979148963E-01 0.  0.
         14    1    1    2    0    0  0.22411462732E-01 -0.41507328068E-02  0.61970190589E-02  0.23620018836E-01  0.00000000000E+00 0. -1.
     999901    1    3    3    0    0 -0.10923338102E-01 -0.12517723131E+00 -0.51811834679E-02  0.88894066350E+00  0.88000000000E+00 0.  1.
        -11    1    4    4    0    0 -0.33673412900E-03  0.98946094186E-01 -0.23215961042E-02  0.98975218484E-01  0.51100000000E-03 0. -1.
         11    1    4    4    0    0 -0.11151390501E-01  0.30381869928E-01  0.13057605131E-02  0.32394099184E-01  0.51100000000E-03 0.  1.
</event>
<event>
 8    1  0.1126414E+005  0.1043930E+01  0.7957747E-01            NaN
         13   -1    0    0    0    0  0.00000000000E+00  0.00000000000E+00  0.74505805969E-08  0.10566000000E+00  0.10566000000E+00 0.  1.
     999900   -1    0    0    0    0 -0.00000000000E+00 -0.00000000000E+00 -0.74505805969E-08  0.93827000000E+00  0.93827000000E+00 0.  1.
     999902    2    1    2    0    0  0.90886195040E-02 -0.21688221711E-01  0.37317390855E-02  0.10201201734E+01  0.10198422723E+01 0.  0.
     999903    2    3    3    0    0  0.93928437359E-02 -0.13024269608E+00  0.17352044604E-01  0.13334529827E+00  0.20699993358E-01 0.  0.
         14    1    1    2    0    0 -0.90886195040E-02  0.21688221711E-01 -0.37317390855E-02  0.23809826587E-01  0.00000000000E+00 0. -1.
     999901    1    3    3    0    0 -0.30422423187E-03  0.10855447437E+00 -0.13620305519E-01  0.88677487514E+00  0.88000000000E+00 0.  1.
        -11    1    4    4    0    0  0.14595237726E-01 -0.78586279843E-01  0.57074589944E-02  0.80135264104E-01  0.51100000000E-03 0. -1.
         11    1    4    4    0    0 -0.52023939902E-02 -0.51656416233E-01  0.11644585610E-01  0.53210034170E-01  0.51100000000E-03 0.  1.
</event>
<event>
 8    1  0.1126414E+005  0.1043930E+01  0.7957747E-01            NaN
         13   -1    0    0    0    0  0.00000000000E+00  0.00000000000E+00  0.74505805969E-08  0.10566000000E+00  0.10566000000E+00 0. -1.
     999900   -1    0    0    0    0 -0.00000000000E+00 -0.00000000000E+00 -0.74505805969E-08  0.93827000000E+00  0.93827000000E+00 0.  1.
     999902    2    1    2    0    0 -0.12588140110E-01 -0.20738083719E-01  0.21033381947E-02  0.10195793651E+01  0.10192885403E+01 0.  0.
     999903    2    3    3    0    0 -0.25690505805E-01 -0.10893692877E+00 -0.67745826113E-01  0.13231975598E+00  0.19793037344E-01 0.  0.
         14    1    1    2    0    0  0.12588140110E-01  0.20738083719E-01 -0.21033381947E-02  0.24350634886E-01  0.00000000000E+00 0. -1.
     999901    1    3    3    0    0  0.13102365695E-01  0.88198845051E-01  0.69849164307E-01  0.88725960914E+00  0.88000000000E+00 0. -1.
        -11    1    4    4    0    0  0.14973369186E-02 -0.10794493332E-01 -0.19731201160E-02  0.11086813254E-01  0.51100000000E-03 0. -1.
         11    1    4    4    0    0 -0.27187842723E-01 -0.98142435439E-01 -0.65772705997E-01  0.12123294272E+00  0.51100000000E-03 0.  1.
</event>
<event>
 8    1  0.1126414E+005  0.1043930E+01  0.7957747E-01            NaN
         13   -1    0    0    0    0  0.00000000000E+00  0.00000000000E+00  0.74505805969E-08  0.10566000000E+00  0.10566000000E+00 0.  1.
     999900   -1    0    0    0    0 -0.00000000000E+00 -0.00000000000E+00 -0.74505805969E-08  0.93827000000E+00  0.93827000000E+00 0.  1.
     999902    2    1    2    0    0  0.62225281666E-02  0.40160534657E-02 -0.22592470023E-01  0.10201546295E+01  0.10198775416E+01 0.  0.
     999903    2    3    3    0    0  0.43094148384E-02  0.40633620821E-01  0.11966358262E+00  0.12797679363E+00  0.19723704168E-01 0.  0.
         14    1    1    2    0    0 -0.62225281666E-02 -0.40160534657E-02  0.22592470023E-01  0.23775370533E-01  0.00000000000E+00 0.  1.
     999901    1    3    3    0    0  0.19131133282E-02 -0.36617567355E-01 -0.14225605264E+00  0.89217783583E+00  0.88000000000E+00 0.  1.
        -11    1    4    4    0    0 -0.52989597640E-02  0.26357168178E-02  0.20630816610E-01  0.21468993752E-01  0.51100000000E-03 0. -1.
         11    1    4    4    0    0  0.96083746024E-02  0.37997904003E-01  0.99032766009E-01  0.10650779988E+00  0.51100000000E-03 0.  1.
</event>
<event>
 8    1  0.1126414E+005  0.1043930E+01  0.7957747E-01            NaN
         13   -1    0    0    0    0  0.00000000000E+00  0.00000000000E+00  0.74505805969E-08  0.10566000000E+00  0.10566000000E+00 0. -1.
     999900   -1    0    0    0    0 -0.00000000000E+00 -0.00000000000E+00 -0.74505805969E-08  0.93827000000E+00  0.93827000000E+00 0.  1.
     999902    2    1    2    0    0  0.25369528358E-02 -0.15909412935E-01 -0.17382426280E-01  0.10202299094E+01  0.10199545940E+01 0.  0.
     999903    2    3    3    0    0 -0.10739998560E+00 -0.55401217626E-01  0.44611751479E-01  0.13034845039E+00  0.19911261299E-01 0.  0.
         14    1    1    2    0    0 -0.25369528358E-02  0.15909412935E-01  0.17382426280E-01  0.23700090570E-01  0.00000000000E+00 0. -1.
     999901    1    3    3    0    0  0.10993693844E+00  0.39491804691E-01 -0.61994177759E-01  0.88988145904E+00  0.88000000000E+00 0. -1.
        -11    1    4    4    0    0 -0.69466084655E-01 -0.38707750741E-01  0.19475172450E-01  0.81874112805E-01  0.51100000000E-03 0.  1.
         11    1    4    4    0    0 -0.37933900949E-01 -0.16693466885E-01  0.25136579029E-01  0.48474337583E-01  0.51100000000E-03 0. -1.
</event>
<event>
 8    1  0.1126414E+005  0.1043930E+01  0.7957747E-01            NaN
         13   -1    0    0    0    0  0.00000000000E+00  0.00000000000E+00  0.74505805969E-08  0.10566000000E+00  0.10566000000E+00 0.  1.
     999900   -1    0    0    0    0 -0.00000000000E+00 -0.00000000000E+00 -0.74505805969E-08  0.93827000000E+00  0.93827000000E+00 0. -1.
     999902    2    1    2    0    0 -0.87066272503E-02 -0.16464906693E-01 -0.14648414363E-01  0.10202345457E+01  0.10199593392E+01 0.  0.
     999903    2    3    3    0    0  0.88377139830E-01  0.36788038217E-01 -0.86190987680E-01  0.13041463485E+00  0.20376752087E-01 0.  0.
         14    1    1    2    0    0  0.87066272503E-02  0.16464906693E-01  0.14648414363E-01  0.23695454286E-01  0.00000000000E+00 0. -1.
     999901    1    3    3    0    0 -0.97083767081E-01 -0.53252944910E-01  0.71542573317E-01  0.88981991086E+00  0.88000000000E+00 0.  1.
        -11    1    4    4    0    0  0.31096076191E-01  0.53339744958E-02 -0.36944941854E-01  0.48586079159E-01  0.51100000000E-03 0.  1.
         11    1    4    4    0    0  0.57281063639E-01  0.31454063721E-01 -0.49246045826E-01  0.81828555692E-01  0.51100000000E-03 0. -1.
</event>
<event>
 8    1  0.1126414E+005  0.1043930E+01  0.7957747E-01            NaN
         13   -1    0    0    0    0  0.00000000000E+00  0.00000000000E+00  0.74505805969E-08  0.10566000000E+00  0.10566000000E+00 0.  1.
     999900   -1    0    0    0    0 -0.00000000000E+00 -0.00000000000E+00 -0.74505805969E-08  0.93827000000E+00  0.93827000000E+00 0.  1.
     999902    2    1    2    0    0  0.17567127260E-01 -0.15435100547E-01 -0.46226736789E-02  0.10200927308E+01  0.10198141812E+01 0.  0.
     999903    2    3    3    0    0  0.58051246237E-01 -0.36468371757E-01  0.11051113649E+00  0.13142116236E+00  0.18945218386E-01 0.  0.
         14    1    1    2    0    0 -0.17567127260E-01  0.15435100547E-01  0.46226736789E-02  0.23837269160E-01  0.00000000000E+00 0. -1.
     999901    1    3    3    0    0 -0.40484118977E-01  0.21033271210E-01 -0.11513381016E+00  0.88867156848E+00  0.88000000000E+00 0.  1.
        -11    1    4    4    0    0  0.15121673565E-01 -0.19789740970E-01  0.34712652702E-01  0.42726200834E-01  0.51100000000E-03 0. -1.
         11    1    4    4    0    0  0.42929572672E-01 -0.16678630786E-01  0.75798483783E-01  0.88694961523E-01  0.51100000000E-03 0.  1.
</event>
<event>
 8    1  0.1126414E+005  0.1043930E+01  0.7957747E-01            NaN
         13   -1    0    0    0    0  0.00000000000E+00  0.00000000000E+00  0.74505805969E-08  0.10566000000E+00  0.10566000000E+00 0. -1.
     999900   -1    0    0    0    0 -0.00000000000E+00 -0.00000000000E+00 -0.74505805969E-08  0.93827000000E+00  0.93827000000E+00 0.  1.
     999902    2    1    2    0    0 -0.82956753188E-02  0.20616457842E-01  0.83014839278E-02  0.10202072009E+01  0.10199313514E+01 0.  0.
     999903    2    3    3    0    0 -0.26394279677E-01 -0.11767262466E+00  0.40533711044E-01  0.12864096874E+00  0.19026626403E-01 0.  0.
         14    1    1    2    0    0  0.82956753188E-02 -0.20616457842E-01 -0.83014839278E-02  0.23722799125E-01  0.00000000000E+00 0. -1.
     999901    1    3    3    0    0  0.18098604358E-01  0.13828908251E+00 -0.32232227116E-01  0.89156623214E+00  0.88000000000E+00 0. -1.
        -11    1    4    4    0    0 -0.69032360761E-02 -0.18256208425E-01  0.13654846692E-01  0.23825611714E-01  0.51100000000E-03 0.  1.
         11    1    4    4    0    0 -0.19491043601E-01 -0.99416416238E-01  0.26878864351E-01  0.10481535702E+00  0.51100000000E-03 0. -1.
</event>
<event>
 8    1  0.1126414E+005  0.1043930E+01  0.7957747E-01            NaN
         13   -1    0    0    0    0  0.00000000000E+00  0.00000000000E+00  0.74505805969E-08  0.10566000000E+00  0.10566000000E+00 0.  1.
     999900   -1    0    0    0    0 -0.00000000000E+00 -0.00000000000E+00 -0.74505805969E-08  0.93827000000E+00  0.93827000000E+00 0.  1.
     999902    2    1    2    0    0 -0.25300112016E-01 -0.47880169276E-02 -0.43493156749E-02  0.10178160704E+01  0.10174810149E+01 0.  0.
     999903    2    3    3    0    0 -0.86220388145E-01 -0.66572269033E-01 -0.70173489642E-01  0.13110225197E+00  0.19941401345E-01 0.  0.
         14    1    1    2    0    0  0.25300112016E-01  0.47880169276E-02  0.43493156749E-02  0.26113929634E-01  0.00000000000E+00 0. -1.
     999901    1    3    3    0    0  0.60920276129E-01  0.61784252105E-01  0.65824173967E-01  0.88671381839E+00  0.88000000000E+00 0.  1.
        -11    1    4    4    0    0 -0.35324311549E-01 -0.37263501970E-01 -0.39882502442E-01  0.65017310676E-01  0.51100000000E-03 0.  1.
         11    1    4    4    0    0 -0.50896076596E-01 -0.29308767063E-01 -0.30290987200E-01  0.66084941296E-01  0.51100000000E-03 0. -1.
</event>
<event>
 8    1  0.1126414E+005  0.1043930E+01  0.7957747E-01            NaN
         13   -1    0    0    0    0  0.00000000000E+00  0.00000000000E+00  0.74505805969E-08  0.10566000000E+00  0.10566000000E+00 0.  1.
     999900   -1    0    0    0    0 -0.00000000000E+00 -0.00000000000E+00 -0.74505805969E-08  0.93827000000E+00  0.93827000000E+00 0.  1.
     999902    2    1    2    0    0  0.24082741363E-02 -0.17919318094E-01 -0.16873548195E-01  0.10191990806E+01  0.10188989879E+01 0.  0.
     999903    2    3    3    0    0 -0.16448775670E-01 -0.78368880795E-01 -0.10388232686E+00  0.13264380003E+00  0.19763505615E-01 0.  0.
         14    1    1    2    0    0 -0.24082741363E-02  0.17919318094E-01  0.16873548195E-01  0.24730919392E-01  0.00000000000E+00 0. -1.
     999901    1    3    3    0    0  0.18857049806E-01  0.60449562701E-01  0.87008778665E-01  0.88655528058E+00  0.88000000000E+00 0. -1.
        -11    1    4    4    0    0 -0.10196846061E-01 -0.65674758407E-01 -0.73319775911E-01  0.98960599341E-01  0.51100000000E-03 0.  1.
         11    1    4    4    0    0 -0.62519296093E-02 -0.12694122388E-01 -0.30562550949E-01  0.33683200687E-01  0.51100000000E-03 0. -1.
</event>
<event>
 8    1  0.1126414E+005  0.1043930E+01  0.7957747E-01            NaN
         13   -1    0    0    0    0  0.00000000000E+00  0.00000000000E+00  0.74505805969E-08  0.10566000000E+00  0.10566000000E+00 0. -1.
     999900   -1    0    0    0    0 -0.00000000000E+00 -0.00000000000E+00 -0.74505805969E-08  0.93827000000E+00  0.93827000000E+00 0. -1.
     999902    2    1    2    0    0 -0.91332693431E-02 -0.14640201007E-01  0.15890514315E-01  0.10204723671E+01  0.10202027208E+01 0.  0.
     999903    2    3    3    0    0 -0.70937445983E-01 -0.18734920863E-01  0.10937415043E+00  0.13335585100E+00  0.20927486949E-01 0.  0.
         14    1    1    2    0    0  0.91332693431E-02  0.14640201007E-01 -0.15890514315E-01  0.23457632865E-01  0.00000000000E+00 0.  1.
     999901    1    3    3    0    0  0.61804176640E-01  0.40947198561E-02 -0.93483636119E-01  0.88711651614E+00  0.88000000000E+00 0.  1.
        -11    1    4    4    0    0 -0.38150452569E-01  0.71356629435E-03  0.55832445258E-01  0.67627577752E-01  0.51100000000E-03 0.  1.
         11    1    4    4    0    0 -0.32786993414E-01 -0.19448487157E-01  0.53541705176E-01  0.65728273246E-01  0.51100000000E-03 0. -1.
</event>
<event>
 8    1  0.1126414E+005  0.1043930E+01  0.7957747E-01            NaN
         13   -1    0    0    0    0  0.00000000000E+00  0.00000000000E+00  0.74505805969E-08  0.10566000000E+00  0.10566000000E+00 0.  1.
     999900   -1    0    0    0    0 -0.00000000000E+00 -0.00000000000E+00 -0.74505805969E-08  0.93827000000E+00  0.93827000000E+00 0.  1.
     999902    2    1    2    0    0 -0.91939083010E-02 -0.13701431558E-02 -0.21023675372E-01  0.10209430435E+01  0.10206842303E+01 0.  0.
     999903    2    3    3    0    0  0.59321380518E-01  0.11447986276E+00 -0.67352830944E-02  0.13059495045E+00  0.19621719649E-01 0.  0.
         14    1    1    2    0    0  0.91939083010E-02  0.13701431558E-02  0.21023675372E-01  0.22986956481E-01  0.00000000000E+00 0.  1.
     999901    1    3    3    0    0 -0.68515288819E-01 -0.11585000591E+00 -0.14288392278E-01  0.89034809307E+00  0.88000000000E+00 0. -1.
        -11    1    4    4    0    0  0.56398330310E-01  0.98061483079E-01 -0.15906172224E-02  0.11313539371E+00  0.51100000000E-03 0.  1.
         11    1    4    4    0    0  0.29230502075E-02  0.16418379679E-01 -0.51446658720E-02  0.17459556745E-01  0.51100000000E-03 0. -1.
</event>
<event>
 8    1  0.1126414E+005  0.1043930E+01  0.7957747E-01            NaN
         13   -1    0    0    0    0  0.00000000000E+00  0.00000000000E+00  0.74505805969E-08  0.10566000000E+00  0.10566000000E+00 0.  1.
     999900   -1    0    0    0    0 -0.00000000000E+00 -0.00000000000E+00 -0.74505805969E-08  0.93827000000E+00  0.93827000000E+00 0.  1.
     999902    2    1    2    0    0 -0.14636196162E-01 -0.41514951463E-02 -0.17056304328E-01  0.10210745703E+01  0.10208187437E+01 0.  0.
     999903    2    3    3    0    0 -0.76909635271E-01 -0.10644396001E+00  0.16393764351E-02  0.13276648293E+00  0.19463884872E-01 0.  0.
         14    1    1    2    0    0  0.14636196162E-01  0.41514951463E-02  0.17056304328E-01  0.22855429713E-01  0.00000000000E+00 0.  1.
     999901    1    3    3    0    0  0.62273439110E-01  0.10229246486E+00 -0.18695680763E-01  0.88830808736E+00  0.88000000000E+00 0.  1.
        -11    1    4    4    0    0 -0.44822914023E-01 -0.66788597343E-01  0.10057813616E-01  0.81063130289E-01  0.51100000000E-03 0. -1.
         11    1    4    4    0    0 -0.32086721249E-01 -0.39655362667E-01 -0.84184371806E-02  0.51703352641E-01  0.51100000000E-03 0.  1.
</event>
<event>
 8    1  0.1126414E+005  0.1043930E+01  0.7957747E-01            NaN
         13   -1    0    0    0    0  0.00000000000E+00  0.00000000000E+00  0.74505805969E-08  0.10566000000E+00  0.10566000000E+00 0.  1.
     999900   -1    0    0    0    0 -0.00000000000E+00 -0.00000000000E+00 -0.74505805969E-08  0.93827000000E+00  0.93827000000E+00 0. -1.
     999902    2    1    2    0    0  0.25733695708E-01  0.11988929117E-01 -0.31092837495E-03  0.10155389065E+01  0.10151419686E+01 0.  0.
     999903    2    3    3    0    0 -0.99173806782E-01 -0.62397828131E-01  0.30790277630E-01  0.12306898604E+00  0.21656436029E-01 0.  0.
         14    1    1    2    0    0 -0.25733695708E-01 -0.11988929117E-01  0.31092837495E-03  0.28391093543E-01  0.00000000000E+00 0. -1.
     999901    1    3    3    0    0  0.12490750249E+00  0.74386757248E-01 -0.31101206005E-01  0.89246992042E+00  0.88000000000E+00 0.  1.
        -11    1    4    4    0    0 -0.67221387579E-01 -0.35150950673E-01  0.28416591313E-01  0.81006592720E-01  0.51100000000E-03 0. -1.
         11    1    4    4    0    0 -0.31952419203E-01 -0.27246877458E-01  0.23736863167E-02  0.42062393321E-01  0.51100000000E-03 0.  1.
</event>
<event>
 8    1  0.1126414E+005  0.1043930E+01  0.7957747E-01            NaN
         13   -1    0    0    0    0  0.00000000000E+00  0.00000000000E+00  0.74505805969E-08  0.10566000000E+00  0.10566000000E+00 0.  1.
     999900   -1    0    0    0    0 -0.00000000000E+00 -0.00000000000E+00 -0.74505805969E-08  0.93827000000E+00  0.93827000000E+00 0. -1.
     999902    2    1    2    0    0 -0.20928223569E-01 -0.14243928111E-02  0.11471194633E-01  0.10200216805E+01  0.10197414481E+01 0.  0.
     999903    2    3    3    0    0  0.80820350046E-01  0.17808563614E-01  0.98026450096E-01  0.12973268745E+00  0.19295371307E-01 0.  0.
         14    1    1    2    0    0  0.20928223569E-01  0.14243928111E-02 -0.11471194633E-01  0.23908319534E-01  0.00000000000E+00 0. -1.
     999901    1    3    3    0    0 -0.10174857361E+00 -0.19232956425E-01 -0.86555255463E-01  0.89028899302E+00  0.88000000000E+00 0. -1.
        -11    1    4    4    0    0  0.42739541962E-01  0.11360431525E-01  0.66549632825E-01  0.79905210103E-01  0.51100000000E-03 0.  1.
         11    1    4    4    0    0  0.38080808084E-01  0.64481320891E-02  0.31476817271E-01  0.49827477342E-01  0.51100000000E-03 0. -1.
</event>
<event>
 8    1  0.1126414E+005  0.1043930E+01  0.7957747E-01            NaN
         13   -1    0    0    0    0  0.00000000000E+00  0.00000000000E+00  0.74505805969E-08  0.10566000000E+00  0.10566000000E+00 0. -1.
     999900   -1    0    0    0    0 -0.00000000000E+00 -0.00000000000E+00 -0.74505805969E-08  0.93827000000E+00  0.93827000000E+00 0. -1.
     999902    2    1    2    0    0 -0.71506997598E-02 -0.14984490010E-01 -0.17874825033E-01  0.10195337540E+01  0.10192418255E+01 0.  0.
     999903    2    3    3    0    0  0.63724520639E-01 -0.11166855789E+00 -0.15851440879E-01  0.13140358342E+00  0.22021630397E-01 0.  0.
         14    1    1    2    0    0  0.71506997598E-02  0.14984490010E-01  0.17874825033E-01  0.24396245979E-01  0.00000000000E+00 0. -1.
     999901    1    3    3    0    0 -0.70875220399E-01  0.96684067882E-01 -0.20233841539E-02  0.88813017060E+00  0.88000000000E+00 0. -1.
        -11    1    4    4    0    0  0.24692863576E-01 -0.57131640425E-01 -0.16278057138E-01  0.64335045771E-01  0.51100000000E-03 0.  1.
         11    1    4    4    0    0  0.39031657063E-01 -0.54536917467E-01  0.42661625938E-03  0.67068537648E-01  0.51100000000E-03 0. -1.
</event>
<event>
 8    1  0.1126414E+005  0.1043930E+01  0.7957747E-01            NaN
         13   -1    0    0    0    0  0.00000000000E+00  0.00000000000E+00  0.74505805969E-08  0.10566000000E+00  0.10566000000E+00 0. -1.
     999900   -1    0    0    0    0 -0.00000000000E+00 -0.00000000000E+00 -0.74505805969E-08  0.93827000000E+00  0.93827000000E+00 0. -1.
     999902    2    1    2    0    0  0.20316170250E-02  0.33129393958E-01  0.18624482778E-02  0.10106861596E+01  0.10101392777E+01 0.  0.
     999903    2    3    3    0    0 -0.37142364581E-01 -0.10673030845E+00  0.29690388474E-01  0.11834668862E+00  0.18801743325E-01 0.  0.
         14    1    1    2    0    0 -0.20316170250E-02 -0.33129393958E-01 -0.18624482778E-02  0.33243840412E-01  0.00000000000E+00 0.  1.
     999901    1    3    3    0    0  0.39173981606E-01  0.13985970240E+00 -0.27827940196E-01  0.89233947097E+00  0.88000000000E+00 0. -1.
        -11    1    4    4    0    0 -0.28226946495E-01 -0.66999754776E-01  0.10969092903E-01  0.73527612286E-01  0.51100000000E-03 0. -1.
         11    1    4    4    0    0 -0.89154180861E-02 -0.39730553670E-01  0.18721295570E-01  0.44819076334E-01  0.51100000000E-03 0.  1.
</event>
<event>
 8    1  0.1126414E+005  0.1043930E+01  0.7957747E-01            NaN
         13   -1    0    0    0    0  0.00000000000E+00  0.00000000000E+00  0.74505805969E-08  0.10566000000E+00  0.10566000000E+00 0.  1.
     999900   -1    0    0    0    0 -0.00000000000E+00 -0.00000000000E+00 -0.74505805969E-08  0.93827000000E+00  0.93827000000E+00 0. -1.
     999902    2    1    2    0    0  0.50639205118E-02  0.95299439453E-02 -0.21118432824E-01  0.10202139437E+01  0.10199382528E+01 0.  0.
     999903    2    3    3    0    0  0.60302864616E-01  0.11515057955E+00 -0.11464836681E-01  0.13212596857E+00  0.20730114274E-01 0.  0.
         14    1    1    2    0    0 -0.50639205118E-02 -0.95299439453E-02  0.21118432824E-01  0.23716056322E-01  0.00000000000E+00 0.  1.
     999901    1    3    3    0    0 -0.55238944104E-01 -0.10562063561E+00 -0.96535961430E-02  0.88808797511E+00  0.88000000000E+00 0. -1.
        -11    1    4    4    0    0  0.45858437685E-01  0.77076145953E-01  0.46368322297E-03  0.89689490494E-01  0.51100000000E-03 0.  1.
         11    1    4    4    0    0  0.14444426931E-01  0.38074433602E-01 -0.11928519903E-01  0.42436478076E-01  0.51100000000E-03 0. -1.
</event>
<event>
 8    1  0.1126414E+005  0.1043930E+01  0.7957747E-01            NaN
         13   -1    0    0    0    0  0.00000000000E+00  0.00000000000E+00  0.74505805969E-08  0.10566000000E+00  0.10566000000E+00 0. -1.
     999900   -1    0    0    0    0 -0.00000000000E+00 -0.00000000000E+00 -0.74505805969E-08  0.93827000000E+00  0.93827000000E+00 0. -1.
     999902    2    1    2    0    0 -0.22587041932E-01  0.38080451198E-02  0.43537876034E-02  0.10206141012E+01  0.10203477409E+01 0.  0.
     999903    2    3    3    0    0 -0.61772752635E-01 -0.11412319345E+00  0.12210140711E-01  0.13184809192E+00  0.19870972643E-01 0.  0.
         14    1    1    2    0    0  0.22587041932E-01 -0.38080451198E-02 -0.43537876034E-02  0.23315898811E-01  0.00000000000E+00 0. -1.
     999901    1    3    3    0    0  0.39185710703E-01  0.11793123857E+00 -0.78563531071E-02  0.88876600927E+00  0.88000000000E+00 0. -1.
        -11    1    4    4    0    0 -0.22733790438E-01 -0.62106682423E-01  0.35300812149E-02  0.66232830407E-01  0.51100000000E-03 0.  1.
         11    1    4    4    0    0 -0.39038962197E-01 -0.52016511030E-01  0.86800594957E-02  0.65615261510E-01  0.51100000000E-03 0. -1.
</event>
<event>
 8    1  0.1126414E+005  0.1043930E+01  0.7957747E-01            NaN
         13   -1    0    0    0    0  0.00000000000E+00  0.00000000000E+00  0.74505805969E-08  0.10566000000E+00  0.10566000000E+00 0. -1.
     999900   -1    0    0    0    0 -0.00000000000E+00 -0.00000000000E+00 -0.74505805969E-08  0.93827000000E+00  0.93827000000E+00 0.  1.
     999902    2    1    2    0    0 -0.10506604495E-01 -0.13100114972E-01 -0.15995380848E-01  0.10207383213E+01  0.10204748241E+01 0.  0.
     999903    2    3    3    0    0 -0.13995665849E-01 -0.13047438656E+00 -0.66696623835E-02  0.13288931267E+00  0.19890721815E-01 0.  0.
         14    1    1    2    0    0  0.10506604495E-01  0.13100114972E-01  0.15995380848E-01  0.23191678654E-01  0.00000000000E+00 0. -1.
     999901    1    3    3    0    0  0.34890613540E-02  0.11737427159E+00 -0.93257184646E-02  0.88784900868E+00  0.88000000000E+00 0.  1.
        -11    1    4    4    0    0 -0.75791406961E-02 -0.10577072600E+00  0.15986814932E-02  0.10605520617E+00  0.51100000000E-03 0.  1.
         11    1    4    4    0    0 -0.64165251531E-02 -0.24703660565E-01 -0.82683438767E-02  0.26834106503E-01  0.51100000000E-03 0. -1.
</event>
<event>
 8    1  0.1126414E+005  0.1043930E+01  0.7957747E-01            NaN
         13   -1    0    0    0    0  0.00000000000E+00  0.00000000000E+00  0.74505805969E-08  0.10566000000E+00  0.10566000000E+00 0.  1.
     999900   -1    0    0    0    0 -0.00000000000E+00 -0.00000000000E+00 -0.74505805969E-08  0.93827000000E+00  0.93827000000E+00 0.  1.
     999902    2    1    2    0    0 -0.19956830221E-02  0.37196969504E-03 -0.23155645604E-01  0.10206855375E+01  0.10204208257E+01 0.  0.
     999903    2    3    3    0    0 -0.57535391116E-01  0.11002592795E+00 -0.40290608422E-01  0.13197734206E+00  0.19459178814E-01 0.  0.
         14    1    1    2    0    0  0.19956830221E-02 -0.37196969504E-03  0.23155645604E-01  0.23244462470E-01  0.00000000000E+00 0.  1.
     999901    1    3    3    0    0  0.55539708094E-01 -0.10965395825E+00  0.17134962817E-01  0.88870819546E+00  0.88000000000E+00 0.  1.
        -11    1    4    4    0    0 -0.53685799100E-01  0.90017197675E-01 -0.37908081075E-01  0.11145646968E+00  0.51100000000E-03 0. -1.
         11    1    4    4    0    0 -0.38495920154E-02  0.20008730272E-01 -0.23825273470E-02  0.20520872383E-01  0.51100000000E-03 0.  1.
</event>
<event>
 8    1  0.1126414E+005  0.1043930E+01  0.7957747E-01            NaN
         13   -1    0    0    0    0  0.00000000000E+00  0.00000000000E+00  0.74505805969E-08  0.10566000000E+00  0.10566000000E+00 0. -1.
     999900   -1    0    0    0    0 -0.00000000000E+00 -0.00000000000E+00 -0.74505805969E-08  0.93827000000E+00  0.93827000000E+00 0. -1.
     999902    2    1    2    0    0  0.61728913586E-02  0.13076133417E-03 -0.24068896646E-01  0.10190817914E+01  0.10187788102E+01 0.  0.
     999903    2    3    3    0    0  0.38431556357E-02  0.11410159454E+00  0.54430749650E-01  0.12826364329E+00  0.21328665227E-01 0.  0.
         14    1    1    2    0    0 -0.61728913586E-02 -0.13076133417E-03  0.24068896646E-01  0.24848208627E-01  0.00000000000E+00 0. -1.
     999901    1    3    3    0    0  0.23297357229E-02 -0.11397083320E+00 -0.78499646296E-01  0.89081814809E+00  0.88000000000E+00 0. -1.
        -11    1    4    4    0    0 -0.14919598957E-02  0.75091679606E-02  0.10128909340E-01  0.12707063910E-01  0.51100000000E-03 0.  1.
         11    1    4    4    0    0  0.53351155315E-02  0.10659242658E+00  0.44301840310E-01  0.11555657938E+00  0.51100000000E-03 0. -1.
</event>
<event>
 8    1  0.1126414E+005  0.1043930E+01  0.7957747E-01            NaN
         13   -1    0    0    0    0  0.00000000000E+00  0.00000000000E+00  0.74505805969E-08  0.10566000000E+00  0.10566000000E+00 0. -1.
     999900   -1    0    0    0    0 -0.00000000000E+00 -0.00000000000E+00 -0.74505805969E-08  0.93827000000E+00  0.93827000000E+00 0.  1.
     999902    2    1    2    0    0  0.15139475359E-01  0.14552343095E-02 -0.17065362130E-01  0.10210706910E+01  0.10208147766E+01 0.  0.
     999903    2    3    3    0    0  0.90798973215E-01 -0.77973866856E-01  0.51098221578E-01  0.13164412529E+00  0.19868820465E-01 0.  0.
         14    1    1    2    0    0 -0.15139475359E-01 -0.14552343095E-02  0.17065362130E-01  0.22859308950E-01  0.00000000000E+00 0. -1.
     999901    1    3    3    0    0 -0.75659497855E-01  0.79429101166E-01 -0.68163583708E-01  0.88942656576E+00  0.88000000000E+00 0. -1.
        -11    1    4    4    0    0  0.81274807897E-01 -0.60716453635E-01  0.45186167839E-01  0.11105914202E+00  0.51100000000E-03 0.  1.
         11    1    4    4    0    0  0.95241653176E-02 -0.17257413221E-01  0.59120537395E-02  0.20584983277E-01  0.51100000000E-03 0. -1.
</event>
<event>
 7    1  0.1325631E+005  0.1043930E+01  0.7957747E-01            NaN
         13   -1    0    0    0    0  0.00000000000E+00  0.00000000000E+00  0.74505805969E-08  0.10566000000E+00  0.10566000000E+00 0. -1.
     999900   -1    0    0    0    0 -0.00000000000E+00 -0.00000000000E+00 -0.74505805969E-08  0.93827000000E+00  0.93827000000E+00 0.  1.
     999903    2    1    2    0    0 -0.57063719111E-01 -0.89278929468E-01  0.44373950191E-02  0.10772551881E+00  0.18923573722E-01 0.  0.
         14    1    1    2    0    0  0.77420821626E-03  0.39518650557E-01  0.34042530709E-01  0.52165285749E-01  0.00000000000E+00 0. -1.
     999901    1    1    2    0    0  0.56289510894E-01  0.49760278911E-01 -0.38479925728E-01  0.88403919544E+00  0.88000000000E+00 0. -1.
        -11    1    3    3    0    0 -0.49117020937E-01 -0.62198775827E-01  0.57879562062E-02  0.79466540242E-01  0.51100000000E-03 0.  1.
         11    1    3    3    0    0 -0.79466981739E-02 -0.27080153641E-01 -0.13505611871E-02  0.28258978567E-01  0.51100000000E-03 0. -1.
</event>
<event>
 8    1  0.1126414E+005  0.1043930E+01  0.7957747E-01            NaN
         13   -1    0    0    0    0  0.00000000000E+00  0.00000000000E+00  0.74505805969E-08  0.10566000000E+00  0.10566000000E+00 0. -1.
     999900   -1    0    0    0    0 -0.00000000000E+00 -0.00000000000E+00 -0.74505805969E-08  0.93827000000E+00  0.93827000000E+00 0.  1.
     999902    2    1    2    0    0 -0.13996470579E-01  0.16964400291E-01  0.97816337118E-02  0.10198598437E+01  0.10195757590E+01 0.  0.
     999903    2    3    3    0    0 -0.11541890590E+00  0.59464783495E-01  0.20433266602E-01  0.13295159014E+00  0.20025549248E-01 0.  0.
         14    1    1    2    0    0  0.13996470579E-01 -0.16964400291E-01 -0.97816337118E-02  0.24070156293E-01  0.00000000000E+00 0. -1.
     999901    1    3    3    0    0  0.10142243532E+00 -0.42500383204E-01 -0.10651632890E-01  0.88690825356E+00  0.88000000000E+00 0. -1.
        -11    1    4    4    0    0 -0.42805781419E-01  0.11834378338E-01  0.95543868887E-02  0.45430549891E-01  0.51100000000E-03 0.  1.
         11    1    4    4    0    0 -0.72613124478E-01  0.47630405157E-01  0.10878879714E-01  0.87521040251E-01  0.51100000000E-03 0. -1.
</event>
<event>
 8    1  0.1126414E+005  0.1043930E+01  0.7957747E-01            NaN
         13   -1    0    0    0    0  0.00000000000E+00  0.00000000000E+00  0.74505805969E-08  0.10566000000E+00  0.10566000000E+00 0. -1.
     999900   -1    0    0    0    0 -0.00000000000E+00 -0.00000000000E+00 -0.74505805969E-08  0.93827000000E+00  0.93827000000E+00 0.  1.
     999902    2    1    2    0    0 -0.23967417169E-02 -0.91319123125E-03  0.23591729749E-01  0.10201992604E+01  0.10199232240E+01 0.  0.
     999903    2    3    3    0    0 -0.18015711914E-01 -0.54133613024E-01 -0.11258934117E+00  0.12799880670E+00  0.21267835683E-01 0.  0.
         14    1    1    2    0    0  0.23967417169E-02  0.91319123125E-03 -0.23591729749E-01  0.23730739593E-01  0.00000000000E+00 0.  1.
     999901    1    3    3    0    0  0.15618970197E-01  0.53220421793E-01  0.13618107092E+00  0.89220045371E+00  0.88000000000E+00 0. -1.
        -11    1    4    4    0    0 -0.18492208325E-02 -0.36875587246E-01 -0.62212885751E-01  0.72345924743E-01  0.51100000000E-03 0.  1.
         11    1    4    4    0    0 -0.16166491081E-01 -0.17258025778E-01 -0.50376455422E-01  0.55652881952E-01  0.51100000000E-03 0. -1.
</event>
<event>
 8    1  0.1126414E+005  0.1043930E+01  0.7957747E-01            NaN
         13   -1    0    0    0    0  0.00000000000E+00  0.00000000000E+00  0.74505805969E-08  0.10566000000E+00  0.10566000000E+00 0. -1.
     999900   -1    0    0    0    0 -0.00000000000E+00 -0.00000000000E+00 -0.74505805969E-08  0.93827000000E+00  0.93827000000E+00 0. -1.
     999902    2    1    2    0    0 -0.12065440634E-01 -0.71052671414E-02  0.20590676141E-01  0.10190294855E+01  0.10187252116E+01 0.  0.
     999903    2    3    3    0    0 -0.61756145024E-01  0.11150060405E+00  0.10592077155E-01  0.12962716327E+00  0.21090358202E-01 0.  0.
         14    1    1    2    0    0  0.12065440634E-01  0.71052671414E-02 -0.20590676141E-01  0.24900514509E-01  0.00000000000E+00 0.  1.
     999901    1    3    3    0    0  0.49690704390E-01 -0.11860587119E+00  0.99985989868E-02  0.88940232222E+00  0.88000000000E+00 0. -1.
        -11    1    4    4    0    0 -0.50873830865E-01  0.89790863786E-01  0.16788508135E-01  0.10455936597E+00  0.51100000000E-03 0. -1.
         11    1    4    4    0    0 -0.10882314159E-01  0.21709740261E-01 -0.61964309803E-02  0.25067797301E-01  0.51100000000E-03 0.  1.
</event>
<event>
 8    1  0.1126414E+005  0.1043930E+01  0.7957747E-01            NaN
         13   -1    0    0    0    0  0.00000000000E+00  0.00000000000E+00  0.74505805969E-08  0.10566000000E+00  0.10566000000E+00 0. -1.
     999900   -1    0    0    0    0 -0.00000000000E+00 -0.00000000000E+00 -0.74505805969E-08  0.93827000000E+00  0.93827000000E+00 0. -1.
     999902    2    1    2    0    0  0.10940411139E-01 -0.29538748017E-02  0.21076421368E-01  0.10200002380E+01  0.10197194967E+01 0.  0.
     999903    2    3    3    0    0  0.75127878482E-01  0.51762860421E-01 -0.88834089694E-01  0.12916115459E+00  0.21622130278E-01 0.  0.
         14    1    1    2    0    0 -0.10940411139E-01  0.29538748017E-02 -0.21076421368E-01  0.23929762011E-01  0.00000000000E+00 0.  1.
     999901    1    3    3    0    0 -0.64187467343E-01 -0.54716735223E-01  0.10991051106E+00  0.89083908340E+00  0.88000000000E+00 0.  1.
        -11    1    4    4    0    0  0.48483694928E-01  0.44039794747E-01 -0.68385506111E-01  0.94694301635E-01  0.51100000000E-03 0. -1.
         11    1    4    4    0    0  0.26644183554E-01  0.77230656741E-02 -0.20448583584E-01  0.34466852950E-01  0.51100000000E-03 0.  1.
</event>
<event>
 8    1  0.1126414E+005  0.1043930E+01  0.7957747E-01            NaN
         13   -1    0    0    0    0  0.00000000000E+00  0.00000000000E+00  0.74505805969E-08  0.10566000000E+00  0.10566000000E+00 0. -1.
     999900   -1    0    0    0    0 -0.00000000000E+00 -0.00000000000E+00 -0.74505805969E-08  0.93827000000E+00  0.93827000000E+00 0. -1.
     999902    2    1    2    0    0 -0.86369559146E-02  0.22265639982E-01 -0.19388408143E-03  0.10200470914E+01  0.10197674614E+01 0.  0.
     999903    2    3    3    0    0 -0.24091899956E-01 -0.71508287530E-01 -0.10174486690E+00  0.12912340956E+00  0.25039611179E-01 0.  0.
         14    1    1    2    0    0  0.86369559146E-02 -0.22265639982E-01  0.19388408143E-03  0.23882908582E-01  0.00000000000E+00 0. -1.
     999901    1    3    3    0    0  0.15454944042E-01  0.93773927512E-01  0.10155098282E+00  0.89092368185E+00  0.88000000000E+00 0.  1.
        -11    1    4    4    0    0 -0.13081110025E-01 -0.91242301011E-02 -0.16981551412E-01  0.23302386654E-01  0.51100000000E-03 0. -1.
         11    1    4    4    0    0 -0.11010789931E-01 -0.62384057429E-01 -0.84763315488E-01  0.10582102291E+00  0.51100000000E-03 0.  1.
</event>
<event>
 8    1  0.1126414E+005  0.1043930E+01  0.7957747E-01            NaN
         13   -1    0    0    0    0  0.00000000000E+00  0.00000000000E+00  0.74505805969E-08  0.10566000000E+00  0.10566000000E+00 0. -1.
     999900   -1    0    0    0    0 -0.00000000000E+00 -0.00000000000E+00 -0.74505805969E-08  0.93827000000E+00  0.93827000000E+00 0.  1.
     999902    2    1    2    0    0  0.42741378898E-02  0.16390707096E-01 -0.13866879205E-01  0.10220390459E+01  0.10218045789E+01 0.  0.
     999903    2    3    3    0    0  0.68025546001E-01 -0.23594220699E-01  0.10690280078E+00  0.13060853703E+00  0.21123895731E-01 0.  0.
         14    1    1    2    0    0 -0.42741378898E-02 -0.16390707096E-01  0.13866879205E-01  0.21890954129E-01  0.00000000000E+00 0. -1.
     999901    1    3    3    0    0 -0.63751408112E-01  0.39984927795E-01 -0.12076967999E+00  0.89143050884E+00  0.88000000000E+00 0.  1.
        -11    1    4    4    0    0  0.31300370285E-01 -0.91487742752E-02  0.66830450726E-01  0.74363858937E-01  0.51100000000E-03 0.  1.
         11    1    4    4    0    0  0.36725175717E-01 -0.14445446424E-01  0.40072350057E-01  0.56244678094E-01  0.51100000000E-03 0. -1.
</event>
<event>
 8    1  0.1126414E+005  0.1043930E+01  0.7957747E-01            NaN
         13   -1    0    0    0    0  0.00000000000E+00  0.00000000000E+00  0.74505805969E-08  0.10566000000E+00  0.10566000000E+00 0.  1.
     999900   -1    0    0    0    0 -0.00000000000E+00 -0.00000000000E+00 -0.74505805969E-08  0.93827000000E+00  0.93827000000E+00 0.  1.
     999902    2    1    2    0    0  0.26482753102E-02  0.10208624089E-01  0.22295092846E-01  0.10192662506E+01  0.10189678057E+01 0.  0.
     999903    2    3    3    0    0 -0.21714089840E-01 -0.11724987710E+00  0.45993215399E-01  0.12943435900E+00  0.20465630913E-01 0.  0.
         14    1    1    2    0    0 -0.26482753102E-02 -0.10208624089E-01 -0.22295092846E-01  0.24663749368E-01  0.00000000000E+00 0. -1.
     999901    1    3    3    0    0  0.24362365150E-01  0.12745850119E+00 -0.23698122553E-01  0.88983189164E+00  0.88000000000E+00 0. -1.
        -11    1    4    4    0    0 -0.16600135123E-02 -0.16530032460E-01 -0.66444371908E-03  0.16634308655E-01  0.51100000000E-03 0.  1.
         11    1    4    4    0    0 -0.20054076327E-01 -0.10071984464E+00  0.46657659118E-01  0.11280005034E+00  0.51100000000E-03 0. -1.
</event>
<event>
 8    1  0.1126414E+005  0.1043930E+01  0.7957747E-01            NaN
         13   -1    0    0    0    0  0.00000000000E+00  0.00000000000E+00  0.74505805969E-08  0.10566000000E+00  0.10566000000E+00 0.  1.
     999900   -1    0    0    0    0 -0.00000000000E+00 -0.00000000000E+00 -0.74505805969E-08  0.93827000000E+00  0.93827000000E+00 0. -1.
     999902    2    1    2    0    0  0.92241123457E-03 -0.86356465259E-02 -0.22078233249E-01  0.10202050423E+01  0.10199291420E+01 0.  0.
     999903    2    3    3    0    0  0.86434739686E-01  0.67547235394E-01 -0.70282716128E-01  0.13147568983E+00  0.17680599421E-01 0.  0.
         14    1    1    2    0    0 -0.92241123457E-03  0.86356465259E-02  0.22078233249E-01  0.23724957677E-01  0.00000000000E+00 0.  1.
     999901    1    3    3    0    0 -0.85512328451E-01 -0.76182881919E-01  0.48204482879E-01  0.88872935249E+00  0.88000000000E+00 0.  1.
        -11    1    4    4    0    0  0.38887166201E-01  0.24610779126E-01 -0.38269106303E-01  0.59855557491E-01  0.51100000000E-03 0. -1.
         11    1    4    4    0    0  0.47547573485E-01  0.42936456268E-01 -0.32013609825E-01  0.71620132338E-01  0.51100000000E-03 0.  1.
</event>
<event>
 8    1  0.1126414E+005  0.1043930E+01  0.7957747E-01            NaN
         13   -1    0    0    0    0  0.00000000000E+00  0.00000000000E+00  0.74505805969E-08  0.10566000000E+00  0.10566000000E+00 0. -1.
     999900   -1    0    0    0    0 -0.00000000000E+00 -0.00000000000E+00 -0.74505805969E-08  0.93827000000E+00  0.93827000000E+00 0.  1.
     999902    2    1    2    0    0  0.35752857923E-02 -0.19830020941E-01 -0.52468023655E-02  0.10231083446E+01  0.10228964480E+01 0.  0.
     999903    2    3    3    0    0  0.12136631969E+00 -0.54374730084E-01  0.43918181551E-02  0.13453591220E+00  0.19855195242E-01 0.  0.
         14    1    1    2    0    0 -0.35752857923E-02  0.19830020941E-01  0.52468023655E-02  0.20821655412E-01  0.00000000000E+00 0. -1.
     999901    1    3    3    0    0 -0.11779103390E+00  0.34544709143E-01 -0.96386205206E-02  0.88857243239E+00  0.88000000000E+00 0. -1.
        -11    1    4    4    0    0  0.19971020661E-01 -0.13669595924E-02 -0.24346540299E-03  0.20025749454E-01  0.51100000000E-03 0.  1.
         11    1    4    4    0    0  0.10139529903E+00 -0.53007770491E-01  0.46352835581E-02  0.11451016275E+00  0.51100000000E-03 0. -1.
</event>
<event>
 8    1  0.1199927E+005  0.1043930E+01  0.7957747E-01            NaN
         13   -1    0    0    0    0  0.00000000000E+00  0.00000000000E+00  0.74505805969E-08  0.10566000000E+00  0.10566000000E+00 0.  1.
     999900   -1    0    0    0    0 -0.00000000000E+00 -0.00000000000E+00 -0.74505805969E-08  0.93827000000E+00  0.93827000000E+00 0. -1.
     999902    2    1    2    0    0  0.17831981340E-01 -0.84757811843E-02 -0.18340845237E-01  0.10169818084E+01  0.10166247064E+01 0.  0.
     999903    2    3    3    0    0 -0.49993934807E-01 -0.10733714564E+00 -0.45576136400E-01  0.12843485673E+00  0.19941711635E-01 0.  0.
         14    1    1    2    0    0 -0.17831981340E-01  0.84757811843E-02  0.18340845237E-01  0.26948191575E-01  0.00000000000E+00 0.  1.
     999901    1    3    3    0    0  0.67825916147E-01  0.98861364452E-01  0.27235291164E-01  0.88854695170E+00  0.88000000000E+00 0.  1.
        -11    1    4    4    0    0 -0.16604952178E-01 -0.57784330021E-01 -0.19180083730E-01  0.63110141544E-01  0.51100000000E-03 0.  1.
         11    1    4    4    0    0 -0.33388982629E-01 -0.49552815615E-01 -0.26396052671E-01  0.65324715185E-01  0.51100000000E-03 0. -1.
</event>
<event>
 8    1  0.1488691E+005  0.1043930E+01  0.7957747E-01            NaN
         13   -1    0    0    0    0  0.00000000000E+00  0.00000000000E+00  0.74505805969E-08  0.10566000000E+00  0.10566000000E+00 0.  1.
     999900   -1    0    0    0    0 -0.00000000000E+00 -0.00000000000E+00 -0.74505805969E-08  0.93827000000E+00  0.93827000000E+00 0.  1.
     999902    2    1    2    0    0 -0.81618849624E-02  0.13161058274E-02  0.22630063289E-01  0.10198370910E+01  0.10195524625E+01 0.  0.
     999903    2    3    3    0    0  0.51502297086E-01 -0.31348821688E-01 -0.11026297310E+00  0.12726363673E+00  0.20071740574E-01 0.  0.
         14    1    1    2    0    0  0.81618849624E-02 -0.13161058274E-02 -0.22630063289E-01  0.24092909022E-01  0.00000000000E+00 0. -1.
     999901    1    3    3    0    0 -0.59664182048E-01  0.32664927515E-01  0.13289303639E+00  0.89257345425E+00  0.88000000000E+00 0. -1.
        -11    1    4    4    0    0  0.13154310509E-01 -0.12421458407E-01 -0.51479607642E-01  0.54568669013E-01  0.51100000000E-03 0.  1.
         11    1    4    4    0    0  0.38347986577E-01 -0.18927363281E-01 -0.58783365460E-01  0.72694967715E-01  0.51100000000E-03 0. -1.
</event>
<event>
 8    1  0.1126414E+005  0.1043930E+01  0.7957747E-01            NaN
         13   -1    0    0    0    0  0.00000000000E+00  0.00000000000E+00  0.74505805969E-08  0.10566000000E+00  0.10566000000E+00 0. -1.
     999900   -1    0    0    0    0 -0.00000000000E+00 -0.00000000000E+00 -0.74505805969E-08  0.93827000000E+00  0.93827000000E+00 0.  1.
     999902    2    1    2    0    0  0.13132692380E-01 -0.75223825384E-02  0.17762645303E-01  0.10205940746E+01  0.10203272512E+01 0.  0.
     999903    2    3    3    0    0  0.57399743760E-01 -0.89067435293E-01 -0.74283934722E-01  0.13094147923E+00  0.19995734868E-01 0.  0.
         14    1    1    2    0    0 -0.13132692380E-01  0.75223825384E-02 -0.17762645303E-01  0.23335925445E-01  0.00000000000E+00 0.  1.
     999901    1    3    3    0    0 -0.44267051380E-01  0.81545052755E-01  0.92046580025E-01  0.88965259532E+00  0.88000000000E+00 0. -1.
        -11    1    4    4    0    0  0.41705953894E-01 -0.71188944905E-01 -0.66292506095E-01  0.10584049297E+00  0.51100000000E-03 0.  1.
         11    1    4    4    0    0  0.15693789867E-01 -0.17878490388E-01 -0.79914286272E-02  0.25100986264E-01  0.51100000000E-03 0. -1.
</event>
<event>
 8    1  0.1225699E+005  0.1043930E+01  0.7957747E-01            NaN
         13   -1    0    0    0    0  0.00000000000E+00  0.00000000000E+00  0.74505805969E-08  0.10566000000E+00  0.10566000000E+00 0.  1.
     999900   -1    0    0    0    0 -0.00000000000E+00 -0.00000000000E+00 -0.74505805969E-08  0.93827000000E+00  0.93827000000E+00 0. -1.
     999902    2    1    2    0    0 -0.16819781208E-01  0.10650409245E-01  0.13795888241E-01  0.10197088772E+01  0.10194211747E+01 0.  0.
     999903    2    3    3    0    0 -0.51222707674E-02 -0.45605004732E-01 -0.11789640034E+00  0.12805627545E+00  0.19819040181E-01 0.  0.
         14    1    1    2    0    0  0.16819781208E-01 -0.10650409245E-01 -0.13795888241E-01  0.24221122792E-01  0.00000000000E+00 0. -1.
     999901    1    3    3    0    0 -0.11697510440E-01  0.56255413977E-01  0.13169228858E+00  0.89165260176E+00  0.88000000000E+00 0.  1.
        -11    1    4    4    0    0 -0.11976140914E-01 -0.24295312726E-01 -0.73485315141E-01  0.78320130452E-01  0.51100000000E-03 0. -1.
         11    1    4    4    0    0  0.68538701465E-02 -0.21309692006E-01 -0.44411085201E-01  0.49736144996E-01  0.51100000000E-03 0.  1.
</event>
<event>
 7    1  0.1126414E+005  0.1043930E+01  0.7957747E-01            NaN
         13   -1    0    0    0    0  0.00000000000E+00  0.00000000000E+00  0.74505805969E-08  0.10566000000E+00  0.10566000000E+00 0. -1.
     999900   -1    0    0    0    0 -0.00000000000E+00 -0.00000000000E+00 -0.74505805969E-08  0.93827000000E+00  0.93827000000E+00 0.  1.
     999902    2    1    2    0    0 -0.19909387661E-01 -0.46175647165E-02  0.10711499693E-01  0.10208552986E+01  0.10205944830E+01 0.  0.
         14    1    1    2    0    0  0.19909387661E-01  0.46175647165E-02 -0.10711499693E-01  0.23074701442E-01  0.00000000000E+00 0.  1.
     999901    1    3    3    0    0 -0.92466091159E-03  0.12004082073E+00  0.13791232080E-01  0.88825719908E+00  0.88000000000E+00 0. -1.
        -11    1    3    3    0    0 -0.62288032892E-02 -0.72666161571E-01  0.17897783764E-01  0.75098340944E-01  0.51100000000E-03 0. -1.
         11    1    3    3    0    0 -0.12755923461E-01 -0.51992223871E-01 -0.20977516151E-01  0.57499758533E-01  0.51100000000E-03 0.  1.
</event>
<event>
 8    1  0.1126414E+005  0.1043930E+01  0.7957747E-01            NaN
         13   -1    0    0    0    0  0.00000000000E+00  0.00000000000E+00  0.74505805969E-08  0.10566000000E+00  0.10566000000E+00 0. -1.
     999900   -1    0    0    0    0 -0.00000000000E+00 -0.00000000000E+00 -0.74505805969E-08  0.93827000000E+00  0.93827000000E+00 0.  1.
     999902    2    1    2    0    0  0.18615524236E-01  0.66091452271E-02  0.11895493569E-02  0.10241402660E+01  0.10239490470E+01 0.  0.
     999903    2    3    3    0    0  0.41006909574E-01 -0.76185324802E-01  0.10096667241E+00  0.13435839798E+00  0.19290925926E-01 0.  0.
         14    1    1    2    0    0 -0.18615524236E-01 -0.66091452271E-02 -0.11895493569E-02  0.19789733977E-01  0.00000000000E+00 0. -1.
     999901    1    3    3    0    0 -0.22391385338E-01  0.82794470029E-01 -0.99777123055E-01  0.88978186804E+00  0.88000000000E+00 0.  1.
        -11    1    4    4    0    0  0.19230816408E-01 -0.51740073280E-01  0.71336373344E-01  0.90199771428E-01  0.51100000000E-03 0.  1.
         11    1    4    4    0    0  0.21776093166E-01 -0.24445251522E-01  0.29630299068E-01  0.44158626557E-01  0.51100000000E-03 0. -1.
</event>
<event>
 8    1  0.1126414E+005  0.1043930E+01  0.7957747E-01            NaN
         13   -1    0    0    0    0  0.00000000000E+00  0.00000000000E+00  0.74505805969E-08  0.10566000000E+00  0.10566000000E+00 0.  1.
     999900   -1    0    0    0    0 -0.00000000000E+00 -0.00000000000E+00 -0.74505805969E-08  0.93827000000E+00  0.93827000000E+00 0. -1.
     999902    2    1    2    0    0  0.13833264041E-01  0.14707249499E-01 -0.56302155327E-02  0.10229690432E+01  0.10227542724E+01 0.  0.
     999903    2    3    3    0    0 -0.89391145357E-01 -0.92850641355E-01 -0.70275848378E-02  0.13043000698E+00  0.18723816501E-01 0.  0.
         14    1    1    2    0    0 -0.13833264041E-01 -0.14707249499E-01  0.56302155327E-02  0.20960956772E-01  0.00000000000E+00 0. -1.
     999901    1    3    3    0    0  0.10322440940E+00  0.10755789085E+00  0.13973693051E-02  0.89253903625E+00  0.88000000000E+00 0. -1.
        -11    1    4    4    0    0 -0.82968151712E-01 -0.86822405342E-01 -0.16629389594E-02  0.12010358344E+00  0.51100000000E-03 0. -1.
         11    1    4    4    0    0 -0.64229936458E-02 -0.60282360135E-02 -0.53646458783E-02  0.10326423544E-01  0.51100000000E-03 0.  1.
</event>
<event>
 8    1  0.1126414E+005  0.1043930E+01  0.7957747E-01            NaN
         13   -1    0    0    0    0  0.00000000000E+00  0.00000000000E+00  0.74505805969E-08  0.10566000000E+00  0.10566000000E+00 0. -1.
     999900   -1    0    0    0    0 -0.00000000000E+00 -0.00000000000E+00 -0.74505805969E-08  0.93827000000E+00  0.93827000000E+00 0.  1.
     999902    2    1    2    0    0  0.20667587052E-01 -0.90973562123E-02  0.71866098621E-02  0.10202327764E+01  0.10199575284E+01 0.  0.
     999903    2    3    3    0    0 -0.84153535182E-01  0.41876823273E-01 -0.84561518315E-01  0.12781832467E+00  0.18745344269E-01 0.  0.
         14    1    1    2    0    0 -0.20667587052E-01  0.90973562123E-02 -0.71866098621E-02  0.23697223591E-01  0.00000000000E+00 0. -1.
     999901    1    3    3    0    0  0.10482112223E+00 -0.50974179486E-01  0.91748128177E-01  0.89241445173E+00  0.88000000000E+00 0. -1.
        -11    1    4    4    0    0 -0.29492395497E-01  0.12037145036E-01 -0.40505785895E-01  0.51533232625E-01  0.51100000000E-03 0.  1.
         11    1    4    4    0    0 -0.54661139685E-01  0.29839678238E-01 -0.44055732420E-01  0.76285092050E-01  0.51100000000E-03 0. -1.
</event>
<event>
 8    1  0.1126414E+005  0.1043930E+01  0.7957747E-01            NaN
         13   -1    0    0    0    0  0.00000000000E+00  0.00000000000E+00  0.74505805969E-08  0.10566000000E+00  0.10566000000E+00 0.  1.
     999900   -1    0    0    0    0 -0.00000000000E+00 -0.00000000000E+00 -0.74505805969E-08  0.93827000000E+00  0.93827000000E+00 0. -1.
     999902    2    1    2    0    0  0.15877287060E-01  0.14624543814E-01  0.88345652016E-02  0.10206058694E+01  0.10203393188E+01 0.  0.
     999903    2    3    3    0    0 -0.10581872959E+00  0.50533639289E-01  0.53443685318E-01  0.13038715627E+00  0.19832568837E-01 0.  0.
         14    1    1    2    0    0 -0.15877287060E-01 -0.14624543814E-01 -0.88345652016E-02  0.23324130604E-01  0.00000000000E+00 0. -1.
     999901    1    3    3    0    0  0.12169601665E+00 -0.35909095475E-01 -0.44609120117E-01  0.89021871313E+00  0.88000000000E+00 0. -1.
        -11    1    4    4    0    0 -0.70033264001E-01  0.35483546823E-01  0.25487718793E-01  0.82544685426E-01  0.51100000000E-03 0.  1.
         11    1    4    4    0    0 -0.35785465591E-01  0.15050092466E-01  0.27955966526E-01  0.47842470842E-01  0.51100000000E-03 0. -1.
</event>
<event>
 8    1  0.1126414E+005  0.1043930E+01  0.7957747E-01            NaN
         13   -1    0    0    0    0  0.00000000000E+00  0.00000000000E+00  0.74505805969E-08  0.10566000000E+00  0.10566000000E+00 0.  1.
     999900   -1    0    0    0    0 -0.00000000000E+00 -0.00000000000E+00 -0.74505805969E-08  0.93827000000E+00  0.93827000000E+00 0.  1.
     999902    2    1    2    0    0  0.18007392941E-01  0.42291915031E-02 -0.13499441627E-01  0.10210304981E+01  0.10207736727E+01 0.  0.
     999903    2    3    3    0    0  0.12810354069E+00 -0.29080529139E-01 -0.14145829796E-01  0.13354465766E+00  0.19439052851E-01 0.  0.
         14    1    1    2    0    0 -0.18007392941E-01 -0.42291915031E-02  0.13499441627E-01  0.22899501862E-01  0.00000000000E+00 0.  1.
     999901    1    3    3    0    0 -0.11009614775E+00  0.33309720642E-01  0.64638816962E-03  0.88748584048E+00  0.88000000000E+00 0.  1.
        -11    1    4    4    0    0  0.31579923201E-01 -0.22706481973E-03  0.13551579899E-02  0.31613931770E-01  0.51100000000E-03 0.  1.
         11    1    4    4    0    0  0.96523617488E-01 -0.28853464319E-01 -0.15500987786E-01  0.10193072589E+00  0.51100000000E-03 0. -1.
</event>
<event>
 8    1  0.1126414E+005  0.1043930E+01  0.7957747E-01            NaN
         13   -1    0    0    0    0  0.00000000000E+00  0.00000000000E+00  0.74505805969E-08  0.10566000000E+00  0.10566000000E+00 0.  1.
     999900   -1    0    0    0    0 -0.00000000000E+00 -0.00000000000E+00 -0.74505805969E-08  0.93827000000E+00  0.93827000000E+00 0.  1.
     999902    2    1    2    0    0  0.12950686930E-01 -0.41072198728E-02 -0.20935275505E-01  0.10189725300E+01  0.10186668453E+01 0.  0.
     999903    2    3    3    0    0  0.85725494915E-01  0.95199292716E-01 -0.13094199431E-01  0.13036719660E+00  0.20307192781E-01 0.  0.
         14    1    1    2    0    0 -0.12950686930E-01  0.41072198728E-02  0.20935275505E-01  0.24957469974E-01  0.00000000000E+00 0.  1.
     999901    1    3    3    0    0 -0.72774807985E-01 -0.99306512588E-01 -0.78410760733E-02  0.88860533343E+00  0.88000000000E+00 0. -1.
        -11    1    4    4    0    0  0.83681105613E-01  0.85311986544E-01 -0.13410168961E-01  0.12025288453E+00  0.51100000000E-03 0. -1.
         11    1    4    4    0    0  0.20443893016E-02  0.98873061718E-02  0.31596952938E-03  0.10114312072E-01  0.51100000000E-03 0.  1.
</event>
<event>
 8    1  0.1126414E+005  0.1043930E+01  0.7957747E-01            NaN
         13   -1    0    0    0    0  0.00000000000E+00  0.00000000000E+00  0.74505805969E-08  0.10566000000E+00  0.10566000000E+00 0. -1.
     999900   -1    0    0    0    0 -0.00000000000E+00 -0.00000000000E+00 -0.74505805969E-08  0.93827000000E+00  0.93827000000E+00 0.  1.
     999902    2    1    2    0    0  0.20004950342E-01 -0.18745124927E-02  0.11628227292E-01  0.10207151878E+01  0.10204511586E+01 0.  0.
     999903    2    3    3    0    0  0.72073908600E-01  0.83566920985E-01  0.71409937194E-01  0.13302984501E+00  0.20481258517E-01 0.  0.
         14    1    1    2    0    0 -0.20004950342E-01  0.18745124927E-02 -0.11628227292E-01  0.23214812195E-01  0.00000000000E+00 0.  1.
     999901    1    3    3    0    0 -0.52068958258E-01 -0.85441433478E-01 -0.59781709902E-01  0.88768534279E+00  0.88000000000E+00 0. -1.
        -11    1    4    4    0    0  0.50310614504E-01  0.63334855362E-01  0.41685381333E-01  0.90996670123E-01  0.51100000000E-03 0.  1.
         11    1    4    4    0    0  0.21763294096E-01  0.20232065623E-01  0.29724555861E-01  0.42033174891E-01  0.51100000000E-03 0. -1.
</event>
<event>
 8    1  0.1126414E+005  0.1043930E+01  0.7957747E-01            NaN
         13   -1    0    0    0    0  0.00000000000E+00  0.00000000000E+00  0.74505805969E-08  0.10566000000E+00  0.10566000000E+00 0. -1.
     999900   -1    0    0    0    0 -0.00000000000E+00 -0.00000000000E+00 -0.74505805969E-08  0.93827000000E+00  0.93827000000E+00 0.  1.
     999902    2    1    2    0    0  0.15440615300E-01 -0.43552676006E-02 -0.17480028919E-01  0.10202038042E+01  0.10199278748E+01 0.  0.
     999903    2    3    3    0    0 -0.61441679531E-01  0.67639197301E-01  0.86947510957E-01  0.12779179098E+00  0.20511732859E-01 0.  0.
         14    1    1    2    0    0 -0.15440615300E-01  0.43552676006E-02  0.17480028919E-01  0.23726195812E-01  0.00000000000E+00 0. -1.
     999901    1    3    3    0    0  0.76882294831E-01 -0.71994464901E-01 -0.10442753988E+00  0.89241201321E+00  0.88000000000E+00 0.  1.
        -11    1    4    4    0    0 -0.45219378812E-01  0.61160817162E-01  0.73092401468E-01  0.10549027467E+00  0.51100000000E-03 0. -1.
         11    1    4    4    0    0 -0.16222300719E-01  0.64783801389E-02  0.13855109489E-01  0.22301516311E-01  0.51100000000E-03 0.  1.
</event>
<event>
 8    1  0.1126414E+005  0.1043930E+01  0.7957747E-01            NaN
         13   -1    0    0    0    0  0.00000000000E+00  0.00000000000E+00  0.74505805969E-08  0.10566000000E+00  0.10566000000E+00 0.  1.
     999900   -1    0    0    0    0 -0.00000000000E+00 -0.00000000000E+00 -0.74505805969E-08  0.93827000000E+00  0.93827000000E+00 0. -1.
     999902    2    1    2    0    0  0.50217865221E-02  0.23799264482E-02 -0.22880432318E-01  0.10203843725E+01  0.10201126757E+01 0.  0.
     999903    2    3    3    0    0  0.39607970086E-02  0.24519715961E-01  0.12408740877E+00  0.12792101626E+00  0.18686813577E-01 0.  0.
         14    1    1    2    0    0 -0.50217865221E-02 -0.23799264482E-02  0.22880432318E-01  0.23545627468E-01  0.00000000000E+00 0.  1.
     999901    1    3    3    0    0  0.10609895135E-02 -0.22139789513E-01 -0.14696784109E+00  0.89246335627E+00  0.88000000000E+00 0. -1.
        -11    1    4    4    0    0 -0.29938274827E-02  0.53401864811E-02  0.81765234389E-02  0.10227279755E-01  0.51100000000E-03 0. -1.
         11    1    4    4    0    0  0.69546244913E-02  0.19179529480E-01  0.11591088533E+00  0.11769373650E+00  0.51100000000E-03 0.  1.
</event>
<event>
 8    1  0.1126414E+005  0.1043930E+01  0.7957747E-01            NaN
         13   -1    0    0    0    0  0.00000000000E+00  0.00000000000E+00  0.74505805969E-08  0.10566000000E+00  0.10566000000E+00 0.  1.
     999900   -1    0    0    0    0 -0.00000000000E+00 -0.00000000000E+00 -0.74505805969E-08  0.93827000000E+00  0.93827000000E+00 0. -1.
     999902    2    1    2    0    0  0.18158303440E-01 -0.13409890828E-01  0.65781022091E-02  0.10204178630E+01  0.10201469476E+01 0.  0.
     999903    2    3    3    0    0  0.56117410810E-01 -0.58329165029E-01  0.10424299478E+00  0.13306389406E+00  0.16968873059E-01 0.  0.
         14    1    1    2    0    0 -0.18158303440E-01  0.13409890828E-01 -0.65781022091E-02  0.23512136962E-01  0.00000000000E+00 0.  1.
     999901    1    3    3    0    0 -0.37959107371E-01  0.44919274201E-01 -0.97664892566E-01  0.88735396898E+00  0.88000000000E+00 0. -1.
        -11    1    4    4    0    0  0.40445014293E-01 -0.30237094934E-01  0.65343790838E-01  0.82584218911E-01  0.51100000000E-03 0.  1.
         11    1    4    4    0    0  0.15672396517E-01 -0.28092070095E-01  0.38899203938E-01  0.50479675146E-01  0.51100000000E-03 0. -1.
</event>
<event>
 8    1  0.1126414E+005  0.1043930E+01  0.7957747E-01            NaN
         13   -1    0    0    0    0  0.00000000000E+00  0.00000000000E+00  0.74505805969E-08  0.10566000000E+00  0.10566000000E+00 0. -1.
     999900   -1    0    0    0    0 -0.00000000000E+00 -0.00000000000E+00 -0.74505805969E-08  0.93827000000E+00  0.93827000000E+00 0.  1.
     999902    2    1    2    0    0  0.87967513080E-02 -0.20903624709E-01 -0.11463829408E-02  0.10212218835E+01  0.10209693810E+01 0.  0.
     999903    2    3    3    0    0  0.21087969639E-01  0.96755749997E-01 -0.81290816486E-01  0.12969626263E+00  0.20162987724E-01 0.  0.
         14    1    1    2    0    0 -0.87967513080E-02  0.20903624709E-01  0.11463829408E-02  0.22708116465E-01  0.00000000000E+00 0.  1.
     999901    1    3    3    0    0 -0.12291218331E-01 -0.11765937471E+00  0.80144433545E-01  0.89152562091E+00  0.88000000000E+00 0.  1.
        -11    1    4    4    0    0  0.23284807696E-01  0.82500467512E-01 -0.75188219348E-01  0.11402648315E+00  0.51100000000E-03 0. -1.
         11    1    4    4    0    0 -0.21968380568E-02  0.14255282485E-01 -0.61025971371E-02  0.15669779481E-01  0.51100000000E-03 0.  1.
</event>
<event>
 8    1  0.1126414E+005  0.1043930E+01  0.7957747E-01            NaN
         13   -1    0    0    0    0  0.00000000000E+00  0.00000000000E+00  0.74505805969E-08  0.10566000000E+00  0.10566000000E+00 0. -1.
     999900   -1    0    0    0    0 -0.00000000000E+00 -0.00000000000E+00 -0.74505805969E-08  0.93827000000E+00  0.93827000000E+00 0. -1.
     999902    2    1    2    0    0 -0.45672482918E-03  0.21272870982E-01 -0.20329603475E-02  0.10225553289E+01  0.10223319050E+01 0.  0.
     999903    2    3    3    0    0  0.12252759913E+00 -0.36565226956E-01 -0.25636936559E-01  0.13180983369E+00  0.19145531352E-01 0.  0.
         14    1    1    2    0    0  0.45672482918E-03 -0.21272870982E-01  0.20329603475E-02  0.21374671112E-01  0.00000000000E+00 0.  1.
     999901    1    3    3    0    0 -0.12298432396E+00  0.57838097938E-01  0.23603976212E-01  0.89074549519E+00  0.88000000000E+00 0.  1.
        -11    1    4    4    0    0  0.92849331901E-01 -0.23860474374E-01 -0.26662801091E-01  0.99506214654E-01  0.51100000000E-03 0. -1.
         11    1    4    4    0    0  0.29678267233E-01 -0.12704752582E-01  0.10258645311E-02  0.32303619041E-01  0.51100000000E-03 0.  1.
</event>
<event>
 8    1  0.1126414E+005  0.1043930E+01  0.7957747E-01            NaN
         13   -1    0    0    0    0  0.00000000000E+00  0.00000000000E+00  0.74505805969E-08  0.10566000000E+00  0.10566000000E+00 0.  1.
     999900   -1    0    0    0    0 -0.00000000000E+00 -0.00000000000E+00 -0.74505805969E-08  0.93827000000E+00  0.93827000000E+00 0. -1.
     999902    2    1    2    0    0 -0.23983906433E-01  0.10275609785E-01  0.58069642781E-02  0.10171991796E+01  0.10168478914E+01 0.  0.
     999903    2    3    3    0    0 -0.10124075240E+00  0.79914159159E-01  0.12736528817E-01  0.13104672847E+00  0.19366545810E-01 0.  0.
         14    1    1    2    0    0  0.23983906433E-01 -0.10275609785E-01 -0.58069642781E-02  0.26730820383E-01  0.00000000000E+00 0. -1.
     999901    1    3    3    0    0  0.77256845964E-01 -0.69638549374E-01 -0.69295645392E-02  0.88615245115E+00  0.88000000000E+00 0. -1.
        -11    1    4    4    0    0 -0.38688744783E-01  0.42748835086E-01  0.50225683503E-02  0.57877190567E-01  0.51100000000E-03 0. -1.
         11    1    4    4    0    0 -0.62552007614E-01  0.37165324073E-01  0.77139604670E-02  0.73169537904E-01  0.51100000000E-03 0.  1.
</event>
<event>
 8    1  0.1126414E+005  0.1043930E+01  0.7957747E-01            NaN
         13   -1    0    0    0    0  0.00000000000E+00  0.00000000000E+00  0.74505805969E-08  0.10566000000E+00  0.10566000000E+00 0.  1.
     999900   -1    0    0    0    0 -0.00000000000E+00 -0.00000000000E+00 -0.74505805969E-08  0.93827000000E+00  0.93827000000E+00 0. -1.
     999902    2    1    2    0    0  0.18791003773E-01 -0.12835812317E-02  0.14824270701E-01  0.10199610950E+01  0.10196794236E+01 0.  0.
     999903    2    3    3    0    0  0.11892350458E+00 -0.54249382708E-01  0.12752509767E-01  0.13269778235E+00  0.18981029157E-01 0.  0.
         14    1    1    2    0    0 -0.18791003773E-01  0.12835812317E-02 -0.14824270701E-01  0.23968904968E-01  0.00000000000E+00 0. -1.
     999901    1    3    3    0    0 -0.10013250081E+00  0.52965801476E-01  0.20717609338E-02  0.88726331269E+00  0.88000000000E+00 0.  1.
        -11    1    4    4    0    0  0.62492938273E-01 -0.38498001685E-01  0.95587458059E-02  0.74020903872E-01  0.51100000000E-03 0.  1.
         11    1    4    4    0    0  0.56430566310E-01 -0.15751381022E-01  0.31937639610E-02  0.58676878474E-01  0.51100000000E-03 0. -1.
</event>
<event>
 8    1  0.1126414E+005  0.1043930E+01  0.7957747E-01            NaN
         13   -1    0    0    0    0  0.00000000000E+00  0.00000000000E+00  0.74505805969E-08  0.10566000000E+00  0.10566000000E+00 0.  1.
     999900   -1    0    0    0    0 -0.00000000000E+00 -0.00000000000E+00 -0.74505805969E-08  0.93827000000E+00  0.93827000000E+00 0. -1.
     999902    2    1    2    0    0  0.15810776903E-01  0.13424124491E-01  0.18832328941E-02  0.10231037101E+01  0.10228917183E+01 0.  0.
     999903    2    3    3    0    0  0.86003763113E-01  0.28930253096E-01  0.97958681878E-01  0.13496071079E+00  0.19618442534E-01 0.  0.
         14    1    1    2    0    0 -0.15810776903E-01 -0.13424124491E-01 -0.18832328941E-02  0.20826289894E-01  0.00000000000E+00 0.  1.
     999901    1    3    3    0    0 -0.70192986210E-01 -0.15506128605E-01 -0.96075448984E-01  0.88814299932E+00  0.88000000000E+00 0. -1.
        -11    1    4    4    0    0  0.25487140807E-01  0.82917822816E-02  0.42870816177E-01  0.50562001548E-01  0.51100000000E-03 0.  1.
         11    1    4    4    0    0  0.60516622306E-01  0.20638470815E-01  0.55087865702E-01  0.84398709241E-01  0.51100000000E-03 0. -1.
</event>
<event>
 8    1  0.1126414E+005  0.1043930E+01  0.7957747E-01            NaN
         13   -1    0    0    0    0  0.00000000000E+00  0.00000000000E+00  0.74505805969E-08  0.10566000000E+00  0.10566000000E+00 0.  1.
     999900   -1    0    0    0    0 -0.00000000000E+00 -0.00000000000E+00 -0.74505805969E-08  0.93827000000E+00  0.93827000000E+00 0.  1.
     999902    2    1    2    0    0  0.94980077388E-02 -0.11278528387E-01  0.18406369735E-01  0.10203458570E+01  0.10200732602E+01 0.  0.
     999903    2    3    3    0    0  0.11561895166E-01  0.23890945652E-01  0.12866670828E+00  0.13276572328E+00  0.19161439268E-01 0.  0.
         14    1    1    2    0    0 -0.94980077388E-02  0.11278528387E-01 -0.18406369735E-01  0.23584142987E-01  0.00000000000E+00 0. -1.
     999901    1    3    3    0    0 -0.20638874272E-02 -0.35169474039E-01 -0.11026033855E+00  0.88758013373E+00  0.88000000000E+00 0.  1.
        -11    1    4    4    0    0  0.11963911663E-01  0.84720121055E-02  0.89035338895E-01  0.90235596438E-01  0.51100000000E-03 0. -1.
         11    1    4    4    0    0 -0.40201649703E-03  0.15418933546E-01  0.39631369387E-01  0.42530126845E-01  0.51100000000E-03 0.  1.
</event>
<event>
 8    1  0.1126414E+005  0.1043930E+01  0.7957747E-01            NaN
         13   -1    0    0    0    0  0.00000000000E+00  0.00000000000E+00  0.74505805969E-08  0.10566000000E+00  0.10566000000E+00 0. -1.
     999900   -1    0    0    0    0 -0.00000000000E+00 -0.00000000000E+00 -0.74505805969E-08  0.93827000000E+00  0.93827000000E+00 0. -1.
     999902    2    1    2    0    0  0.64400888371E-02  0.19805743062E-01 -0.12001686555E-01  0.10198928895E+01  0.10196095936E+01 0.  0.
     999903    2    3    3    0    0 -0.18756001727E-01  0.12913839099E+00  0.11944684794E-01  0.13244604623E+00  0.19255337919E-01 0.  0.
         14    1    1    2    0    0 -0.64400888371E-02 -0.19805743062E-01  0.12001686555E-01  0.24037110530E-01  0.00000000000E+00 0.  1.
     999901    1    3    3    0    0  0.25196090564E-01 -0.10933264793E+00 -0.23946371349E-01  0.88744684324E+00  0.88000000000E+00 0.  1.
        -11    1    4    4    0    0 -0.13881343727E-01  0.81127960958E-01 -0.15905359932E-02  0.82323925311E-01  0.51100000000E-03 0.  1.
         11    1    4    4    0    0 -0.48746579999E-02  0.48010430030E-01  0.13535220787E-01  0.50122120916E-01  0.51100000000E-03 0. -1.
</event>
<event>
 8    1  0.1126414E+005  0.1043930E+01  0.7957747E-01            NaN
         13   -1    0    0    0    0  0.00000000000E+00  0.00000000000E+00  0.74505805969E-08  0.10566000000E+00  0.10566000000E+00 0.  1.
     999900   -1    0    0    0    0 -0.00000000000E+00 -0.00000000000E+00 -0.74505805969E-08  0.93827000000E+00  0.93827000000E+00 0.  1.
     999902    2    1    2    0    0  0.16433100126E-01 -0.69509337301E-02 -0.13495678268E-01  0.10215582412E+01  0.10213132451E+01 0.  0.
     999903    2    3    3    0    0  0.69747281992E-01  0.52516021267E-01  0.95870729181E-01  0.13119891386E+00  0.19983554453E-01 0.  0.
         14    1    1    2    0    0 -0.16433100126E-01  0.69509337301E-02  0.13495678268E-01  0.22371758791E-01  0.00000000000E+00 0.  1.
     999901    1    3    3    0    0 -0.53314181866E-01 -0.59466954997E-01 -0.10936640745E+00  0.89035932735E+00  0.88000000000E+00 0.  1.
        -11    1    4    4    0    0  0.23420562676E-01  0.66030386858E-02  0.26241644336E-01  0.35791170621E-01  0.51100000000E-03 0. -1.
         11    1    4    4    0    0  0.46326719316E-01  0.45912982581E-01  0.69629084846E-01  0.95407743237E-01  0.51100000000E-03 0.  1.
</event>
<event>
 8    1  0.1142080E+005  0.1043930E+01  0.7957747E-01            NaN
         13   -1    0    0    0    0  0.00000000000E+00  0.00000000000E+00  0.74505805969E-08  0.10566000000E+00  0.10566000000E+00 0. -1.
     999900   -1    0    0    0    0 -0.00000000000E+00 -0.00000000000E+00 -0.74505805969E-08  0.93827000000E+00  0.93827000000E+00 0. -1.
     999902    2    1    2    0    0  0.32946466766E-02  0.19892183935E-01  0.10496543700E-01  0.10211982797E+01  0.10209452460E+01 0.  0.
     999903    2    3    3    0    0  0.64841423254E-01 -0.31772813782E-01  0.10911438299E+00  0.13205107258E+00  0.17821765570E-01 0.  0.
         14    1    1    2    0    0 -0.32946466766E-02 -0.19892183935E-01 -0.10496543700E-01  0.22731720306E-01  0.00000000000E+00 0.  1.
     999901    1    3    3    0    0 -0.61546776578E-01  0.51664997718E-01 -0.98617839291E-01  0.88914720712E+00  0.88000000000E+00 0.  1.
        -11    1    4    4    0    0  0.16130468305E-01 -0.15591518880E-01  0.41271774785E-01  0.46977739235E-01  0.51100000000E-03 0. -1.
         11    1    4    4    0    0  0.48710954949E-01 -0.16181294903E-01  0.67842608206E-01  0.85073333342E-01  0.51100000000E-03 0.  1.
</event>
<event>
 8    1  0.1126414E+005  0.1043930E+01  0.7957747E-01            NaN
         13   -1    0    0    0    0  0.00000000000E+00  0.00000000000E+00  0.74505805969E-08  0.10566000000E+00  0.10566000000E+00 0.  1.
     999900   -1    0    0    0    0 -0.00000000000E+00 -0.00000000000E+00 -0.74505805969E-08  0.93827000000E+00  0.93827000000E+00 0. -1.
     999902    2    1    2    0    0  0.14309994313E-01 -0.18315191382E-01 -0.41083909942E-03  0.10206836893E+01  0.10204189349E+01 0.  0.
     999903    2    3    3    0    0 -0.27097865088E-01 -0.11291781617E+00  0.59709271510E-01  0.13260785068E+00  0.23128282583E-01 0.  0.
         14    1    1    2    0    0 -0.14309994313E-01  0.18315191382E-01  0.41083909942E-03  0.23246310704E-01  0.00000000000E+00 0. -1.
     999901    1    3    3    0    0  0.41407859401E-01  0.94602624792E-01 -0.60120110610E-01  0.88807583862E+00  0.88000000000E+00 0. -1.
        -11    1    4    4    0    0 -0.39996103776E-02 -0.61169790579E-01  0.36663503836E-01  0.71429782284E-01  0.51100000000E-03 0.  1.
         11    1    4    4    0    0 -0.23098254710E-01 -0.51748025595E-01  0.23045767674E-01  0.61178068394E-01  0.51100000000E-03 0. -1.
</event>
<event>
 8    1  0.1126414E+005  0.1043930E+01  0.7957747E-01            NaN
         13   -1    0    0    0    0  0.00000000000E+00  0.00000000000E+00  0.74505805969E-08  0.10566000000E+00  0.10566000000E+00 0.  1.
     999900   -1    0    0    0    0 -0.00000000000E+00 -0.00000000000E+00 -0.74505805969E-08  0.93827000000E+00  0.93827000000E+00 0.  1.
     999902    2    1    2    0    0 -0.21068106747E-01  0.12898667551E-01 -0.50935734401E-02  0.10187072873E+01  0.10183949882E+01 0.  0.
     999903    2    3    3    0    0  0.11960137666E+00  0.10299440183E-01  0.35800515907E-01  0.12659351310E+00  0.18266714339E-01 0.  0.
         14    1    1    2    0    0  0.21068106747E-01 -0.12898667551E-01  0.50935734401E-02  0.25222712719E-01  0.00000000000E+00 0.  1.
     999901    1    3    3    0    0 -0.14066948340E+00  0.25992273683E-02 -0.40894089347E-01  0.89211377418E+00  0.88000000000E+00 0.  1.
        -11    1    4    4    0    0  0.61040205383E-01  0.50339786609E-02  0.87549356681E-02  0.61872107075E-01  0.51100000000E-03 0. -1.
         11    1    4    4    0    0  0.58561171274E-01  0.52654615221E-02  0.27045580239E-01  0.64721406022E-01  0.51100000000E-03 0.  1.
</event>
<event>
 8    1  0.1126414E+005  0.1043930E+01  0.7957747E-01            NaN
         13   -1    0    0    0    0  0.00000000000E+00  0.00000000000E+00  0.74505805969E-08  0.10566000000E+00  0.10566000000E+00 0.  1.
     999900   -1    0    0    0    0 -0.00000000000E+00 -0.00000000000E+00 -0.74505805969E-08  0.93827000000E+00  0.93827000000E+00 0.  1.
     999902    2    1    2    0    0 -0.75339613285E-02  0.15364719495E-01 -0.16591183216E-01  0.10200950983E+01  0.10198166046E+01 0.  0.
     999903    2    3    3    0    0  0.92941829867E-01 -0.53991696282E-01  0.66291531984E-01  0.12780857397E+00  0.19676822938E-01 0.  0.
         14    1    1    2    0    0  0.75339613285E-02 -0.15364719495E-01  0.16591183216E-01  0.23834901698E-01  0.00000000000E+00 0.  1.
     999901    1    3    3    0    0 -0.10047579120E+00  0.69356415777E-01 -0.82882715200E-01  0.89228652433E+00  0.88000000000E+00 0.  1.
        -11    1    4    4    0    0  0.34897592396E-01 -0.10121010933E-01  0.18725426328E-01  0.40880062739E-01  0.51100000000E-03 0. -1.
         11    1    4    4    0    0  0.58044237471E-01 -0.43870685349E-01  0.47566105656E-01  0.86928511231E-01  0.51100000000E-03 0.  1.
</event>
<event>
 8    1  0.1126414E+005  0.1043930E+01  0.7957747E-01            NaN
         13   -1    0    0    0    0  0.00000000000E+00  0.00000000000E+00  0.74505805969E-08  0.10566000000E+00  0.10566000000E+00 0. -1.
     999900   -1    0    0    0    0 -0.00000000000E+00 -0.00000000000E+00 -0.74505805969E-08  0.93827000000E+00  0.93827000000E+00 0. -1.
     999902    2    1    2    0    0 -0.20896251368E-01 -0.70756609582E-03  0.11654986495E-01  0.10199927345E+01  0.10197118150E+01 0.  0.
     999903    2    3    3    0    0  0.51816941251E-01  0.10150598767E+00  0.59094898787E-01  0.12983243192E+00  0.19385365174E-01 0.  0.
         14    1    1    2    0    0  0.20896251368E-01  0.70756609582E-03 -0.11654986495E-01  0.23937265533E-01  0.00000000000E+00 0. -1.
     999901    1    3    3    0    0 -0.72713192619E-01 -0.10221355376E+00 -0.47439912293E-01  0.89016030255E+00  0.88000000000E+00 0. -1.
        -11    1    4    4    0    0  0.36395934586E-01  0.65517736135E-01  0.48480590070E-01  0.89262906838E-01  0.51100000000E-03 0.  1.
         11    1    4    4    0    0  0.15421006664E-01  0.35988251531E-01  0.10614308717E-01  0.40569525081E-01  0.51100000000E-03 0. -1.
</event>
<event>
 8    1  0.1126414E+005  0.1043930E+01  0.7957747E-01            NaN
         13   -1    0    0    0    0  0.00000000000E+00  0.00000000000E+00  0.74505805969E-08  0.10566000000E+00  0.10566000000E+00 0.  1.
     999900   -1    0    0    0    0 -0.00000000000E+00 -0.00000000000E+00 -0.74505805969E-08  0.93827000000E+00  0.93827000000E+00 0.  1.
     999902    2    1    2    0    0 -0.17167267000E-01 -0.14841118595E-01  0.67189847045E-02  0.10202631748E+01  0.10199886408E+01 0.  0.
     999903    2    3    3    0    0 -0.28680494433E-02  0.83112399704E-01  0.99223086415E-01  0.12989450502E+00  0.10557692222E-01 0.  0.
         14    1    1    2    0    0  0.17167267000E-01  0.14841118595E-01 -0.67189847045E-02  0.23666825154E-01  0.00000000000E+00 0. -1.
     999901    1    3    3    0    0 -0.14299217557E-01 -0.97953518299E-01 -0.92504101711E-01  0.89036866982E+00  0.88000000000E+00 0.  1.
        -11    1    4    4    0    0 -0.47711274951E-02  0.44938797204E-01  0.60114895929E-01  0.75208516707E-01  0.51100000000E-03 0.  1.
         11    1    4    4    0    0  0.19030780518E-02  0.38173602500E-01  0.39108190486E-01  0.54685988315E-01  0.51100000000E-03 0. -1.
</event>
<event>
 8    1  0.1126414E+005  0.1043930E+01  0.7957747E-01            NaN
         13   -1    0    0    0    0  0.00000000000E+00  0.00000000000E+00  0.74505805969E-08  0.10566000000E+00  0.10566000000E+00 0. -1.
     999900   -1    0    0    0    0 -0.00000000000E+00 -0.00000000000E+00 -0.74505805969E-08  0.93827000000E+00  0.93827000000E+00 0. -1.
     999902    2    1    2    0    0 -0.15818722327E-01  0.11123155724E-02 -0.16872467900E-01  0.10207751000E+01  0.10205124474E+01 0.  0.
     999903    2    3    3    0    0  0.59771520575E-02  0.11960161535E+00  0.47329521852E-01  0.13024903647E+00  0.19607527187E-01 0.  0.
         14    1    1    2    0    0  0.15818722327E-01 -0.11123155724E-02  0.16872467900E-01  0.23154900022E-01  0.00000000000E+00 0. -1.
     999901    1    3    3    0    0 -0.21795874384E-01 -0.11848929977E+00 -0.64201989752E-01  0.89052606351E+00  0.88000000000E+00 0. -1.
        -11    1    4    4    0    0 -0.30199363753E-02  0.81692673393E-02 -0.29995429041E-03  0.87297215390E-02  0.51100000000E-03 0.  1.
         11    1    4    4    0    0  0.89970884328E-02  0.11143234801E+00  0.47629476142E-01  0.12151931493E+00  0.51100000000E-03 0. -1.
</event>
<event>
 8    1  0.1126414E+005  0.1043930E+01  0.7957747E-01            NaN
         13   -1    0    0    0    0  0.00000000000E+00  0.00000000000E+00  0.74505805969E-08  0.10566000000E+00  0.10566000000E+00 0. -1.
     999900   -1    0    0    0    0 -0.00000000000E+00 -0.00000000000E+00 -0.74505805969E-08  0.93827000000E+00  0.93827000000E+00 0.  1.
     999902    2    1    2    0    0  0.17509243271E-01  0.65685540484E-02  0.13871570932E-01  0.10206461004E+01  0.10203804791E+01 0.  0.
     999903    2    3    3    0    0  0.98465888565E-02  0.28278764967E-01 -0.12439537910E+00  0.12955250315E+00  0.20322324438E-01 0.  0.
         14    1    1    2    0    0 -0.17509243271E-01 -0.65685540484E-02 -0.13871570932E-01  0.23283899638E-01  0.00000000000E+00 0. -1.
     999901    1    3    3    0    0  0.76626544147E-02 -0.21710210918E-01  0.13826695003E+00  0.89109359722E+00  0.88000000000E+00 0. -1.
        -11    1    4    4    0    0  0.95962361229E-02  0.95307820099E-02 -0.83126765157E-01  0.84221397281E-01  0.51100000000E-03 0.  1.
         11    1    4    4    0    0  0.25035273360E-03  0.18747982957E-01 -0.41268613939E-01  0.45331105864E-01  0.51100000000E-03 0. -1.
</event>
<event>
 8    1  0.1126414E+005  0.1043930E+01  0.7957747E-01            NaN
         13   -1    0    0    0    0  0.00000000000E+00  0.00000000000E+00  0.74505805969E-08  0.10566000000E+00  0.10566000000E+00 0.  1.
     999900   -1    0    0    0    0 -0.00000000000E+00 -0.00000000000E+00 -0.74505805969E-08  0.93827000000E+00  0.93827000000E+00 0. -1.
     999902    2    1    2    0    0 -0.10748094791E-01 -0.12838548086E-01  0.15664402156E-01  0.10210013421E+01  0.10207438548E+01 0.  0.
     999903    2    3    3    0    0  0.69879934478E-01  0.55862883896E-01  0.93883335019E-01  0.13120419256E+00  0.19914630565E-01 0.  0.
         14    1    1    2    0    0  0.10748094791E-01  0.12838548086E-01 -0.15664402156E-01  0.22928657909E-01  0.00000000000E+00 0.  1.
     999901    1    3    3    0    0 -0.80628029269E-01 -0.68701431982E-01 -0.78218932863E-01  0.88979714953E+00  0.88000000000E+00 0. -1.
        -11    1    4    4    0    0  0.62486060825E-01  0.40639881668E-01  0.73178141558E-01  0.10445769145E+00  0.51100000000E-03 0. -1.
         11    1    4    4    0    0  0.73938736529E-02  0.15223002228E-01  0.20705193460E-01  0.26746501111E-01  0.51100000000E-03 0.  1.
</event>
<event>
 8    1  0.1126414E+005  0.1043930E+01  0.7957747E-01            NaN
         13   -1    0    0    0    0  0.00000000000E+00  0.00000000000E+00  0.74505805969E-08  0.10566000000E+00  0.10566000000E+00 0. -1.
     999900   -1    0    0    0    0 -0.00000000000E+00 -0.00000000000E+00 -0.74505805969E-08  0.93827000000E+00  0.93827000000E+00 0. -1.
     999902    2    1    2    0    0 -0.54012813274E-02  0.17053216604E-01 -0.15530795865E-01  0.10202405159E+01  0.10199654497E+01 0.  0.
     999903    2    3    3    0    0  0.10423468998E-02 -0.12708278360E+00  0.55377771939E-02  0.12824242640E+00  0.16258307982E-01 0.  0.
         14    1    1    2    0    0  0.54012813274E-02 -0.17053216604E-01  0.15530795865E-01  0.23689484096E-01  0.00000000000E+00 0. -1.
     999901    1    3    3    0    0 -0.64436282272E-02  0.14413600021E+00 -0.21068573059E-01  0.89199808950E+00  0.88000000000E+00 0.  1.
        -11    1    4    4    0    0 -0.20984144140E-02 -0.50306145569E-01  0.97366890831E-02  0.51285240180E-01  0.51100000000E-03 0. -1.
         11    1    4    4    0    0  0.31407613138E-02 -0.76776638034E-01 -0.41989118893E-02  0.76957186224E-01  0.51100000000E-03 0.  1.
</event>
<event>
 8    1  0.1126414E+005  0.1043930E+01  0.7957747E-01            NaN
         13   -1    0    0    0    0  0.00000000000E+00  0.00000000000E+00  0.74505805969E-08  0.10566000000E+00  0.10566000000E+00 0.  1.
     999900   -1    0    0    0    0 -0.00000000000E+00 -0.00000000000E+00 -0.74505805969E-08  0.93827000000E+00  0.93827000000E+00 0. -1.
     999902    2    1    2    0    0 -0.13117452104E-01 -0.11535385690E-01  0.11330376422E-01  0.10231090946E+01  0.10228972135E+01 0.  0.
     999903    2    3    3    0    0  0.11712663183E+00 -0.80945499169E-02  0.57412820302E-01  0.13232351298E+00  0.20714983189E-01 0.  0.
         14    1    1    2    0    0  0.13117452104E-01  0.11535385690E-01 -0.11330376422E-01  0.20820905422E-01  0.00000000000E+00 0. -1.
     999901    1    3    3    0    0 -0.13024408394E+00 -0.34408357727E-02 -0.46082443880E-01  0.89078558160E+00  0.88000000000E+00 0. -1.
        -11    1    4    4    0    0  0.16302196515E-01  0.53776032526E-02  0.49681757085E-02  0.17878034535E-01  0.51100000000E-03 0. -1.
         11    1    4    4    0    0  0.10082443532E+00 -0.13472153170E-01  0.52444644594E-01  0.11444547844E+00  0.51100000000E-03 0.  1.
</event>
<event>
 8    1  0.1126414E+005  0.1043930E+01  0.7957747E-01            NaN
         13   -1    0    0    0    0  0.00000000000E+00  0.00000000000E+00  0.74505805969E-08  0.10566000000E+00  0.10566000000E+00 0.  1.
     999900   -1    0    0    0    0 -0.00000000000E+00 -0.00000000000E+00 -0.74505805969E-08  0.93827000000E+00  0.93827000000E+00 0. -1.
     999902    2    1    2    0    0 -0.21062384250E-01 -0.13767926379E-01 -0.17123120341E-03  0.10187663527E+01  0.10184555327E+01 0.  0.
     999903    2    3    3    0    0 -0.30961527309E-01 -0.54558656657E-01  0.11269822523E+00  0.13056514184E+00  0.20275677683E-01 0.  0.
         14    1    1    2    0    0  0.21062384250E-01  0.13767926379E-01  0.17123120341E-03  0.25163647335E-01  0.00000000000E+00 0. -1.
     999901    1    3    3    0    0  0.98991430598E-02  0.40790730277E-01 -0.11286945643E+00  0.88820121082E+00  0.88000000000E+00 0. -1.
        -11    1    4    4    0    0 -0.32204348804E-01 -0.43027338525E-01  0.98645067075E-01  0.11233691433E+00  0.51100000000E-03 0.  1.
         11    1    4    4    0    0  0.12428214948E-02 -0.11531318132E-01  0.14053158154E-01  0.18228227512E-01  0.51100000000E-03 0. -1.
</event>
<event>
 8    1  0.1126414E+005  0.1043930E+01  0.7957747E-01            NaN
         13   -1    0    0    0    0  0.00000000000E+00  0.00000000000E+00  0.74505805969E-08  0.10566000000E+00  0.10566000000E+00 0.  1.
     999900   -1    0    0    0    0 -0.00000000000E+00 -0.00000000000E+00 -0.74505805969E-08  0.93827000000E+00  0.93827000000E+00 0. -1.
     999902    2    1    2    0    0  0.87962189717E-02  0.17588967977E-01  0.13007248820E-01  0.10203517519E+01  0.10200792929E+01 0.  0.
     999903    2    3    3    0    0  0.52514381539E-01 -0.10673747298E-01  0.12023941674E+00  0.13231526803E+00  0.13346297797E-01 0.  0.
         14    1    1    2    0    0 -0.87962189717E-02 -0.17588967977E-01 -0.13007248820E-01  0.23578248123E-01  0.00000000000E+00 0. -1.
     999901    1    3    3    0    0 -0.43718162567E-01  0.28262715275E-01 -0.10723216792E+00  0.88803648385E+00  0.88000000000E+00 0. -1.
        -11    1    4    4    0    0  0.31647449583E-01 -0.99942964189E-02  0.60152839817E-01  0.68702782222E-01  0.51100000000E-03 0. -1.
         11    1    4    4    0    0  0.20866931956E-01 -0.67945087947E-03  0.60086576924E-01  0.63612485805E-01  0.51100000000E-03 0.  1.
</event>
<event>
 8    1  0.1126414E+005  0.1043930E+01  0.7957747E-01            NaN
         13   -1    0    0    0    0  0.00000000000E+00  0.00000000000E+00  0.74505805969E-08  0.10566000000E+00  0.10566000000E+00 0.  1.
     999900   -1    0    0    0    0 -0.00000000000E+00 -0.00000000000E+00 -0.74505805969E-08  0.93827000000E+00  0.93827000000E+00 0.  1.
     999902    2    1    2    0    0  0.16643607066E-01 -0.48017191911E-02 -0.15820837290E-01  0.10204701395E+01  0.10202004413E+01 0.  0.
     999903    2    3    3    0    0  0.26752863875E-01 -0.11923115437E+00 -0.47046850954E-01  0.13245473610E+00  0.19976662173E-01 0.  0.
         14    1    1    2    0    0 -0.16643607066E-01  0.48017191911E-02  0.15820837290E-01  0.23459860526E-01  0.00000000000E+00 0.  1.
     999901    1    3    3    0    0 -0.10109256810E-01  0.11442943518E+00  0.31226013663E-01  0.88801540338E+00  0.88000000000E+00 0.  1.
        -11    1    4    4    0    0  0.12341843339E-01 -0.80338424998E-01 -0.39191491975E-01  0.90237563090E-01  0.51100000000E-03 0. -1.
         11    1    4    4    0    0  0.14411020537E-01 -0.38892729371E-01 -0.78553589783E-02  0.42217173005E-01  0.51100000000E-03 0.  1.
</event>
<event>
 8    1  0.1126414E+005  0.1043930E+01  0.7957747E-01            NaN
         13   -1    0    0    0    0  0.00000000000E+00  0.00000000000E+00  0.74505805969E-08  0.10566000000E+00  0.10566000000E+00 0.  1.
     999900   -1    0    0    0    0 -0.00000000000E+00 -0.00000000000E+00 -0.74505805969E-08  0.93827000000E+00  0.93827000000E+00 0.  1.
     999902    2    1    2    0    0 -0.13087739552E-01  0.18552842239E-01 -0.75864711844E-02  0.10199915074E+01  0.10197105588E+01 0.  0.
     999903    2    3    3    0    0  0.23304598515E-01 -0.96133194906E-01  0.78245207346E-01  0.12766624922E+00  0.19790483660E-01 0.  0.
         14    1    1    2    0    0  0.13087739552E-01 -0.18552842239E-01  0.75864711844E-02  0.23938492575E-01  0.00000000000E+00 0.  1.
     999901    1    3    3    0    0 -0.36392338066E-01  0.11468603714E+00 -0.85831678530E-01  0.89232525820E+00  0.88000000000E+00 0.  1.
        -11    1    4    4    0    0  0.82250436489E-02 -0.31707804801E-01  0.38196520713E-01  0.50321680655E-01  0.51100000000E-03 0.  1.
         11    1    4    4    0    0  0.15079554866E-01 -0.64425390105E-01  0.40048686633E-01  0.77344568569E-01  0.51100000000E-03 0. -1.
</event>
<event>
 8    1  0.1126414E+005  0.1043930E+01  0.7957747E-01            NaN
         13   -1    0    0    0    0  0.00000000000E+00  0.00000000000E+00  0.74505805969E-08  0.10566000000E+00  0.10566000000E+00 0.  1.
     999900   -1    0    0    0    0 -0.00000000000E+00 -0.00000000000E+00 -0.74505805969E-08  0.93827000000E+00  0.93827000000E+00 0. -1.
     999902    2    1    2    0    0  0.17173971460E-01  0.10113216949E-01 -0.62491873101E-02  0.10230428079E+01  0.10228295615E+01 0.  0.
     999903    2    3    3    0    0 -0.55012587990E-01 -0.98569678865E-01 -0.64507266999E-01  0.13151778015E+00  0.19833622257E-01 0.  0.
         14    1    1    2    0    0 -0.17173971460E-01 -0.10113216949E-01  0.62491873101E-02  0.20887192123E-01  0.00000000000E+00 0.  1.
     999901    1    3    3    0    0  0.72186559450E-01  0.10868289581E+00  0.58258079689E-01  0.89152502772E+00  0.88000000000E+00 0.  1.
        -11    1    4    4    0    0 -0.24130894787E-01 -0.32612334594E-01 -0.32408916888E-01  0.51927482760E-01  0.51100000000E-03 0.  1.
         11    1    4    4    0    0 -0.30881693203E-01 -0.65957344271E-01 -0.32098350112E-01  0.79590297394E-01  0.51100000000E-03 0. -1.
</event>
<event>
 8    1  0.1126414E+005  0.1043930E+01  0.7957747E-01            NaN
         13   -1    0    0    0    0  0.00000000000E+00  0.00000000000E+00  0.74505805969E-08  0.10566000000E+00  0.10566000000E+00 0.  1.
     999900   -1    0    0    0    0 -0.00000000000E+00 -0.00000000000E+00 -0.74505805969E-08  0.93827000000E+00  0.93827000000E+00 0.  1.
     999902    2    1    2    0    0  0.39257853620E-02 -0.97850817247E-02  0.21916393588E-01  0.10196094753E+01  0.10193193779E+01 0.  0.
     999903    2    3    3    0    0  0.78879334746E-01  0.88263327715E-01  0.51196104201E-01  0.13051508961E+00  0.20019566981E-01 0.  0.
         14    1    1    2    0    0 -0.39257853620E-02  0.97850817247E-02 -0.21916393588E-01  0.24320524726E-01  0.00000000000E+00 0. -1.
     999901    1    3    3    0    0 -0.74953549384E-01 -0.98048409440E-01 -0.29279710613E-01  0.88909438566E+00  0.88000000000E+00 0. -1.
        -11    1    4    4    0    0  0.58103522787E-02  0.74411345681E-02  0.10693511260E-01  0.14273856568E-01  0.51100000000E-03 0.  1.
         11    1    4    4    0    0  0.73068982467E-01  0.80822193147E-01  0.40502592941E-01  0.11624123305E+00  0.51100000000E-03 0. -1.
</event>
<event>
 8    1  0.1126414E+005  0.1043930E+01  0.7957747E-01            NaN
         13   -1    0    0    0    0  0.00000000000E+00  0.00000000000E+00  0.74505805969E-08  0.10566000000E+00  0.10566000000E+00 0. -1.
     999900   -1    0    0    0    0 -0.00000000000E+00 -0.00000000000E+00 -0.74505805969E-08  0.93827000000E+00  0.93827000000E+00 0. -1.
     999902    2    1    2    0    0  0.20702619626E-01 -0.11682580749E-01 -0.87247382085E-03  0.10201425587E+01  0.10198651861E+01 0.  0.
     999903    2    3    3    0    0  0.96762033869E-01  0.66412219878E-01  0.56200674900E-01  0.13158126275E+00  0.19535575254E-01 0.  0.
         14    1    1    2    0    0 -0.20702619626E-01  0.11682580749E-01  0.87247382085E-03  0.23787441285E-01  0.00000000000E+00 0. -1.
     999901    1    3    3    0    0 -0.76059414243E-01 -0.78094800626E-01 -0.57073148721E-01  0.88856129596E+00  0.88000000000E+00 0. -1.
        -11    1    4    4    0    0  0.23771535151E-01  0.26232218423E-01  0.20711066394E-01  0.41017368992E-01  0.51100000000E-03 0. -1.
         11    1    4    4    0    0  0.72990498718E-01  0.40180001454E-01  0.35489608506E-01  0.90563893759E-01  0.51100000000E-03 0.  1.
</event>
<event>
 8    1  0.1126414E+005  0.1043930E+01  0.7957747E-01            NaN
         13   -1    0    0    0    0  0.00000000000E+00  0.00000000000E+00  0.74505805969E-08  0.10566000000E+00  0.10566000000E+00 0. -1.
     999900   -1    0    0    0    0 -0.00000000000E+00 -0.00000000000E+00 -0.74505805969E-08  0.93827000000E+00  0.93827000000E+00 0.  1.
     999902    2    1    2    0    0  0.20624722476E-01  0.30215376908E-02  0.11788839151E-01  0.10199824407E+01  0.10197012767E+01 0.  0.
     999903    2    3    3    0    0  0.18335966031E-01 -0.12110136179E+00 -0.35409162730E-01  0.13001649532E+00  0.25470233046E-01 0.  0.
         14    1    1    2    0    0 -0.20624722476E-01 -0.30215376908E-02 -0.11788839151E-01  0.23947559286E-01  0.00000000000E+00 0.  1.
     999901    1    3    3    0    0  0.22887564447E-02  0.12412289948E+00  0.47198001881E-01  0.88996594540E+00  0.88000000000E+00 0. -1.
        -11    1    4    4    0    0  0.21006435623E-01 -0.54190983940E-01 -0.17424937018E-01  0.60678024268E-01  0.51100000000E-03 0. -1.
         11    1    4    4    0    0 -0.26704695919E-02 -0.66910377852E-01 -0.17984225712E-01  0.69338471051E-01  0.51100000000E-03 0.  1.
</event>
<event>
 8    1  0.1126414E+005  0.1043930E+01  0.7957747E-01            NaN
         13   -1    0    0    0    0  0.00000000000E+00  0.00000000000E+00  0.74505805969E-08  0.10566000000E+00  0.10566000000E+00 0. -1.
     999900   -1    0    0    0    0 -0.00000000000E+00 -0.00000000000E+00 -0.74505805969E-08  0.93827000000E+00  0.93827000000E+00 0.  1.
     999902    2    1    2    0    0  0.13043306766E-01  0.20130024051E-01 -0.69528921271E-02  0.10189562452E+01  0.10186501564E+01 0.  0.
     999903    2    3    3    0    0 -0.53060787137E-01  0.11766191698E+00  0.10361048231E-01  0.13093485250E+00  0.19411605821E-01 0.  0.
         14    1    1    2    0    0 -0.13043306766E-01 -0.20130024051E-01  0.69528921271E-02  0.24973754796E-01  0.00000000000E+00 0.  1.
     999901    1    3    3    0    0  0.66104093903E-01 -0.97531892926E-01 -0.17313940358E-01  0.88802139270E+00  0.88000000000E+00 0.  1.
        -11    1    4    4    0    0 -0.19069137449E-01  0.42725648609E-01  0.13140852563E-01  0.48600989488E-01  0.51100000000E-03 0.  1.
         11    1    4    4    0    0 -0.33991649688E-01  0.74936268368E-01 -0.27798043320E-02  0.82333863013E-01  0.51100000000E-03 0. -1.
</event>
<event>
 8    1  0.1126414E+005  0.1043930E+01  0.7957747E-01            NaN
         13   -1    0    0    0    0  0.00000000000E+00  0.00000000000E+00  0.74505805969E-08  0.10566000000E+00  0.10566000000E+00 0.  1.
     999900   -1    0    0    0    0 -0.00000000000E+00 -0.00000000000E+00 -0.74505805969E-08  0.93827000000E+00  0.93827000000E+00 0.  1.
     999902    2    1    2    0    0 -0.15862161647E-01  0.11678174188E-01 -0.14149137557E-01  0.10196774534E+01  0.10193889949E+01 0.  0.
     999903    2    3    3    0    0 -0.90262022720E-01 -0.79662643970E-01 -0.48045362814E-01  0.13118016104E+00  0.20162047827E-01 0.  0.
         14    1    1    2    0    0  0.15862161647E-01 -0.11678174188E-01  0.14149137557E-01  0.24252546631E-01  0.00000000000E+00 0. -1.
     999901    1    3    3    0    0  0.74399861073E-01  0.91340818158E-01  0.33896225258E-01  0.88849729233E+00  0.88000000000E+00 0. -1.
        -11    1    4    4    0    0 -0.60189998059E-01 -0.39939797124E-01 -0.28001061713E-01  0.77474794860E-01  0.51100000000E-03 0. -1.
         11    1    4    4    0    0 -0.30072024662E-01 -0.39722846846E-01 -0.20044301102E-01  0.53705366179E-01  0.51100000000E-03 0.  1.
</event>
<event>
 8    1  0.1212524E+005  0.1043930E+01  0.7957747E-01            NaN
         13   -1    0    0    0    0  0.00000000000E+00  0.00000000000E+00  0.74505805969E-08  0.10566000000E+00  0.10566000000E+00 0.  1.
     999900   -1    0    0    0    0 -0.00000000000E+00 -0.00000000000E+00 -0.74505805969E-08  0.93827000000E+00  0.93827000000E+00 0.  1.
     999902    2    1    2    0    0  0.25280400671E-02 -0.23221902032E-01  0.35413394744E-02  0.10203039803E+01  0.10200304032E+01 0.  0.
     999903    2    3    3    0    0 -0.17848867712E-01 -0.12635999242E+00  0.34019376629E-01  0.13352238669E+00  0.19633644533E-01 0.  0.
         14    1    1    2    0    0 -0.25280400671E-02  0.23221902032E-01 -0.35413394744E-02  0.23626019678E-01  0.00000000000E+00 0. -1.
     999901    1    3    3    0    0  0.20376907779E-01  0.10313809039E+00 -0.30478037154E-01  0.88678159363E+00  0.88000000000E+00 0.  1.
        -11    1    4    4    0    0 -0.13631859426E-01 -0.57450053594E-01  0.24085037789E-01  0.63770576409E-01  0.51100000000E-03 0.  1.
         11    1    4    4    0    0 -0.42170082863E-02 -0.68909938827E-01  0.99343388402E-02  0.69751810279E-01  0.51100000000E-03 0. -1.
</event>
<event>
 8    1  0.1126414E+005  0.1043930E+01  0.7957747E-01            NaN
         13   -1    0    0    0    0  0.00000000000E+00  0.00000000000E+00  0.74505805969E-08  0.10566000000E+00  0.10566000000E+00 0. -1.
     999900   -1    0    0    0    0 -0.00000000000E+00 -0.00000000000E+00 -0.74505805969E-08  0.93827000000E+00  0.93827000000E+00 0.  1.
     999902    2    1    2    0    0  0.17737656370E-01 -0.16040802838E-01  0.46861884752E-04  0.10200148582E+01  0.10197344640E+01 0.  0.
     999903    2    3    3    0    0 -0.12041857109E+00  0.39676512608E-01 -0.59204081098E-02  0.12747512762E+00  0.11832117926E-01 0.  0.
         14    1    1    2    0    0 -0.17737656370E-01  0.16040802838E-01 -0.46861884752E-04  0.23915141756E-01  0.00000000000E+00 0. -1.
     999901    1    3    3    0    0  0.13815622746E+00 -0.55717315446E-01  0.59672699946E-02  0.89253973062E+00  0.88000000000E+00 0. -1.
        -11    1    4    4    0    0 -0.96415367274E-01  0.36259128587E-01 -0.65389866738E-02  0.10321660196E+00  0.51100000000E-03 0.  1.
         11    1    4    4    0    0 -0.24003203814E-01  0.34173840213E-02  0.61857856396E-03  0.24258525663E-01  0.51100000000E-03 0. -1.
</event>
<event>
 8    1  0.1126414E+005  0.1043930E+01  0.7957747E-01            NaN
         13   -1    0    0    0    0  0.00000000000E+00  0.00000000000E+00  0.74505805969E-08  0.10566000000E+00  0.10566000000E+00 0.  1.
     999900   -1    0    0    0    0 -0.00000000000E+00 -0.00000000000E+00 -0.74505805969E-08  0.93827000000E+00  0.93827000000E+00 0. -1.
     999902    2    1    2    0    0 -0.29835368721E-02 -0.53379988103E-02  0.22839897564E-01  0.10202856213E+01  0.10200116138E+01 0.  0.
     999903    2    3    3    0    0 -0.93766576218E-01  0.82615694878E-01 -0.29079591697E-01  0.12973913411E+00  0.19211882040E-01 0.  0.
         14    1    1    2    0    0  0.29835368721E-02  0.53379988103E-02 -0.22839897564E-01  0.23644378704E-01  0.00000000000E+00 0. -1.
     999901    1    3    3    0    0  0.90783039346E-01 -0.87953693689E-01  0.51919489262E-01  0.89054648718E+00  0.88000000000E+00 0.  1.
        -11    1    4    4    0    0 -0.37040256503E-01  0.45337380514E-01 -0.12627648623E-01  0.59893048882E-01  0.51100000000E-03 0. -1.
         11    1    4    4    0    0 -0.56726319715E-01  0.37278314364E-01 -0.16451943074E-01  0.69846085232E-01  0.51100000000E-03 0.  1.
</event>
<event>
 8    1  0.1126414E+005  0.1043930E+01  0.7957747E-01            NaN
         13   -1    0    0    0    0  0.00000000000E+00  0.00000000000E+00  0.74505805969E-08  0.10566000000E+00  0.10566000000E+00 0. -1.
     999900   -1    0    0    0    0 -0.00000000000E+00 -0.00000000000E+00 -0.74505805969E-08  0.93827000000E+00  0.93827000000E+00 0.  1.
     999902    2    1    2    0    0 -0.20788990181E-01 -0.90301436901E-02  0.19497060824E-01  0.10140324919E+01  0.10135916504E+01 0.  0.
     999903    2    3    3    0    0 -0.47078455338E-01 -0.31560730667E-01  0.11354795910E+00  0.12834387013E+00  0.19145477456E-01 0.  0.
         14    1    1    2    0    0  0.20788990181E-01  0.90301436901E-02 -0.19497060824E-01  0.29897508066E-01  0.00000000000E+00 0.  1.
     999901    1    3    3    0    0  0.26289465157E-01  0.22530586977E-01 -0.94050898275E-01  0.88568862180E+00  0.88000000000E+00 0.  1.
        -11    1    4    4    0    0 -0.19901328612E-01 -0.24819914935E-01  0.60923247935E-01  0.68731319774E-01  0.51100000000E-03 0. -1.
         11    1    4    4    0    0 -0.27177126726E-01 -0.67408157317E-02  0.52624711164E-01  0.59612550355E-01  0.51100000000E-03 0.  1.
</event>
<event>
 8    1  0.1126414E+005  0.1043930E+01  0.7957747E-01            NaN
         13   -1    0    0    0    0  0.00000000000E+00  0.00000000000E+00  0.74505805969E-08  0.10566000000E+00  0.10566000000E+00 0. -1.
     999900   -1    0    0    0    0 -0.00000000000E+00 -0.00000000000E+00 -0.74505805969E-08  0.93827000000E+00  0.93827000000E+00 0.  1.
     999902    2    1    2    0    0 -0.15663781382E-01  0.11468217003E-01 -0.13201295563E-01  0.10204534531E+01  0.10201833667E+01 0.  0.
     999903    2    3    3    0    0 -0.33288956112E-01  0.12056626998E+00  0.37494671423E-01  0.13209366508E+00  0.19962612919E-01 0.  0.
         14    1    1    2    0    0  0.15663781382E-01 -0.11468217003E-01  0.13201295563E-01  0.23476546871E-01  0.00000000000E+00 0. -1.
     999901    1    3    3    0    0  0.17625174730E-01 -0.10909805298E+00 -0.50695966987E-01  0.88835978805E+00  0.88000000000E+00 0.  1.
        -11    1    4    4    0    0 -0.84341614145E-02  0.21773147032E-01 -0.51471984158E-03  0.23360887568E-01  0.51100000000E-03 0.  1.
         11    1    4    4    0    0 -0.24854794698E-01  0.98793122946E-01  0.38009391265E-01  0.10873277752E+00  0.51100000000E-03 0. -1.
</event>
<event>
 8    1  0.1126414E+005  0.1043930E+01  0.7957747E-01            NaN
         13   -1    0    0    0    0  0.00000000000E+00  0.00000000000E+00  0.74505805969E-08  0.10566000000E+00  0.10566000000E+00 0. -1.
     999900   -1    0    0    0    0 -0.00000000000E+00 -0.00000000000E+00 -0.74505805969E-08  0.93827000000E+00  0.93827000000E+00 0. -1.
     999902    2    1    2    0    0 -0.59558698499E-02  0.14126859590E-01  0.12813513638E-01  0.10239493424E+01  0.10237543793E+01 0.  0.
     999903    2    3    3    0    0 -0.67959733216E-01 -0.75855588373E-01 -0.81757057279E-01  0.13216186046E+00  0.20247106424E-01 0.  0.
         14    1    1    2    0    0  0.59558698499E-02 -0.14126859590E-01 -0.12813513638E-01  0.19980657629E-01  0.00000000000E+00 0.  1.
     999901    1    3    3    0    0  0.62003863366E-01  0.89982447963E-01  0.94570570916E-01  0.89178748191E+00  0.88000000000E+00 0.  1.
        -11    1    4    4    0    0 -0.37681481396E-01 -0.54970306338E-01 -0.58174267610E-01  0.88465446091E-01  0.51100000000E-03 0. -1.
         11    1    4    4    0    0 -0.30278251820E-01 -0.20885282035E-01 -0.23582789669E-01  0.43696414367E-01  0.51100000000E-03 0.  1.
</event>
<event>
 8    1  0.1126414E+005  0.1043930E+01  0.7957747E-01            NaN
         13   -1    0    0    0    0  0.00000000000E+00  0.00000000000E+00  0.74505805969E-08  0.10566000000E+00  0.10566000000E+00 0.  1.
     999900   -1    0    0    0    0 -0.00000000000E+00 -0.00000000000E+00 -0.74505805969E-08  0.93827000000E+00  0.93827000000E+00 0. -1.
     999902    2    1    2    0    0  0.92210907038E-02  0.19903217604E-01 -0.65673991433E-02  0.10210324605E+01  0.10207756796E+01 0.  0.
     999903    2    3    3    0    0 -0.55229523783E-01 -0.11295175098E+00  0.15734732095E-01  0.12845097431E+00  0.21063538646E-01 0.  0.
         14    1    1    2    0    0 -0.92210907038E-02 -0.19903217604E-01  0.65673991433E-02  0.22897539525E-01  0.00000000000E+00 0. -1.
     999901    1    3    3    0    0  0.64450614487E-01  0.13285496859E+00 -0.22302131238E-01  0.89258148616E+00  0.88000000000E+00 0.  1.
        -11    1    4    4    0    0 -0.46777402147E-01 -0.78983709459E-01  0.17277572201E-01  0.93409460622E-01  0.51100000000E-03 0. -1.
         11    1    4    4    0    0 -0.84521216358E-02 -0.33968041523E-01 -0.15428401061E-02  0.35041513689E-01  0.51100000000E-03 0.  1.
</event>
<event>
 8    1  0.1126414E+005  0.1043930E+01  0.7957747E-01            NaN
         13   -1    0    0    0    0  0.00000000000E+00  0.00000000000E+00  0.74505805969E-08  0.10566000000E+00  0.10566000000E+00 0.  1.
     999900   -1    0    0    0    0 -0.00000000000E+00 -0.00000000000E+00 -0.74505805969E-08  0.93827000000E+00  0.93827000000E+00 0.  1.
     999902    2    1    2    0    0  0.17726863931E-01  0.11964571715E-01  0.10927253713E-01  0.10199133900E+01  0.10196305829E+01 0.  0.
     999903    2    3    3    0    0  0.10112148484E+00 -0.20324033084E-01  0.80919487104E-01  0.13261629799E+00  0.20012448151E-01 0.  0.
         14    1    1    2    0    0 -0.17726863931E-01 -0.11964571715E-01 -0.10927253713E-01  0.24016609979E-01  0.00000000000E+00 0. -1.
     999901    1    3    3    0    0 -0.83394620912E-01  0.32288604799E-01 -0.69992233391E-01  0.88729709203E+00  0.88000000000E+00 0.  1.
        -11    1    4    4    0    0  0.66857433869E-01 -0.47233549239E-02  0.46254197197E-01  0.81436714230E-01  0.51100000000E-03 0.  1.
         11    1    4    4    0    0  0.34264050974E-01 -0.15600678160E-01  0.34665289907E-01  0.51179583757E-01  0.51100000000E-03 0. -1.
</event>
<event>
 8    1  0.1126414E+005  0.1043930E+01  0.7957747E-01            NaN
         13   -1    0    0    0    0  0.00000000000E+00  0.00000000000E+00  0.74505805969E-08  0.10566000000E+00  0.10566000000E+00 0.  1.
     999900   -1    0    0    0    0 -0.00000000000E+00 -0.00000000000E+00 -0.74505805969E-08  0.93827000000E+00  0.93827000000E+00 0.  1.
     999902    2    1    2    0    0 -0.20910975815E-01 -0.47249682283E-02  0.98076166986E-02  0.10203549373E+01  0.10200825528E+01 0.  0.
     999903    2    3    3    0    0  0.10609709342E+00  0.35721263541E-01  0.60643959846E-01  0.12886669787E+00  0.19908140374E-01 0.  0.
         14    1    1    2    0    0  0.20910975815E-01  0.47249682283E-02 -0.98076166986E-02  0.23575062664E-01  0.00000000000E+00 0. -1.
     999901    1    3    3    0    0 -0.12700806924E+00 -0.40446231770E-01 -0.50836343148E-01  0.89148823946E+00  0.88000000000E+00 0.  1.
        -11    1    4    4    0    0  0.53021411852E-01  0.73834863425E-02  0.28294326547E-01  0.60552588889E-01  0.51100000000E-03 0. -1.
         11    1    4    4    0    0  0.53075681571E-01  0.28337777199E-01  0.32349633299E-01  0.68314108984E-01  0.51100000000E-03 0.  1.
</event>
<event>
 8    1  0.1126414E+005  0.1043930E+01  0.7957747E-01            NaN
         13   -1    0    0    0    0  0.00000000000E+00  0.00000000000E+00  0.74505805969E-08  0.10566000000E+00  0.10566000000E+00 0. -1.
     999900   -1    0    0    0    0 -0.00000000000E+00 -0.00000000000E+00 -0.74505805969E-08  0.93827000000E+00  0.93827000000E+00 0.  1.
     999902    2    1    2    0    0 -0.51399093703E-02 -0.21567084649E-01 -0.48379987262E-02  0.10212371809E+01  0.10209850222E+01 0.  0.
     999903    2    3    3    0    0 -0.50193520920E-01  0.68390139934E-02 -0.12010648123E+00  0.13212326386E+00  0.21559878572E-01 0.  0.
         14    1    1    2    0    0  0.51399093703E-02  0.21567084649E-01  0.48379987262E-02  0.22692819135E-01  0.00000000000E+00 0.  1.
     999901    1    3    3    0    0  0.45053611549E-01 -0.28406098643E-01  0.11526848251E+00  0.88911391701E+00  0.88000000000E+00 0. -1.
        -11    1    4    4    0    0 -0.42096185843E-01  0.63360042306E-02 -0.74572860806E-01  0.85869706544E-01  0.51100000000E-03 0. -1.
         11    1    4    4    0    0 -0.80973350764E-02  0.50300976278E-03 -0.45533620427E-01  0.46253557316E-01  0.51100000000E-03 0.  1.
</event>
<event>
 8    1  0.1126414E+005  0.1043930E+01  0.7957747E-01            NaN
         13   -1    0    0    0    0  0.00000000000E+00  0.00000000000E+00  0.74505805969E-08  0.10566000000E+00  0.10566000000E+00 0. -1.
     999900   -1    0    0    0    0 -0.00000000000E+00 -0.00000000000E+00 -0.74505805969E-08  0.93827000000E+00  0.93827000000E+00 0. -1.
     999902    2    1    2    0    0 -0.10204872262E-01 -0.13280689228E-01  0.15786037599E-01  0.10209144594E+01  0.10206549948E+01 0.  0.
     999903    2    3    3    0    0  0.64490200746E-01  0.10461237811E-01 -0.10899117731E+00  0.12866315717E+00  0.20166997639E-01 0.  0.
         14    1    1    2    0    0  0.10204872262E-01  0.13280689228E-01 -0.15786037599E-01  0.23015540561E-01  0.00000000000E+00 0.  1.
     999901    1    3    3    0    0 -0.74695073008E-01 -0.23741927040E-01  0.12477721491E+00  0.89225130226E+00  0.88000000000E+00 0.  1.
        -11    1    4    4    0    0  0.30786195820E-01  0.11446155586E-01 -0.68494961956E-01  0.75964631672E-01  0.51100000000E-03 0.  1.
         11    1    4    4    0    0  0.33704004925E-01 -0.98491777504E-03 -0.40496215355E-01  0.52698525502E-01  0.51100000000E-03 0. -1.
</event>
<event>
 8    1  0.1126414E+005  0.1043930E+01  0.7957747E-01            NaN
         13   -1    0    0    0    0  0.00000000000E+00  0.00000000000E+00  0.74505805969E-08  0.10566000000E+00  0.10566000000E+00 0. -1.
     999900   -1    0    0    0    0 -0.00000000000E+00 -0.00000000000E+00 -0.74505805969E-08  0.93827000000E+00  0.93827000000E+00 0. -1.
     999902    2    1    2    0    0 -0.11142632131E-01  0.92951117060E-02  0.19714506067E-01  0.10194510478E+01  0.10191571124E+01 0.  0.
     999903    2    3    3    0    0  0.11941109999E+00 -0.16306547981E-01 -0.37070649324E-01  0.12764149646E+00  0.19829378928E-01 0.  0.
         14    1    1    2    0    0  0.11142632131E-01 -0.92951117060E-02 -0.19714506067E-01  0.24478952222E-01  0.00000000000E+00 0.  1.
     999901    1    3    3    0    0 -0.13055373212E+00  0.25601659687E-01  0.56785155391E-01  0.89180955132E+00  0.88000000000E+00 0.  1.
        -11    1    4    4    0    0  0.40119059699E-01 -0.11447828550E-01 -0.52070420307E-02  0.42047189411E-01  0.51100000000E-03 0. -1.
         11    1    4    4    0    0  0.79292040294E-01 -0.48587194311E-02 -0.31863607294E-01  0.85594307049E-01  0.51100000000E-03 0.  1.
</event>
<event>
 8    1  0.1126414E+005  0.1043930E+01  0.7957747E-01            NaN
         13   -1    0    0    0    0  0.00000000000E+00  0.00000000000E+00  0.74505805969E-08  0.10566000000E+00  0.10566000000E+00 0. -1.
     999900   -1    0    0    0    0 -0.00000000000E+00 -0.00000000000E+00 -0.74505805969E-08  0.93827000000E+00  0.93827000000E+00 0.  1.
     999902    2    1    2    0    0  0.49972421664E-02  0.14267853787E-01  0.18440935127E-01  0.10200844099E+01  0.10198056634E+01 0.  0.
     999903    2    3    3    0    0  0.57760813428E-01  0.87533928039E-02  0.11848651950E+00  0.13282823339E+00  0.13832961602E-01 0.  0.
         14    1    1    2    0    0 -0.49972421664E-02 -0.14267853787E-01 -0.18440935127E-01  0.23845590144E-01  0.00000000000E+00 0.  1.
     999901    1    3    3    0    0 -0.52763571262E-01  0.55144609828E-02 -0.10004558438E+00  0.88725617647E+00  0.88000000000E+00 0.  1.
        -11    1    4    4    0    0  0.36433671972E-01 -0.63733399063E-03  0.65844498042E-01  0.75256745155E-01  0.51100000000E-03 0. -1.
         11    1    4    4    0    0  0.21327141456E-01  0.93907267945E-02  0.52642021462E-01  0.57571488230E-01  0.51100000000E-03 0.  1.
</event>
<event>
 8    1  0.1126414E+005  0.1043930E+01  0.7957747E-01            NaN
         13   -1    0    0    0    0  0.00000000000E+00  0.00000000000E+00  0.74505805969E-08  0.10566000000E+00  0.10566000000E+00 0.  1.
     999900   -1    0    0    0    0 -0.00000000000E+00 -0.00000000000E+00 -0.74505805969E-08  0.93827000000E+00  0.93827000000E+00 0. -1.
     999902    2    1    2    0    0 -0.13887997005E-01  0.83818623335E-02 -0.18976729773E-01  0.10189650576E+01  0.10186591875E+01 0.  0.
     999903    2    3    3    0    0  0.80693612934E-01  0.97716695724E-01  0.11225543408E-01  0.12888721228E+00  0.20637075200E-01 0.  0.
         14    1    1    2    0    0  0.13887997005E-01 -0.83818623335E-02  0.18976729773E-01  0.24964942416E-01  0.00000000000E+00 0.  1.
     999901    1    3    3    0    0 -0.94581609939E-01 -0.89334833391E-01 -0.30202273180E-01  0.89007784530E+00  0.88000000000E+00 0.  1.
        -11    1    4    4    0    0  0.19924817428E-01  0.26472085546E-01  0.11997523890E-01  0.35241614084E-01  0.51100000000E-03 0.  1.
         11    1    4    4    0    0  0.60768795506E-01  0.71244610178E-01 -0.77198048242E-03  0.93645598196E-01  0.51100000000E-03 0. -1.
</event>
<event>
 8    1  0.1126414E+005  0.1043930E+01  0.7957747E-01            NaN
         13   -1    0    0    0    0  0.00000000000E+00  0.00000000000E+00  0.74505805969E-08  0.10566000000E+00  0.10566000000E+00 0. -1.
     999900   -1    0    0    0    0 -0.00000000000E+00 -0.00000000000E+00 -0.74505805969E-08  0.93827000000E+00  0.93827000000E+00 0. -1.
     999902    2    1    2    0    0 -0.11800956884E-02  0.10768527482E-01  0.20548833753E-01  0.10207005278E+01  0.10204361612E+01 0.  0.
     999903    2    3    3    0    0 -0.18174420435E-01 -0.25054509788E-01  0.12890395622E+00  0.13316859619E+00  0.12633568861E-01 0.  0.
         14    1    1    2    0    0  0.11800956884E-02 -0.10768527482E-01 -0.20548833753E-01  0.23229472197E-01  0.00000000000E+00 0. -1.
     999901    1    3    3    0    0  0.16994324746E-01  0.35823037270E-01 -0.10835512247E+00  0.88753193162E+00  0.88000000000E+00 0. -1.
        -11    1    4    4    0    0 -0.13882766525E-01 -0.15749690917E-01  0.10616549020E+00  0.10822271666E+00  0.51100000000E-03 0. -1.
         11    1    4    4    0    0 -0.42916539098E-02 -0.93048188711E-02  0.22738466021E-01  0.24945879529E-01  0.51100000000E-03 0.  1.
</event>
<event>
 8    1  0.1126414E+005  0.1043930E+01  0.7957747E-01            NaN
         13   -1    0    0    0    0  0.00000000000E+00  0.00000000000E+00  0.74505805969E-08  0.10566000000E+00  0.10566000000E+00 0. -1.
     999900   -1    0    0    0    0 -0.00000000000E+00 -0.00000000000E+00 -0.74505805969E-08  0.93827000000E+00  0.93827000000E+00 0.  1.
     999902    2    1    2    0    0  0.67457325585E-02 -0.17511870106E-01  0.12177445137E-01  0.10215590216E+01  0.10213140428E+01 0.  0.
     999903    2    3    3    0    0 -0.87966085745E-01  0.81809914589E-01 -0.41033981917E-01  0.12933337675E+00  0.24747531267E-01 0.  0.
         14    1    1    2    0    0 -0.67457325585E-02  0.17511870106E-01 -0.12177445137E-01  0.22370978352E-01  0.00000000000E+00 0.  1.
     999901    1    3    3    0    0  0.94711818303E-01 -0.99321784695E-01  0.53211427054E-01  0.89222564490E+00  0.88000000000E+00 0.  1.
        -11    1    4    4    0    0 -0.66148924202E-01  0.74447046937E-01 -0.34416239819E-01  0.10536973785E+00  0.51100000000E-03 0.  1.
         11    1    4    4    0    0 -0.21817161543E-01  0.73628676517E-02 -0.66177420974E-02  0.23963638900E-01  0.51100000000E-03 0. -1.
</event>
<event>
 8    1  0.1126414E+005  0.1043930E+01  0.7957747E-01            NaN
         13   -1    0    0    0    0  0.00000000000E+00  0.00000000000E+00  0.74505805969E-08  0.10566000000E+00  0.10566000000E+00 0.  1.
     999900   -1    0    0    0    0 -0.00000000000E+00 -0.00000000000E+00 -0.74505805969E-08  0.93827000000E+00  0.93827000000E+00 0. -1.
     999902    2    1    2    0    0 -0.14175307905E-01  0.33616032125E-01 -0.41886566890E-02  0.10072077749E+01  0.10065381165E+01 0.  0.
     999903    2    3    3    0    0  0.11903300419E-01  0.55731231308E-01 -0.10456242161E+00  0.12084212321E+00  0.20539231346E-01 0.  0.
         14    1    1    2    0    0  0.14175307905E-01 -0.33616032125E-01  0.41886566890E-02  0.36722225081E-01  0.00000000000E+00 0. -1.
     999901    1    3    3    0    0 -0.26078608323E-01 -0.22115199183E-01  0.10037376492E+00  0.88636565171E+00  0.88000000000E+00 0.  1.
        -11    1    4    4    0    0 -0.81994828135E-03  0.40738387576E-01 -0.74492742448E-01  0.84910060275E-01  0.51100000000E-03 0.  1.
         11    1    4    4    0    0  0.12723248700E-01  0.14992843732E-01 -0.30069679164E-01  0.35932062934E-01  0.51100000000E-03 0. -1.
</event>
<event>
 8    1  0.1126414E+005  0.1043930E+01  0.7957747E-01            NaN
         13   -1    0    0    0    0  0.00000000000E+00  0.00000000000E+00  0.74505805969E-08  0.10566000000E+00  0.10566000000E+00 0.  1.
     999900   -1    0    0    0    0 -0.00000000000E+00 -0.00000000000E+00 -0.74505805969E-08  0.93827000000E+00  0.93827000000E+00 0.  1.
     999902    2    1    2    0    0  0.11688917264E-01  0.90825284558E-02  0.15927898201E-01  0.10221855513E+01  0.10219542456E+01 0.  0.
     999903    2    3    3    0    0  0.11159496166E+00  0.52957654432E-01 -0.41008182129E-01  0.13362043736E+00  0.30245688096E-01 0.  0.
         14    1    1    2    0    0 -0.11688917264E-01 -0.90825284558E-02 -0.15927898201E-01  0.21744448741E-01  0.00000000000E+00 0. -1.
     999901    1    3    3    0    0 -0.99906044399E-01 -0.43875125976E-01  0.56936080331E-01  0.88856511389E+00  0.88000000000E+00 0. -1.
        -11    1    4    4    0    0  0.76008209090E-01  0.34078718232E-01 -0.42066076486E-01  0.93318930541E-01  0.51100000000E-03 0.  1.
         11    1    4    4    0    0  0.35586752573E-01  0.18878936200E-01  0.10578943573E-02  0.40301506823E-01  0.51100000000E-03 0. -1.
</event>
<event>
 8    1  0.1126414E+005  0.1043930E+01  0.7957747E-01            NaN
         13   -1    0    0    0    0  0.00000000000E+00  0.00000000000E+00  0.74505805969E-08  0.10566000000E+00  0.10566000000E+00 0. -1.
     999900   -1    0    0    0    0 -0.00000000000E+00 -0.00000000000E+00 -0.74505805969E-08  0.93827000000E+00  0.93827000000E+00 0.  1.
     999902    2    1    2    0    0  0.12600240965E-01  0.18377791439E-01  0.59372747613E-02  0.10208700667E+01  0.10206095887E+01 0.  0.
     999903    2    3    3    0    0 -0.80482683889E-01  0.10258426275E+00 -0.40697691668E-02  0.13190701821E+00  0.19542391418E-01 0.  0.
         14    1    1    2    0    0 -0.12600240965E-01 -0.18377791439E-01 -0.59372747613E-02  0.23059933264E-01  0.00000000000E+00 0.  1.
     999901    1    3    3    0    0  0.93082924854E-01 -0.84206471313E-01  0.10007043928E-01  0.88896304852E+00  0.88000000000E+00 0. -1.
        -11    1    4    4    0    0 -0.29234618183E-01  0.51758242824E-01 -0.56156394127E-02  0.59710762243E-01  0.51100000000E-03 0.  1.
         11    1    4    4    0    0 -0.51248065706E-01  0.50826019928E-01  0.15458702459E-02  0.72196255970E-01  0.51100000000E-03 0. -1.
</event>
<event>
 8    1  0.1126414E+005  0.1043930E+01  0.7957747E-01            NaN
         13   -1    0    0    0    0  0.00000000000E+00  0.00000000000E+00  0.74505805969E-08  0.10566000000E+00  0.10566000000E+00 0.  1.
     999900   -1    0    0    0    0 -0.00000000000E+00 -0.00000000000E+00 -0.74505805969E-08  0.93827000000E+00  0.93827000000E+00 0.  1.
     999902    2    1    2    0    0 -0.11560066919E-01 -0.46595560838E-02  0.17624052785E-01  0.10223440359E+01  0.10221161254E+01 0.  0.
     999903    2    3    3    0    0 -0.78215768803E-01  0.73161805172E-01 -0.73373529207E-01  0.13173766560E+00  0.22378148389E-01 0.  0.
         14    1    1    2    0    0  0.11560066919E-01  0.46595560838E-02 -0.17624052785E-01  0.21585964111E-01  0.00000000000E+00 0. -1.
     999901    1    3    3    0    0  0.66655701884E-01 -0.77821361256E-01  0.90997581992E-01  0.89060637028E+00  0.88000000000E+00 0. -1.
        -11    1    4    4    0    0 -0.45600894451E-01  0.30332379709E-01 -0.44979331556E-01  0.70872393933E-01  0.51100000000E-03 0.  1.
         11    1    4    4    0    0 -0.32614874352E-01  0.42829425463E-01 -0.28394197651E-01  0.60865271672E-01  0.51100000000E-03 0. -1.
</event>
<event>
 8    1  0.1126414E+005  0.1043930E+01  0.7957747E-01            NaN
         13   -1    0    0    0    0  0.00000000000E+00  0.00000000000E+00  0.74505805969E-08  0.10566000000E+00  0.10566000000E+00 0. -1.
     999900   -1    0    0    0    0 -0.00000000000E+00 -0.00000000000E+00 -0.74505805969E-08  0.93827000000E+00  0.93827000000E+00 0.  1.
     999902    2    1    2    0    0  0.15233487144E-01 -0.17843369214E-01 -0.60041269423E-02  0.10197123516E+01  0.10194247326E+01 0.  0.
     999903    2    3    3    0    0 -0.26940642406E-01 -0.10478494581E+00  0.71324866044E-01  0.13105197318E+00  0.19537146102E-01 0.  0.
         14    1    1    2    0    0 -0.15233487144E-01  0.17843369214E-01  0.60041269423E-02  0.24217648437E-01  0.00000000000E+00 0. -1.
     999901    1    3    3    0    0  0.42174129550E-01  0.86941576595E-01 -0.77328992987E-01  0.88866037838E+00  0.88000000000E+00 0.  1.
        -11    1    4    4    0    0 -0.16901078033E-01 -0.39285991036E-01  0.36306987688E-01  0.56102531194E-01  0.51100000000E-03 0.  1.
         11    1    4    4    0    0 -0.10039564374E-01 -0.65498954773E-01  0.35017878357E-01  0.74949441991E-01  0.51100000000E-03 0. -1.
</event>
<event>
 8    1  0.1126414E+005  0.1043930E+01  0.7957747E-01            NaN
         13   -1    0    0    0    0  0.00000000000E+00  0.00000000000E+00  0.74505805969E-08  0.10566000000E+00  0.10566000000E+00 0. -1.
     999900   -1    0    0    0    0 -0.00000000000E+00 -0.00000000000E+00 -0.74505805969E-08  0.93827000000E+00  0.93827000000E+00 0. -1.
     999902    2    1    2    0    0 -0.13488792150E-01 -0.12087593013E-01  0.16734420233E-01  0.10192703520E+01  0.10189720076E+01 0.  0.
     999903    2    3    3    0    0 -0.31923405848E-01 -0.70896730953E-01  0.10459269658E+00  0.13275051218E+00  0.25251059508E-01 0.  0.
         14    1    1    2    0    0  0.13488792150E-01  0.12087593013E-01 -0.16734420233E-01  0.24659647991E-01  0.00000000000E+00 0.  1.
     999901    1    3    3    0    0  0.18434613699E-01  0.58809137940E-01 -0.87858276344E-01  0.88651983983E+00  0.88000000000E+00 0. -1.
        -11    1    4    4    0    0 -0.32511256185E-01 -0.54064314085E-01  0.69763061500E-01  0.94058905517E-01  0.51100000000E-03 0. -1.
         11    1    4    4    0    0  0.58785033654E-03 -0.16832416868E-01  0.34829635077E-01  0.38691606664E-01  0.51100000000E-03 0.  1.
</event>
<event>
 8    1  0.1126414E+005  0.1043930E+01  0.7957747E-01            NaN
         13   -1    0    0    0    0  0.00000000000E+00  0.00000000000E+00  0.74505805969E-08  0.10566000000E+00  0.10566000000E+00 0. -1.
     999900   -1    0    0    0    0 -0.00000000000E+00 -0.00000000000E+00 -0.74505805969E-08  0.93827000000E+00  0.93827000000E+00 0.  1.
     999902    2    1    2    0    0  0.69426455123E-02 -0.20988808202E-01 -0.16213753666E-01  0.10165143803E+01  0.10161446103E+01 0.  0.
     999903    2    3    3    0    0 -0.91226617879E-01  0.79688973505E-01  0.19865007621E-01  0.12462038601E+00  0.21517290118E-01 0.  0.
         14    1    1    2    0    0 -0.69426455123E-02  0.20988808202E-01  0.16213753666E-01  0.27415619715E-01  0.00000000000E+00 0. -1.
     999901    1    3    3    0    0  0.98169263391E-01 -0.10067778171E+00 -0.36078761287E-01  0.89189399427E+00  0.88000000000E+00 0.  1.
        -11    1    4    4    0    0 -0.31333820194E-01  0.36837751496E-01  0.81934006613E-04  0.48364202231E-01  0.51100000000E-03 0. -1.
         11    1    4    4    0    0 -0.59892797685E-01  0.42851222009E-01  0.19783073614E-01  0.76256183781E-01  0.51100000000E-03 0.  1.
</event>
<event>
 8    1  0.1126414E+005  0.1043930E+01  0.7957747E-01            NaN
         13   -1    0    0    0    0  0.00000000000E+00  0.00000000000E+00  0.74505805969E-08  0.10566000000E+00  0.10566000000E+00 0.  1.
     999900   -1    0    0    0    0 -0.00000000000E+00 -0.00000000000E+00 -0.74505805969E-08  0.93827000000E+00  0.93827000000E+00 0. -1.
     999902    2    1    2    0    0 -0.98734469211E-02  0.20972125610E-01 -0.18743296874E-01  0.10141201663E+01  0.10136819450E+01 0.  0.
     999903    2    3    3    0    0  0.66214840581E-01 -0.91337383718E-01 -0.47281057341E-01  0.12326818245E+00  0.15252004586E-01 0.  0.
         14    1    1    2    0    0  0.98734469211E-02 -0.20972125610E-01  0.18743296874E-01  0.29809833686E-01  0.00000000000E+00 0.  1.
     999901    1    3    3    0    0 -0.76088287502E-01  0.11230950933E+00  0.28537760468E-01  0.89085198386E+00  0.88000000000E+00 0. -1.
        -11    1    4    4    0    0  0.43548752465E-01 -0.69924745191E-01 -0.38078948755E-01  0.90753684722E-01  0.51100000000E-03 0.  1.
         11    1    4    4    0    0  0.22666088116E-01 -0.21412638527E-01 -0.92021085865E-02  0.32514497729E-01  0.51100000000E-03 0. -1.
</event>
<event>
 8    1  0.1126414E+005  0.1043930E+01  0.7957747E-01            NaN
         13   -1    0    0    0    0  0.00000000000E+00  0.00000000000E+00  0.74505805969E-08  0.10566000000E+00  0.10566000000E+00 0.  1.
     999900   -1    0    0    0    0 -0.00000000000E+00 -0.00000000000E+00 -0.74505805969E-08  0.93827000000E+00  0.93827000000E+00 0.  1.
     999902    2    1    2    0    0  0.11393574133E-01  0.19127795736E-01  0.73631703450E-02  0.10204800026E+01  0.10202105338E+01 0.  0.
     999903    2    3    3    0    0  0.12354987934E+00  0.93636687773E-02  0.43138968139E-01  0.13258683183E+00  0.19132339725E-01 0.  0.
         14    1    1    2    0    0 -0.11393574133E-01 -0.19127795736E-01 -0.73631703450E-02  0.23449997415E-01  0.00000000000E+00 0.  1.
     999901    1    3    3    0    0 -0.11215630521E+00  0.97641269584E-02 -0.35775797794E-01  0.88789317076E+00  0.88000000000E+00 0.  1.
        -11    1    4    4    0    0  0.35587663357E-01  0.47668032337E-03  0.21434852621E-01  0.41550247114E-01  0.51100000000E-03 0. -1.
         11    1    4    4    0    0  0.87962215984E-01  0.88869884540E-02  0.21704115518E-01  0.91036584712E-01  0.51100000000E-03 0.  1.
</event>
<event>
 8    1  0.1126414E+005  0.1043930E+01  0.7957747E-01            NaN
         13   -1    0    0    0    0  0.00000000000E+00  0.00000000000E+00  0.74505805969E-08  0.10566000000E+00  0.10566000000E+00 0.  1.
     999900   -1    0    0    0    0 -0.00000000000E+00 -0.00000000000E+00 -0.74505805969E-08  0.93827000000E+00  0.93827000000E+00 0. -1.
     999902    2    1    2    0    0 -0.11726206060E-01  0.19626845651E-01 -0.27451769367E-02  0.10209027775E+01  0.10206430464E+01 0.  0.
     999903    2    3    3    0    0 -0.41033789573E-01  0.17866330515E-01  0.12288044577E+00  0.13149632884E+00  0.13736917234E-01 0.  0.
         14    1    1    2    0    0  0.11726206060E-01 -0.19626845651E-01  0.27451769367E-02  0.23027222481E-01  0.00000000000E+00 0.  1.
     999901    1    3    3    0    0  0.29307583513E-01  0.17605151360E-02 -0.12562562270E+00  0.88940644867E+00  0.88000000000E+00 0. -1.
        -11    1    4    4    0    0 -0.30240936842E-01  0.90980069595E-02  0.69640554108E-01  0.76468005657E-01  0.51100000000E-03 0.  1.
         11    1    4    4    0    0 -0.10792852731E-01  0.87683235551E-02  0.53239891658E-01  0.55028323187E-01  0.51100000000E-03 0. -1.
</event>
<event>
 8    1  0.1126414E+005  0.1043930E+01  0.7957747E-01            NaN
         13   -1    0    0    0    0  0.00000000000E+00  0.00000000000E+00  0.74505805969E-08  0.10566000000E+00  0.10566000000E+00 0. -1.
     999900   -1    0    0    0    0 -0.00000000000E+00 -0.00000000000E+00 -0.74505805969E-08  0.93827000000E+00  0.93827000000E+00 0. -1.
     999902    2    1    2    0    0 -0.15854498577E-01  0.15827297747E-01  0.64875554379E-02  0.10206071174E+01  0.10203405957E+01 0.  0.
     999903    2    3    3    0    0 -0.83886874018E-01 -0.79065624489E-01 -0.58053790356E-01  0.13055169430E+00  0.19624517878E-01 0.  0.
         14    1    1    2    0    0  0.15854498577E-01 -0.15827297747E-01 -0.64875554379E-02  0.23322882641E-01  0.00000000000E+00 0.  1.
     999901    1    3    3    0    0  0.68032375440E-01  0.94892922236E-01  0.64541345793E-01  0.89005542306E+00  0.88000000000E+00 0. -1.
        -11    1    4    4    0    0 -0.57334340809E-01 -0.46496068029E-01 -0.28292201729E-01  0.79055807995E-01  0.51100000000E-03 0.  1.
         11    1    4    4    0    0 -0.26552533208E-01 -0.32569556460E-01 -0.29761588627E-01  0.51495886306E-01  0.51100000000E-03 0. -1.
</event>
<event>
 8    1  0.1126414E+005  0.1043930E+01  0.7957747E-01            NaN
         13   -1    0    0    0    0  0.00000000000E+00  0.00000000000E+00  0.74505805969E-08  0.10566000000E+00  0.10566000000E+00 0. -1.
     999900   -1    0    0    0    0 -0.00000000000E+00 -0.00000000000E+00 -0.74505805969E-08  0.93827000000E+00  0.93827000000E+00 0. -1.
     999902    2    1    2    0    0  0.20133012960E-01  0.11204680202E-01  0.11044259154E-01  0.10183788996E+01  0.10180583110E+01 0.  0.
     999903    2    3    3    0    0 -0.62216991466E-01 -0.22206146406E-01  0.10911667504E+00  0.12848227344E+00  0.15400612070E-01 0.  0.
         14    1    1    2    0    0 -0.20133012960E-01 -0.11204680202E-01 -0.11044259154E-01  0.25551100359E-01  0.00000000000E+00 0.  1.
     999901    1    3    3    0    0  0.82350004426E-01  0.33410826607E-01 -0.98072415884E-01  0.88989662620E+00  0.88000000000E+00 0.  1.
        -11    1    4    4    0    0 -0.16677442899E-01 -0.10029463481E-01  0.21614803939E-01  0.29089312637E-01  0.51100000000E-03 0. -1.
         11    1    4    4    0    0 -0.45539548567E-01 -0.12176682925E-01  0.87501871100E-01  0.99392960805E-01  0.51100000000E-03 0.  1.
</event>
<event>
 8    1  0.1126414E+005  0.1043930E+01  0.7957747E-01            NaN
         13   -1    0    0    0    0  0.00000000000E+00  0.00000000000E+00  0.74505805969E-08  0.10566000000E+00  0.10566000000E+00 0. -1.
     999900   -1    0    0    0    0 -0.00000000000E+00 -0.00000000000E+00 -0.74505805969E-08  0.93827000000E+00  0.93827000000E+00 0. -1.
     999902    2    1    2    0    0  0.59711435681E-02  0.16492550365E-01 -0.15336773947E-01  0.10206303131E+01  0.10203643274E+01 0.  0.
     999903    2    3    3    0    0 -0.28401404466E-01  0.11340033947E+00  0.57585560868E-01  0.13164760320E+00  0.18673988335E-01 0.  0.
         14    1    1    2    0    0 -0.59711435681E-02 -0.16492550365E-01  0.15336773947E-01  0.23299686868E-01  0.00000000000E+00 0. -1.
     999901    1    3    3    0    0  0.34372548034E-01 -0.96907789102E-01 -0.72922334815E-01  0.88898270993E+00  0.88000000000E+00 0.  1.
        -11    1    4    4    0    0 -0.10262915167E-01  0.41424836641E-01  0.31206439537E-01  0.52871991716E-01  0.51100000000E-03 0. -1.
         11    1    4    4    0    0 -0.18138489299E-01  0.71975502826E-01  0.26379121331E-01  0.78775611482E-01  0.51100000000E-03 0.  1.
</event>
<event>
 8    1  0.1126414E+005  0.1043930E+01  0.7957747E-01            NaN
         13   -1    0    0    0    0  0.00000000000E+00  0.00000000000E+00  0.74505805969E-08  0.10566000000E+00  0.10566000000E+00 0. -1.
     999900   -1    0    0    0    0 -0.00000000000E+00 -0.00000000000E+00 -0.74505805969E-08  0.93827000000E+00  0.93827000000E+00 0.  1.
     999902    2    1    2    0    0  0.10953688629E-01  0.17259060998E-01  0.12378577257E-01  0.10200325596E+01  0.10197525852E+01 0.  0.
     999903    2    3    3    0    0 -0.26807519370E-01  0.11605768466E+00  0.55024686319E-01  0.13267368776E+00  0.19661181465E-01 0.  0.
         14    1    1    2    0    0 -0.10953688629E-01 -0.17259060998E-01 -0.12378577257E-01  0.23897440366E-01  0.00000000000E+00 0. -1.
     999901    1    3    3    0    0  0.37761207999E-01 -0.98798623664E-01 -0.42646109062E-01  0.88735887187E+00  0.88000000000E+00 0.  1.
        -11    1    4    4    0    0 -0.18431583371E-01  0.85429187139E-01  0.49495473857E-01  0.10043869938E+00  0.51100000000E-03 0.  1.
         11    1    4    4    0    0 -0.83759359993E-02  0.30628497524E-01  0.55292124621E-02  0.32234988380E-01  0.51100000000E-03 0. -1.
</event>
<event>
 8    1  0.1126414E+005  0.1043930E+01  0.7957747E-01            NaN
         13   -1    0    0    0    0  0.00000000000E+00  0.00000000000E+00  0.74505805969E-08  0.10566000000E+00  0.10566000000E+00 0.  1.
     999900   -1    0    0    0    0 -0.00000000000E+00 -0.00000000000E+00 -0.74505805969E-08  0.93827000000E+00  0.93827000000E+00 0.  1.
     999902    2    1    2    0    0  0.11980382224E-01  0.19155101601E-01 -0.59072621196E-02  0.10205774151E+01  0.10203102063E+01 0.  0.
     999903    2    3    3    0    0  0.12408978934E+00  0.41534580225E-01  0.12473732396E-01  0.13299236499E+00  0.20198464586E-01 0.  0.
         14    1    1    2    0    0 -0.11980382224E-01 -0.19155101601E-01  0.59072621196E-02  0.23352584897E-01  0.00000000000E+00 0.  1.
     999901    1    3    3    0    0 -0.11210940712E+00 -0.22379478624E-01 -0.18380994516E-01  0.88758505011E+00  0.88000000000E+00 0.  1.
        -11    1    4    4    0    0  0.52744659790E-01  0.27623257376E-01  0.90007107818E-02  0.60218912311E-01  0.51100000000E-03 0. -1.
         11    1    4    4    0    0  0.71345129553E-01  0.13911322849E-01  0.34730216145E-02  0.72773452677E-01  0.51100000000E-03 0.  1.
</event>
<event>
 8    1  0.1126414E+005  0.1043930E+01  0.7957747E-01            NaN
         13   -1    0    0    0    0  0.00000000000E+00  0.00000000000E+00  0.74505805969E-08  0.10566000000E+00  0.10566000000E+00 0. -1.
     999900   -1    0    0    0    0 -0.00000000000E+00 -0.00000000000E+00 -0.74505805969E-08  0.93827000000E+00  0.93827000000E+00 0. -1.
     999902    2    1    2    0    0 -0.23389184306E-01 -0.21337129280E-02 -0.21312704357E-02  0.10203471887E+01  0.10200746230E+01 0.  0.
     999903    2    3    3    0    0  0.86929732238E-01 -0.75987489231E-01  0.53383455018E-01  0.12865972759E+00  0.19304283659E-01 0.  0.
         14    1    1    2    0    0  0.23389184306E-01  0.21337129280E-02  0.21312704357E-02  0.23582811263E-01  0.00000000000E+00 0.  1.
     999901    1    3    3    0    0 -0.11031891654E+00  0.73853776303E-01 -0.55514725454E-01  0.89168746115E+00  0.88000000000E+00 0. -1.
        -11    1    4    4    0    0  0.41578317911E-01 -0.31115376954E-01  0.33625921223E-01  0.61869919205E-01  0.51100000000E-03 0. -1.
         11    1    4    4    0    0  0.45351414327E-01 -0.44872112278E-01  0.19757533796E-01  0.66789808387E-01  0.51100000000E-03 0.  1.
</event>
<event>
 8    1  0.1126414E+005  0.1043930E+01  0.7957747E-01            NaN
         13   -1    0    0    0    0  0.00000000000E+00  0.00000000000E+00  0.74505805969E-08  0.10566000000E+00  0.10566000000E+00 0.  1.
     999900   -1    0    0    0    0 -0.00000000000E+00 -0.00000000000E+00 -0.74505805969E-08  0.93827000000E+00  0.93827000000E+00 0.  1.
     999902    2    1    2    0    0 -0.14341867721E-01 -0.16030051500E-01  0.82809299374E-02  0.10208816699E+01  0.10206214569E+01 0.  0.
     999903    2    3    3    0    0  0.83977348963E-03 -0.10971558689E+00  0.73400911884E-01  0.13338627619E+00  0.19130854224E-01 0.  0.
         14    1    1    2    0    0  0.14341867721E-01  0.16030051500E-01 -0.82809299374E-02  0.23048330123E-01  0.00000000000E+00 0.  1.
     999901    1    3    3    0    0 -0.15181641210E-01  0.93685535392E-01 -0.65119981946E-01  0.88749539369E+00  0.88000000000E+00 0.  1.
        -11    1    4    4    0    0  0.45505641437E-02 -0.93800463069E-01  0.55257358714E-01  0.10896270609E+00  0.51100000000E-03 0. -1.
         11    1    4    4    0    0 -0.37107906541E-02 -0.15915123823E-01  0.18143553169E-01  0.24423570095E-01  0.51100000000E-03 0.  1.
</event>
<event>
 8    1  0.1613980E+005  0.1043930E+01  0.7957747E-01            NaN
         13   -1    0    0    0    0  0.00000000000E+00  0.00000000000E+00  0.74505805969E-08  0.10566000000E+00  0.10566000000E+00 0. -1.
     999900   -1    0    0    0    0 -0.00000000000E+00 -0.00000000000E+00 -0.74505805969E-08  0.93827000000E+00  0.93827000000E+00 0. -1.
     999902    2    1    2    0    0 -0.24243433705E-01  0.69237545361E-02 -0.19377294300E-02  0.10186429035E+01  0.10183289879E+01 0.  0.
     999903    2    3    3    0    0 -0.10594138073E+00  0.60318530485E-01 -0.47509061471E-01  0.13207519431E+00  0.18023450293E-01 0.  0.
         14    1    1    2    0    0  0.24243433705E-01 -0.69237545361E-02  0.19377294300E-02  0.25287096513E-01  0.00000000000E+00 0.  1.
     999901    1    3    3    0    0  0.81697947023E-01 -0.53394775949E-01  0.45571332041E-01  0.88656770917E+00  0.88000000000E+00 0.  1.
        -11    1    4    4    0    0 -0.49757808989E-01  0.23364800616E-01 -0.13001330729E-01  0.56489372318E-01  0.51100000000E-03 0. -1.
         11    1    4    4    0    0 -0.56183571740E-01  0.36953729869E-01 -0.34507730742E-01  0.75585821995E-01  0.51100000000E-03 0.  1.
</event>
<event>
 8    1  0.1126414E+005  0.1043930E+01  0.7957747E-01            NaN
         13   -1    0    0    0    0  0.00000000000E+00  0.00000000000E+00  0.74505805969E-08  0.10566000000E+00  0.10566000000E+00 0. -1.
     999900   -1    0    0    0    0 -0.00000000000E+00 -0.00000000000E+00 -0.74505805969E-08  0.93827000000E+00  0.93827000000E+00 0.  1.
     999902    2    1    2    0    0 -0.99203643886E-02 -0.71728709923E-02 -0.20618784090E-01  0.10199508848E+01  0.10196689705E+01 0.  0.
     999903    2    3    3    0    0 -0.95610483661E-01 -0.82190506610E-01  0.30321463374E-01  0.13115093488E+00  0.19609503178E-01 0.  0.
         14    1    1    2    0    0  0.99203643886E-02  0.71728709923E-02  0.20618784090E-01  0.23979115188E-01  0.00000000000E+00 0. -1.
     999901    1    3    3    0    0  0.85690119273E-01  0.75017635617E-01 -0.50940247464E-01  0.88879994994E+00  0.88000000000E+00 0.  1.
        -11    1    4    4    0    0 -0.29828530103E-01 -0.32005806550E-01  0.18762165929E-01  0.47606647144E-01  0.51100000000E-03 0.  1.
         11    1    4    4    0    0 -0.65781953559E-01 -0.50184700060E-01  0.11559297445E-01  0.83544287731E-01  0.51100000000E-03 0. -1.
</event>
<event>
 8    1  0.1126414E+005  0.1043930E+01  0.7957747E-01            NaN
         13   -1    0    0    0    0  0.00000000000E+00  0.00000000000E+00  0.74505805969E-08  0.10566000000E+00  0.10566000000E+00 0. -1.
     999900   -1    0    0    0    0 -0.00000000000E+00 -0.00000000000E+00 -0.74505805969E-08  0.93827000000E+00  0.93827000000E+00 0. -1.
     999902    2    1    2    0    0  0.23685793394E-01 -0.57018460023E-02 -0.14051913939E-02  0.10195270817E+01  0.10192349915E+01 0.  0.
     999903    2    3    3    0    0 -0.43727989398E-01 -0.10541568439E+00 -0.57738403552E-01  0.12954904917E+00  0.20606535932E-01 0.  0.
         14    1    1    2    0    0 -0.23685793394E-01  0.57018460023E-02  0.14051913939E-02  0.24402918256E-01  0.00000000000E+00 0.  1.
     999901    1    3    3    0    0  0.67413782793E-01  0.99713838388E-01  0.56333212158E-01  0.88997803258E+00  0.88000000000E+00 0.  1.
        -11    1    4    4    0    0 -0.11052239326E-01 -0.48758641423E-01 -0.31389266926E-01  0.59034772013E-01  0.51100000000E-03 0.  1.
         11    1    4    4    0    0 -0.32675750072E-01 -0.56657042968E-01 -0.26349136626E-01  0.70514277154E-01  0.51100000000E-03 0. -1.
</event>
<event>
 8    1  0.1126414E+005  0.1043930E+01  0.7957747E-01            NaN
         13   -1    0    0    0    0  0.00000000000E+00  0.00000000000E+00  0.74505805969E-08  0.10566000000E+00  0.10566000000E+00 0.  1.
     999900   -1    0    0    0    0 -0.00000000000E+00 -0.00000000000E+00 -0.74505805969E-08  0.93827000000E+00  0.93827000000E+00 0.  1.
     999902    2    1    2    0    0 -0.22680738107E-01 -0.18405307453E-02 -0.72590837659E-02  0.10200449057E+01  0.10197652239E+01 0.  0.
     999903    2    3    3    0    0 -0.53314500538E-01  0.97025741856E-01 -0.68797645141E-01  0.13184449934E+00  0.19834955956E-01 0.  0.
         14    1    1    2    0    0  0.22680738107E-01  0.18405307453E-02  0.72590837659E-02  0.23885094339E-01  0.00000000000E+00 0.  1.
     999901    1    3    3    0    0  0.30633762432E-01 -0.98866272602E-01  0.61538561375E-01  0.88820040632E+00  0.88000000000E+00 0. -1.
        -11    1    4    4    0    0 -0.87716222587E-02  0.11385425152E-01 -0.17087351784E-01  0.22334009379E-01  0.51100000000E-03 0.  1.
         11    1    4    4    0    0 -0.44542878280E-01  0.85640316704E-01 -0.51710293358E-01  0.10951048996E+00  0.51100000000E-03 0. -1.
</event>
<event>
 8    1  0.1126414E+005  0.1043930E+01  0.7957747E-01            NaN
         13   -1    0    0    0    0  0.00000000000E+00  0.00000000000E+00  0.74505805969E-08  0.10566000000E+00  0.10566000000E+00 0. -1.
     999900   -1    0    0    0    0 -0.00000000000E+00 -0.00000000000E+00 -0.74505805969E-08  0.93827000000E+00  0.93827000000E+00 0. -1.
     999902    2    1    2    0    0  0.62691253050E-02  0.27974360225E-02  0.22076627160E-01  0.10208106348E+01  0.10205487970E+01 0.  0.
     999903    2    3    3    0    0 -0.10581718198E+00 -0.72428621901E-01 -0.70600327216E-02  0.13004060555E+00  0.20433642754E-01 0.  0.
         14    1    1    2    0    0 -0.62691253050E-02 -0.27974360225E-02 -0.22076627160E-01  0.23119365198E-01  0.00000000000E+00 0.  1.
     999901    1    3    3    0    0  0.11208630728E+00  0.75226057924E-01  0.29136659882E-01  0.89077002926E+00  0.88000000000E+00 0. -1.
        -11    1    4    4    0    0 -0.59911415039E-01 -0.29076039601E-01 -0.62930585615E-02  0.66892880323E-01  0.51100000000E-03 0.  1.
         11    1    4    4    0    0 -0.45905766941E-01 -0.43352582300E-01 -0.76697416014E-03  0.63147725223E-01  0.51100000000E-03 0. -1.
</event>
<event>
 8    1  0.1126414E+005  0.1043930E+01  0.7957747E-01            NaN
         13   -1    0    0    0    0  0.00000000000E+00  0.00000000000E+00  0.74505805969E-08  0.10566000000E+00  0.10566000000E+00 0.  1.
     999900   -1    0    0    0    0 -0.00000000000E+00 -0.00000000000E+00 -0.74505805969E-08  0.93827000000E+00  0.93827000000E+00 0. -1.
     999902    2    1    2    0    0  0.14503504222E-01 -0.11075386832E-01  0.15197007557E-01  0.10201820555E+01  0.10199056140E+01 0.  0.
     999903    2    3    3    0    0  0.10340897136E+00  0.75321137159E-01  0.21853014307E-01  0.13146790358E+00  0.20965838279E-01 0.  0.
         14    1    1    2    0    0 -0.14503504222E-01  0.11075386832E-01 -0.15197007557E-01  0.23747944477E-01  0.00000000000E+00 0. -1.
     999901    1    3    3    0    0 -0.88905467143E-01 -0.86396523991E-01 -0.66560067500E-02  0.88871415195E+00  0.88000000000E+00 0. -1.
        -11    1    4    4    0    0  0.24049953381E-01  0.16589476211E-01  0.14070067893E-01  0.32432066078E-01  0.51100000000E-03 0.  1.
         11    1    4    4    0    0  0.79359017984E-01  0.58731660948E-01  0.77829464143E-02  0.99035837498E-01  0.51100000000E-03 0. -1.
</event>
<event>
 8    1  0.1126414E+005  0.1043930E+01  0.7957747E-01            NaN
         13   -1    0    0    0    0  0.00000000000E+00  0.00000000000E+00  0.74505805969E-08  0.10566000000E+00  0.10566000000E+00 0.  1.
     999900   -1    0    0    0    0 -0.00000000000E+00 -0.00000000000E+00 -0.74505805969E-08  0.93827000000E+00  0.93827000000E+00 0.  1.
     999902    2    1    2    0    0 -0.39923756430E-02  0.20932560923E-01  0.94134943826E-02  0.10206335400E+01  0.10203676289E+01 0.  0.
     999903    2    3    3    0    0  0.70300746486E-01 -0.94421326537E-01 -0.46522045422E-01  0.12824642003E+00  0.20621873803E-01 0.  0.
         14    1    1    2    0    0  0.39923756430E-02 -0.20932560923E-01 -0.94134943826E-02  0.23296459958E-01  0.00000000000E+00 0. -1.
     999901    1    3    3    0    0 -0.74293122130E-01  0.11535388746E+00  0.55935539804E-01  0.89238712001E+00  0.88000000000E+00 0. -1.
        -11    1    4    4    0    0  0.14585896038E-01 -0.35500209310E-01 -0.13513407598E-01  0.40692585691E-01  0.51100000000E-03 0.  1.
         11    1    4    4    0    0  0.55714850449E-01 -0.58921117227E-01 -0.33008637824E-01  0.87553834341E-01  0.51100000000E-03 0. -1.
</event>
<event>
 8    1  0.1126414E+005  0.1043930E+01  0.7957747E-01            NaN
         13   -1    0    0    0    0  0.00000000000E+00  0.00000000000E+00  0.74505805969E-08  0.10566000000E+00  0.10566000000E+00 0. -1.
     999900   -1    0    0    0    0 -0.00000000000E+00 -0.00000000000E+00 -0.74505805969E-08  0.93827000000E+00  0.93827000000E+00 0.  1.
     999902    2    1    2    0    0 -0.19932524611E-01 -0.15630670604E-01  0.35174630146E-02  0.10183566555E+01  0.10180355013E+01 0.  0.
     999903    2    3    3    0    0  0.67201364678E-01 -0.57167441425E-02 -0.10595315990E+00  0.12724812237E+00  0.20428117290E-01 0.  0.
         14    1    1    2    0    0  0.19932524611E-01  0.15630670604E-01 -0.35174630146E-02  0.25573344461E-01  0.00000000000E+00 0.  1.
     999901    1    3    3    0    0 -0.87133889289E-01 -0.99139264611E-02  0.10947062292E+00  0.89110853317E+00  0.88000000000E+00 0. -1.
        -11    1    4    4    0    0  0.27693463949E-01  0.60821789078E-02 -0.33581043108E-01  0.43953025186E-01  0.51100000000E-03 0.  1.
         11    1    4    4    0    0  0.39507900729E-01 -0.11798923050E-01 -0.72372116793E-01  0.83295097186E-01  0.51100000000E-03 0. -1.
</event>
<event>
 8    1  0.1126414E+005  0.1043930E+01  0.7957747E-01            NaN
         13   -1    0    0    0    0  0.00000000000E+00  0.00000000000E+00  0.74505805969E-08  0.10566000000E+00  0.10566000000E+00 0.  1.
     999900   -1    0    0    0    0 -0.00000000000E+00 -0.00000000000E+00 -0.74505805969E-08  0.93827000000E+00  0.93827000000E+00 0. -1.
     999902    2    1    2    0    0 -0.15791925578E-01 -0.16930209772E-01  0.30506237285E-02  0.10205778433E+01  0.10203106444E+01 0.  0.
     999903    2    3    3    0    0  0.75153103855E-01 -0.95898266309E-01 -0.44308671575E-01  0.13111179271E+00  0.19559583632E-01 0.  0.
         14    1    1    2    0    0  0.15791925578E-01  0.16930209772E-01 -0.30506237285E-02  0.23352156678E-01  0.00000000000E+00 0. -1.
     999901    1    3    3    0    0 -0.90945029434E-01  0.78968056537E-01  0.47359295303E-01  0.88946605061E+00  0.88000000000E+00 0.  1.
        -11    1    4    4    0    0  0.41673173136E-01 -0.52539062150E-01 -0.34647883907E-01  0.75483398116E-01  0.51100000000E-03 0.  1.
         11    1    4    4    0    0  0.33479930720E-01 -0.43359204158E-01 -0.96607876673E-02  0.55628394598E-01  0.51100000000E-03 0. -1.
</event>
<event>
 8    1  0.1126414E+005  0.1043930E+01  0.7957747E-01            NaN
         13   -1    0    0    0    0  0.00000000000E+00  0.00000000000E+00  0.74505805969E-08  0.10566000000E+00  0.10566000000E+00 0.  1.
     999900   -1    0    0    0    0 -0.00000000000E+00 -0.00000000000E+00 -0.74505805969E-08  0.93827000000E+00  0.93827000000E+00 0.  1.
     999902    2    1    2    0    0 -0.11963495175E-01  0.18621896863E-01  0.73843552826E-02  0.10205969984E+01  0.10203302427E+01 0.  0.
     999903    2    3    3    0    0 -0.10227478102E+00 -0.44971986682E-03  0.81939187958E-01  0.13263400483E+00  0.20430752133E-01 0.  0.
         14    1    1    2    0    0  0.11963495175E-01 -0.18621896863E-01 -0.73843552826E-02  0.23333001576E-01  0.00000000000E+00 0. -1.
     999901    1    3    3    0    0  0.90311285849E-01  0.19071616730E-01 -0.74554832675E-01  0.88796299359E+00  0.88000000000E+00 0.  1.
        -11    1    4    4    0    0 -0.52664679005E-01  0.71833664510E-02  0.51025478224E-01  0.73681949738E-01  0.51100000000E-03 0. -1.
         11    1    4    4    0    0 -0.49610102019E-01 -0.76330863179E-02  0.30913709734E-01  0.58952055092E-01  0.51100000000E-03 0.  1.
</event>
<event>
 8    1  0.1126414E+005  0.1043930E+01  0.7957747E-01            NaN
         13   -1    0    0    0    0  0.00000000000E+00  0.00000000000E+00  0.74505805969E-08  0.10566000000E+00  0.10566000000E+00 0. -1.
     999900   -1    0    0    0    0 -0.00000000000E+00 -0.00000000000E+00 -0.74505805969E-08  0.93827000000E+00  0.93827000000E+00 0. -1.
     999902    2    1    2    0    0  0.21832223171E-01 -0.21832537492E-02  0.79856163314E-02  0.10205808537E+01  0.10203137244E+01 0.  0.
     999903    2    3    3    0    0  0.12944793676E+00 -0.11562238540E-01 -0.22773864881E-01  0.13344205234E+00  0.19941883525E-01 0.  0.
         14    1    1    2    0    0 -0.21832223171E-01  0.21832537492E-02 -0.79856163314E-02  0.23349146317E-01  0.00000000000E+00 0. -1.
     999901    1    3    3    0    0 -0.10761571359E+00  0.93789847909E-02  0.30759481212E-01  0.88713880135E+00  0.88000000000E+00 0.  1.
        -11    1    4    4    0    0  0.75248965687E-02  0.24604582043E-02 -0.51421532746E-02  0.94541411161E-02  0.51100000000E-03 0.  1.
         11    1    4    4    0    0  0.12192304019E+00 -0.14022696744E-01 -0.17631711606E-01  0.12398791122E+00  0.51100000000E-03 0. -1.
</event>
<event>
 8    1  0.1126414E+005  0.1043930E+01  0.7957747E-01            NaN
         13   -1    0    0    0    0  0.00000000000E+00  0.00000000000E+00  0.74505805969E-08  0.10566000000E+00  0.10566000000E+00 0.  1.
     999900   -1    0    0    0    0 -0.00000000000E+00 -0.00000000000E+00 -0.74505805969E-08  0.93827000000E+00  0.93827000000E+00 0. -1.
     999902    2    1    2    0    0  0.14196431480E-01 -0.15543874719E-01 -0.99459124832E-02  0.10206475628E+01  0.10203819753E+01 0.  0.
     999903    2    3    3    0    0  0.69197102507E-01  0.50166283460E-01  0.96193977757E-01  0.13013727367E+00  0.19430225166E-01 0.  0.
         14    1    1    2    0    0 -0.14196431480E-01  0.15543874719E-01  0.99459124832E-02  0.23282437225E-01  0.00000000000E+00 0.  1.
     999901    1    3    3    0    0 -0.55000671027E-01 -0.65710158179E-01 -0.10613989024E+00  0.89051028910E+00  0.88000000000E+00 0. -1.
        -11    1    4    4    0    0  0.48272419080E-01  0.34293656355E-01  0.52412226293E-01  0.79079604804E-01  0.51100000000E-03 0. -1.
         11    1    4    4    0    0  0.20924683427E-01  0.15872627105E-01  0.43781751464E-01  0.51057668866E-01  0.51100000000E-03 0.  1.
</event>
<event>
 8    1  0.1126414E+005  0.1043930E+01  0.7957747E-01            NaN
         13   -1    0    0    0    0  0.00000000000E+00  0.00000000000E+00  0.74505805969E-08  0.10566000000E+00  0.10566000000E+00 0. -1.
     999900   -1    0    0    0    0 -0.00000000000E+00 -0.00000000000E+00 -0.74505805969E-08  0.93827000000E+00  0.93827000000E+00 0. -1.
     999902    2    1    2    0    0 -0.76789028186E-02  0.96136104566E-03 -0.21700165126E-01  0.10208911864E+01  0.10206311908E+01 0.  0.
     999903    2    3    3    0    0  0.11682080056E+00 -0.53050902841E-01 -0.11347002325E-01  0.13042799867E+00  0.20523416864E-01 0.  0.
         14    1    1    2    0    0  0.76789028186E-02 -0.96136104566E-03  0.21700165126E-01  0.23038813556E-01  0.00000000000E+00 0. -1.
     999901    1    3    3    0    0 -0.12449970338E+00  0.54012263887E-01 -0.10353162801E-01  0.89046318777E+00  0.88000000000E+00 0. -1.
        -11    1    4    4    0    0  0.75469420171E-01 -0.23292003188E-01 -0.66523487001E-02  0.79263268023E-01  0.51100000000E-03 0. -1.
         11    1    4    4    0    0  0.41351380393E-01 -0.29758899653E-01 -0.46946536252E-02  0.51164730651E-01  0.51100000000E-03 0.  1.
</event>
<event>
 8    1  0.1126414E+005  0.1043930E+01  0.7957747E-01            NaN
         13   -1    0    0    0    0  0.00000000000E+00  0.00000000000E+00  0.74505805969E-08  0.10566000000E+00  0.10566000000E+00 0.  1.
     999900   -1    0    0    0    0 -0.00000000000E+00 -0.00000000000E+00 -0.74505805969E-08  0.93827000000E+00  0.93827000000E+00 0. -1.
     999902    2    1    2    0    0  0.10877383210E-01 -0.25118676830E-01 -0.40639448204E-02  0.10162572510E+01  0.10158804158E+01 0.  0.
     999903    2    3    3    0    0  0.41733238566E-01 -0.36341501608E-01 -0.11450594608E+00  0.12874642217E+00  0.20041496785E-01 0.  0.
         14    1    1    2    0    0 -0.10877383210E-01  0.25118676830E-01  0.40639448204E-02  0.27672749027E-01  0.00000000000E+00 0.  1.
     999901    1    3    3    0    0 -0.30855855356E-01  0.11222824777E-01  0.11044200126E+00  0.88751082881E+00  0.88000000000E+00 0.  1.
        -11    1    4    4    0    0  0.29869348885E-01 -0.12851895611E-01 -0.61863332809E-01  0.69890502151E-01  0.51100000000E-03 0.  1.
         11    1    4    4    0    0  0.11863889681E-01 -0.23489605997E-01 -0.52642613269E-01  0.58855920017E-01  0.51100000000E-03 0. -1.
</event>
<event>
 8    1  0.1126414E+005  0.1043930E+01  0.7957747E-01            NaN
         13   -1    0    0    0    0  0.00000000000E+00  0.00000000000E+00  0.74505805969E-08  0.10566000000E+00  0.10566000000E+00 0. -1.
     999900   -1    0    0    0    0 -0.00000000000E+00 -0.00000000000E+00 -0.74505805969E-08  0.93827000000E+00  0.93827000000E+00 0.  1.
     999902    2    1    2    0    0  0.23529313622E-01 -0.18874428368E-01 -0.14224363612E-01  0.10105802599E+01  0.10100298295E+01 0.  0.
     999903    2    3    3    0    0 -0.95254131725E-01 -0.54354674713E-01 -0.47978215589E-01  0.12125035636E+00  0.19286250893E-01 0.  0.
         14    1    1    2    0    0 -0.23529313622E-01  0.18874428368E-01  0.14224363612E-01  0.33349740118E-01  0.00000000000E+00 0. -1.
     999901    1    3    3    0    0  0.11878344535E+00  0.35480246345E-01  0.33753851977E-01  0.88932990352E+00  0.88000000000E+00 0. -1.
        -11    1    4    4    0    0 -0.41104074174E-01 -0.19818036334E-01 -0.29785357020E-01  0.54495211639E-01  0.51100000000E-03 0.  1.
         11    1    4    4    0    0 -0.54150057551E-01 -0.34536638379E-01 -0.18192858569E-01  0.66755144725E-01  0.51100000000E-03 0. -1.
</event>
<event>
 8    1  0.1126414E+005  0.1043930E+01  0.7957747E-01            NaN
         13   -1    0    0    0    0  0.00000000000E+00  0.00000000000E+00  0.74505805969E-08  0.10566000000E+00  0.10566000000E+00 0. -1.
     999900   -1    0    0    0    0 -0.00000000000E+00 -0.00000000000E+00 -0.74505805969E-08  0.93827000000E+00  0.93827000000E+00 0.  1.
     999902    2    1    2    0    0  0.16099861758E-01 -0.77114369534E-02  0.15618004020E-01  0.10202109389E+01  0.10199351774E+01 0.  0.
     999903    2    3    3    0    0  0.97275314670E-01 -0.80371254262E-01 -0.36866626334E-01  0.13194096891E+00  0.11280327340E-01 0.  0.
         14    1    1    2    0    0 -0.16099861758E-01  0.77114369534E-02 -0.15618004020E-01  0.23719061071E-01  0.00000000000E+00 0. -1.
     999901    1    3    3    0    0 -0.81175452912E-01  0.72659817309E-01  0.52484630354E-01  0.88826997001E+00  0.88000000000E+00 0.  1.
        -11    1    4    4    0    0  0.28721833150E-01 -0.19326466026E-01 -0.13961517508E-01  0.37331502524E-01  0.51100000000E-03 0. -1.
         11    1    4    4    0    0  0.68553481520E-01 -0.61044788237E-01 -0.22905108825E-01  0.94609466390E-01  0.51100000000E-03 0.  1.
</event>
<event>
 8    1  0.1126414E+005  0.1043930E+01  0.7957747E-01            NaN
         13   -1    0    0    0    0  0.00000000000E+00  0.00000000000E+00  0.74505805969E-08  0.10566000000E+00  0.10566000000E+00 0. -1.
     999900   -1    0    0    0    0 -0.00000000000E+00 -0.00000000000E+00 -0.74505805969E-08  0.93827000000E+00  0.93827000000E+00 0.  1.
     999902    2    1    2    0    0  0.11769040541E-01 -0.13814913407E-01 -0.17209292252E-01  0.10189195644E+01  0.10186125647E+01 0.  0.
     999903    2    3    3    0    0  0.11518902454E+00  0.31920975481E-01  0.45772693459E-01  0.12945107418E+00  0.19364428469E-01 0.  0.
         14    1    1    2    0    0 -0.11769040541E-01  0.13814913407E-01  0.17209292252E-01  0.25010435572E-01  0.00000000000E+00 0. -1.
     999901    1    3    3    0    0 -0.10341998400E+00 -0.45735888888E-01 -0.62981985711E-01  0.88946849025E+00  0.88000000000E+00 0.  1.
        -11    1    4    4    0    0  0.54600094172E-01  0.20418029690E-01  0.13473896008E-01  0.59832041706E-01  0.51100000000E-03 0.  1.
         11    1    4    4    0    0  0.60588930365E-01  0.11502945791E-01  0.32298797451E-01  0.69619032473E-01  0.51100000000E-03 0. -1.
</event>
<event>
 8    1  0.1126414E+005  0.1043930E+01  0.7957747E-01            NaN
         13   -1    0    0    0    0  0.00000000000E+00  0.00000000000E+00  0.74505805969E-08  0.10566000000E+00  0.10566000000E+00 0.  1.
     999900   -1    0    0    0    0 -0.00000000000E+00 -0.00000000000E+00 -0.74505805969E-08  0.93827000000E+00  0.93827000000E+00 0. -1.
     999902    2    1    2    0    0  0.16141533774E-01  0.17114883400E-01  0.31533989686E-02  0.10201936930E+01  0.10199175255E+01 0.  0.
     999903    2    3    3    0    0  0.85930855993E-01 -0.24104388190E-01  0.94772719587E-01  0.13173228258E+00  0.20159175417E-01 0.  0.
         14    1    1    2    0    0 -0.16141533774E-01 -0.17114883400E-01 -0.31533989686E-02  0.23736307030E-01  0.00000000000E+00 0.  1.
     999901    1    3    3    0    0 -0.69789322218E-01  0.41219271590E-01 -0.91619320618E-01  0.88846141039E+00  0.88000000000E+00 0. -1.
        -11    1    4    4    0    0  0.69476258411E-01 -0.26761281226E-01  0.72622747967E-01  0.10400692909E+00  0.51100000000E-03 0.  1.
         11    1    4    4    0    0  0.16454597582E-01  0.26568930361E-02  0.22149971620E-01  0.27725353486E-01  0.51100000000E-03 0. -1.
</event>
<event>
 8    1  0.1126414E+005  0.1043930E+01  0.7957747E-01            NaN
         13   -1    0    0    0    0  0.00000000000E+00  0.00000000000E+00  0.74505805969E-08  0.10566000000E+00  0.10566000000E+00 0. -1.
     999900   -1    0    0    0    0 -0.00000000000E+00 -0.00000000000E+00 -0.74505805969E-08  0.93827000000E+00  0.93827000000E+00 0. -1.
     999902    2    1    2    0    0  0.22873732395E-01  0.47232472723E-02 -0.30308590425E-02  0.10203778705E+01  0.10201060218E+01 0.  0.
     999903    2    3    3    0    0 -0.94951531954E-01 -0.57628798465E-02 -0.84373729277E-01  0.12874486620E+00  0.20181926964E-01 0.  0.
         14    1    1    2    0    0 -0.22873732395E-01 -0.47232472723E-02  0.30308590425E-02  0.23552129522E-01  0.00000000000E+00 0.  1.
     999901    1    3    3    0    0  0.11782526435E+00  0.10486127119E-01  0.81342870234E-01  0.89163300428E+00  0.88000000000E+00 0. -1.
        -11    1    4    4    0    0 -0.32363471257E-01  0.73584614111E-02 -0.31618197225E-01  0.45842259356E-01  0.51100000000E-03 0.  1.
         11    1    4    4    0    0 -0.62588060698E-01 -0.13121341258E-01 -0.52755532052E-01  0.82902606843E-01  0.51100000000E-03 0. -1.
</event>
<event>
 8    1  0.1126414E+005  0.1043930E+01  0.7957747E-01            NaN
         13   -1    0    0    0    0  0.00000000000E+00  0.00000000000E+00  0.74505805969E-08  0.10566000000E+00  0.10566000000E+00 0. -1.
     999900   -1    0    0    0    0 -0.00000000000E+00 -0.00000000000E+00 -0.74505805969E-08  0.93827000000E+00  0.93827000000E+00 0. -1.
     999902    2    1    2    0    0 -0.51567173080E-02 -0.71799290348E-02  0.22690244566E-01  0.10195786076E+01  0.10192877644E+01 0.  0.
     999903    2    3    3    0    0 -0.78944771391E-01  0.10087381712E+00  0.43103956189E-02  0.12971451243E+00  0.19986778525E-01 0.  0.
         14    1    1    2    0    0  0.51567173080E-02  0.71799290348E-02 -0.22690244566E-01  0.24351392420E-01  0.00000000000E+00 0.  1.
     999901    1    3    3    0    0  0.73788054083E-01 -0.10805374615E+00  0.18379848947E-01  0.88986409515E+00  0.88000000000E+00 0.  1.
        -11    1    4    4    0    0 -0.16018367409E-01  0.30893252724E-01  0.72733333407E-02  0.35554797949E-01  0.51100000000E-03 0. -1.
         11    1    4    4    0    0 -0.62926403982E-01  0.69980564392E-01 -0.29629377218E-02  0.94159714484E-01  0.51100000000E-03 0.  1.
</event>
<event>
 8    1  0.1126414E+005  0.1043930E+01  0.7957747E-01            NaN
         13   -1    0    0    0    0  0.00000000000E+00  0.00000000000E+00  0.74505805969E-08  0.10566000000E+00  0.10566000000E+00 0. -1.
     999900   -1    0    0    0    0 -0.00000000000E+00 -0.00000000000E+00 -0.74505805969E-08  0.93827000000E+00  0.93827000000E+00 0.  1.
     999902    2    1    2    0    0  0.21459711980E-01 -0.86140324428E-02  0.41905367705E-02  0.10204293321E+01  0.10201586839E+01 0.  0.
     999903    2    3    3    0    0 -0.84811246872E-01 -0.75088281991E-01  0.60079931776E-01  0.12979137703E+00  0.20124752417E-01 0.  0.
         14    1    1    2    0    0 -0.21459711980E-01  0.86140324428E-02 -0.41905367705E-02  0.23500667897E-01  0.00000000000E+00 0. -1.
     999901    1    3    3    0    0  0.10627095885E+00  0.66474249548E-01 -0.55889395005E-01  0.89063795508E+00  0.88000000000E+00 0.  1.
        -11    1    4    4    0    0 -0.25108229979E-01 -0.17121333884E-01  0.73325977925E-02  0.31266458035E-01  0.51100000000E-03 0. -1.
         11    1    4    4    0    0 -0.59703016893E-01 -0.57966948107E-01  0.52747333983E-01  0.98524918992E-01  0.51100000000E-03 0.  1.
</event>
<event>
 8    1  0.1126414E+005  0.1043930E+01  0.7957747E-01            NaN
         13   -1    0    0    0    0  0.00000000000E+00  0.00000000000E+00  0.74505805969E-08  0.10566000000E+00  0.10566000000E+00 0. -1.
     999900   -1    0    0    0    0 -0.00000000000E+00 -0.00000000000E+00 -0.74505805969E-08  0.93827000000E+00  0.93827000000E+00 0. -1.
     999902    2    1    2    0    0  0.15828054555E-01 -0.16742016696E-01 -0.72425814471E-02  0.10197788630E+01  0.10194928405E+01 0.  0.
     999903    2    3    3    0    0  0.27741641462E-01  0.36515882920E-01  0.11903553015E+00  0.12909120790E+00  0.19800862125E-01 0.  0.
         14    1    1    2    0    0 -0.15828054555E-01  0.16742016696E-01  0.72425814471E-02  0.24151137035E-01  0.00000000000E+00 0.  1.
     999901    1    3    3    0    0 -0.11913586907E-01 -0.53257899616E-01 -0.12627811160E+00  0.89068765507E+00  0.88000000000E+00 0. -1.
        -11    1    4    4    0    0  0.89682771390E-02  0.18386348588E-01  0.76457213842E-01  0.79148306859E-01  0.51100000000E-03 0.  1.
         11    1    4    4    0    0  0.18773364323E-01  0.18129534332E-01  0.42578316311E-01  0.49942901036E-01  0.51100000000E-03 0. -1.
</event>
<event>
 8    1  0.1126414E+005  0.1043930E+01  0.7957747E-01            NaN
         13   -1    0    0    0    0  0.00000000000E+00  0.00000000000E+00  0.74505805969E-08  0.10566000000E+00  0.10566000000E+00 0.  1.
     999900   -1    0    0    0    0 -0.00000000000E+00 -0.00000000000E+00 -0.74505805969E-08  0.93827000000E+00  0.93827000000E+00 0.  1.
     999902    2    1    2    0    0 -0.53717360248E-02  0.18281818243E-01  0.14417434939E-01  0.10200355894E+01  0.10197556868E+01 0.  0.
     999903    2    3    3    0    0  0.33829382504E-01  0.26613752848E-01  0.12372249860E+00  0.13236800200E+00  0.19008217506E-01 0.  0.
         14    1    1    2    0    0  0.53717360248E-02 -0.18281818243E-01 -0.14417434939E-01  0.23894410569E-01  0.00000000000E+00 0. -1.
     999901    1    3    3    0    0 -0.39201118529E-01 -0.83319346048E-02 -0.10930506366E+00  0.88766758743E+00  0.88000000000E+00 0.  1.
        -11    1    4    4    0    0  0.28115377493E-01  0.10869090848E-01  0.74369104567E-01  0.80247345268E-01  0.51100000000E-03 0.  1.
         11    1    4    4    0    0  0.57140050109E-02  0.15744662000E-01  0.49353394035E-01  0.52120656735E-01  0.51100000000E-03 0. -1.
</event>
<event>
 8    1  0.1126414E+005  0.1043930E+01  0.7957747E-01            NaN
         13   -1    0    0    0    0  0.00000000000E+00  0.00000000000E+00  0.74505805969E-08  0.10566000000E+00  0.10566000000E+00 0. -1.
     999900   -1    0    0    0    0 -0.00000000000E+00 -0.00000000000E+00 -0.74505805969E-08  0.93827000000E+00  0.93827000000E+00 0. -1.
     999902    2    1    2    0    0 -0.13672197908E-01  0.19349018728E-01 -0.28813596191E-02  0.10200633757E+01  0.10197841314E+01 0.  0.
     999903    2    3    3    0    0 -0.90581581366E-01 -0.11493099776E-01  0.92045290462E-01  0.13108792137E+00  0.19354415714E-01 0.  0.
         14    1    1    2    0    0  0.13672197908E-01 -0.19349018728E-01  0.28813596191E-02  0.23866624282E-01  0.00000000000E+00 0. -1.
     999901    1    3    3    0    0  0.76909383458E-01  0.30842118504E-01 -0.94926650081E-01  0.88897545435E+00  0.88000000000E+00 0. -1.
        -11    1    4    4    0    0 -0.42997278659E-01 -0.14473664904E-01  0.50007370529E-01  0.67522227274E-01  0.51100000000E-03 0.  1.
         11    1    4    4    0    0 -0.47584302707E-01  0.29805651281E-02  0.42037919933E-01  0.63565694096E-01  0.51100000000E-03 0. -1.
</event>
<event>
 8    1  0.1126414E+005  0.1043930E+01  0.7957747E-01            NaN
         13   -1    0    0    0    0  0.00000000000E+00  0.00000000000E+00  0.74505805969E-08  0.10566000000E+00  0.10566000000E+00 0.  1.
     999900   -1    0    0    0    0 -0.00000000000E+00 -0.00000000000E+00 -0.74505805969E-08  0.93827000000E+00  0.93827000000E+00 0. -1.
     999902    2    1    2    0    0 -0.16700043632E-01  0.14036938584E-01  0.43517568567E-02  0.10216844411E+01  0.10214422315E+01 0.  0.
     999903    2    3    3    0    0 -0.28633294832E-01 -0.12539153231E+00  0.85976748918E-02  0.13061725577E+00  0.21072388169E-01 0.  0.
         14    1    1    2    0    0  0.16700043632E-01 -0.14036938584E-01 -0.43517568567E-02  0.22245558880E-01  0.00000000000E+00 0. -1.
     999901    1    3    3    0    0  0.11933251200E-01  0.13942847090E+00 -0.42459180351E-02  0.89106718535E+00  0.88000000000E+00 0.  1.
        -11    1    4    4    0    0 -0.15110522616E-01 -0.85238597708E-01  0.14699384759E-01  0.87808197033E-01  0.51100000000E-03 0. -1.
         11    1    4    4    0    0 -0.13522772216E-01 -0.40152934607E-01 -0.61017098668E-02  0.42809058741E-01  0.51100000000E-03 0.  1.
</event>
<event>
 8    1  0.1126414E+005  0.1043930E+01  0.7957747E-01            NaN
         13   -1    0    0    0    0  0.00000000000E+00  0.00000000000E+00  0.74505805969E-08  0.10566000000E+00  0.10566000000E+00 0.  1.
     999900   -1    0    0    0    0 -0.00000000000E+00 -0.00000000000E+00 -0.74505805969E-08  0.93827000000E+00  0.93827000000E+00 0. -1.
     999902    2    1    2    0    0 -0.13931296088E-01  0.83360600883E-02 -0.17284544800E-01  0.10202165777E+01  0.10199409488E+01 0.  0.
     999903    2    3    3    0    0 -0.12199945600E+00 -0.45181662885E-01 -0.84137396736E-02  0.13194771916E+00  0.20350912780E-01 0.  0.
         14    1    1    2    0    0  0.13931296088E-01 -0.83360600883E-02  0.17284544800E-01  0.23713422305E-01  0.00000000000E+00 0.  1.
     999901    1    3    3    0    0  0.10806815991E+00  0.53517722973E-01 -0.88708051262E-02  0.88826885853E+00  0.88000000000E+00 0.  1.
        -11    1    4    4    0    0 -0.87293947916E-01 -0.34021424780E-01 -0.15042670229E-01  0.94890640927E-01  0.51100000000E-03 0.  1.
         11    1    4    4    0    0 -0.34705508084E-01 -0.11160238105E-01  0.66289305549E-02  0.37057078233E-01  0.51100000000E-03 0. -1.
</event>
<event>
 8    1  0.1126414E+005  0.1043930E+01  0.7957747E-01            NaN
         13   -1    0    0    0    0  0.00000000000E+00  0.00000000000E+00  0.74505805969E-08  0.10566000000E+00  0.10566000000E+00 0. -1.
     999900   -1    0    0    0    0 -0.00000000000E+00 -0.00000000000E+00 -0.74505805969E-08  0.93827000000E+00  0.93827000000E+00 0.  1.
     999902    2    1    2    0    0 -0.14365560355E-01 -0.30940237944E-02 -0.18421794623E-01  0.10203650934E+01  0.10200929462E+01 0.  0.
     999903    2    3    3    0    0 -0.90289762223E-01 -0.82586500041E-01  0.43284588694E-01  0.13138184496E+00  0.20368171606E-01 0.  0.
         14    1    1    2    0    0  0.14365560355E-01  0.30940237944E-02  0.18421794623E-01  0.23564906635E-01  0.00000000000E+00 0. -1.
     999901    1    3    3    0    0  0.75924201868E-01  0.79492476246E-01 -0.61706383318E-01  0.88898324841E+00  0.88000000000E+00 0.  1.
        -11    1    4    4    0    0 -0.25513213698E-01 -0.20424364358E-01  0.21091672134E-01  0.38899852018E-01  0.51100000000E-03 0. -1.
         11    1    4    4    0    0 -0.64776548525E-01 -0.62162135683E-01  0.22192916560E-01  0.92481992939E-01  0.51100000000E-03 0.  1.
</event>
<event>
 8    1  0.1126414E+005  0.1043930E+01  0.7957747E-01            NaN
         13   -1    0    0    0    0  0.00000000000E+00  0.00000000000E+00  0.74505805969E-08  0.10566000000E+00  0.10566000000E+00 0.  1.
     999900   -1    0    0    0    0 -0.00000000000E+00 -0.00000000000E+00 -0.74505805969E-08  0.93827000000E+00  0.93827000000E+00 0. -1.
     999902    2    1    2    0    0 -0.23536958331E-01 -0.99314295595E-03 -0.43952598353E-02  0.10199655879E+01  0.10196840233E+01 0.  0.
     999903    2    3    3    0    0  0.38695410729E-01  0.11211011211E+00  0.47242966434E-01  0.12904936257E+00  0.18863405145E-01 0.  0.
         14    1    1    2    0    0  0.23536958331E-01  0.99314295595E-03  0.43952598353E-02  0.23964412144E-01  0.00000000000E+00 0. -1.
     999901    1    3    3    0    0 -0.62232369060E-01 -0.11310325506E+00 -0.51638226269E-01  0.89091622529E+00  0.88000000000E+00 0.  1.
        -11    1    4    4    0    0  0.27929030768E-01  0.59617283152E-01  0.19266972733E-01  0.68598313167E-01  0.51100000000E-03 0.  1.
         11    1    4    4    0    0  0.10766379961E-01  0.52492828957E-01  0.27975993701E-01  0.60451049403E-01  0.51100000000E-03 0. -1.
</event>
<event>
 8    1  0.1126414E+005  0.1043930E+01  0.7957747E-01            NaN
         13   -1    0    0    0    0  0.00000000000E+00  0.00000000000E+00  0.74505805969E-08  0.10566000000E+00  0.10566000000E+00 0. -1.
     999900   -1    0    0    0    0 -0.00000000000E+00 -0.00000000000E+00 -0.74505805969E-08  0.93827000000E+00  0.93827000000E+00 0.  1.
     999902    2    1    2    0    0 -0.57845257786E-02 -0.19772754369E-01 -0.11839147476E-01  0.10201689401E+01  0.10198921896E+01 0.  0.
     999903    2    3    3    0    0  0.13844952093E-01 -0.11237544793E+00 -0.67419411211E-01  0.13334892401E+00  0.20411627341E-01 0.  0.
         14    1    1    2    0    0  0.57845257786E-02  0.19772754369E-01  0.11839147476E-01  0.23761059883E-01  0.00000000000E+00 0. -1.
     999901    1    3    3    0    0 -0.19629477872E-01  0.92602693558E-01  0.55580263735E-01  0.88682001611E+00  0.88000000000E+00 0.  1.
        -11    1    4    4    0    0  0.41538683348E-02 -0.43459837017E-02 -0.87041321958E-03  0.60959770875E-02  0.51100000000E-03 0.  1.
         11    1    4    4    0    0  0.96910837581E-02 -0.10802946422E+00 -0.66548997992E-01  0.12725294692E+00  0.51100000000E-03 0. -1.
</event>
<event>
 8    1  0.1126414E+005  0.1043930E+01  0.7957747E-01            NaN
         13   -1    0    0    0    0  0.00000000000E+00  0.00000000000E+00  0.74505805969E-08  0.10566000000E+00  0.10566000000E+00 0.  1.
     999900   -1    0    0    0    0 -0.00000000000E+00 -0.00000000000E+00 -0.74505805969E-08  0.93827000000E+00  0.93827000000E+00 0. -1.
     999902    2    1    2    0    0  0.82471410991E-02  0.12566886483E-01 -0.16440148384E-01  0.10216539938E+01  0.10214111134E+01 0.  0.
     999903    2    3    3    0    0  0.70906743154E-01 -0.10875939356E+00 -0.14304307718E-03  0.13097341831E+00  0.17252360105E-01 0.  0.
         14    1    1    2    0    0 -0.82471410991E-02 -0.12566886483E-01  0.16440148384E-01  0.22276006174E-01  0.00000000000E+00 0.  1.
     999901    1    3    3    0    0 -0.62659602055E-01  0.12132628005E+00 -0.16297105307E-01  0.89068057552E+00  0.88000000000E+00 0. -1.
        -11    1    4    4    0    0  0.33176218002E-01 -0.66470789329E-01 -0.66668807696E-03  0.74294904731E-01  0.51100000000E-03 0. -1.
         11    1    4    4    0    0  0.37730525153E-01 -0.42288604235E-01  0.52364499977E-03  0.56678513579E-01  0.51100000000E-03 0.  1.
</event>
<event>
 8    1  0.1126414E+005  0.1043930E+01  0.7957747E-01            NaN
         13   -1    0    0    0    0  0.00000000000E+00  0.00000000000E+00  0.74505805969E-08  0.10566000000E+00  0.10566000000E+00 0. -1.
     999900   -1    0    0    0    0 -0.00000000000E+00 -0.00000000000E+00 -0.74505805969E-08  0.93827000000E+00  0.93827000000E+00 0.  1.
     999902    2    1    2    0    0 -0.20753786701E-01 -0.95444686040E-03 -0.92458236052E-02  0.10211898178E+01  0.10209365936E+01 0.  0.
     999903    2    3    3    0    0 -0.92908701473E-01 -0.82600270578E-01  0.43012017198E-01  0.13293126640E+00  0.19127374460E-01 0.  0.
         14    1    1    2    0    0  0.20753786701E-01  0.95444686040E-03  0.92458236052E-02  0.22740182175E-01  0.00000000000E+00 0.  1.
     999901    1    3    3    0    0  0.72154914772E-01  0.81645823718E-01 -0.52257840803E-01  0.88825855143E+00  0.88000000000E+00 0.  1.
        -11    1    4    4    0    0 -0.40384286107E-01 -0.24780258672E-01  0.20560053123E-01  0.51651995989E-01  0.51100000000E-03 0. -1.
         11    1    4    4    0    0 -0.52524415366E-01 -0.57820011907E-01  0.22451964075E-01  0.81279270410E-01  0.51100000000E-03 0.  1.
</event>
<event>
 8    1  0.1126414E+005  0.1043930E+01  0.7957747E-01            NaN
         13   -1    0    0    0    0  0.00000000000E+00  0.00000000000E+00  0.74505805969E-08  0.10566000000E+00  0.10566000000E+00 0. -1.
     999900   -1    0    0    0    0 -0.00000000000E+00 -0.00000000000E+00 -0.74505805969E-08  0.93827000000E+00  0.93827000000E+00 0. -1.
     999902    2    1    2    0    0 -0.41730250247E-02  0.12723888205E-01 -0.19224125789E-01  0.10205018443E+01  0.10202328831E+01 0.  0.
     999903    2    3    3    0    0 -0.11925944753E+00 -0.47953530493E-01  0.10102690793E-01  0.13045314000E+00  0.19839366472E-01 0.  0.
         14    1    1    2    0    0  0.41730250247E-02 -0.12723888205E-01  0.19224125789E-01  0.23428155738E-01  0.00000000000E+00 0. -1.
     999901    1    3    3    0    0  0.11508642251E+00  0.60677418698E-01 -0.29326816583E-01  0.89004870426E+00  0.88000000000E+00 0. -1.
        -11    1    4    4    0    0 -0.41825890166E-01 -0.12937256336E-01 -0.52346150556E-02  0.44095804852E-01  0.51100000000E-03 0. -1.
         11    1    4    4    0    0 -0.77433557368E-01 -0.35016274157E-01  0.15337305849E-01  0.86357335150E-01  0.51100000000E-03 0.  1.
</event>
<event>
 8    1  0.1126414E+005  0.1043930E+01  0.7957747E-01            NaN
         13   -1    0    0    0    0  0.00000000000E+00  0.00000000000E+00  0.74505805969E-08  0.10566000000E+00  0.10566000000E+00 0. -1.
     999900   -1    0    0    0    0 -0.00000000000E+00 -0.00000000000E+00 -0.74505805969E-08  0.93827000000E+00  0.93827000000E+00 0.  1.
     999902    2    1    2    0    0 -0.26562628845E-01  0.61681230153E-02  0.59486098289E-02  0.10160193398E+01  0.10156359062E+01 0.  0.
     999903    2    3    3    0    0 -0.77179817923E-03  0.11967400897E-01 -0.12398755252E+00  0.12608551933E+00  0.19514882721E-01 0.  0.
         14    1    1    2    0    0  0.26562628845E-01 -0.61681230153E-02 -0.59486098289E-02  0.27910660178E-01  0.00000000000E+00 0.  1.
     999901    1    3    3    0    0 -0.25790830666E-01 -0.57992778820E-02  0.12993616235E+00  0.88993382049E+00  0.88000000000E+00 0. -1.
        -11    1    4    4    0    0  0.59134896239E-02  0.12534150743E-01 -0.10557526004E+00  0.10648225649E+00  0.51100000000E-03 0.  1.
         11    1    4    4    0    0 -0.66852878032E-02 -0.56674984558E-03 -0.18412292481E-01  0.19603262836E-01  0.51100000000E-03 0. -1.
</event>
<event>
 8    1  0.1126414E+005  0.1043930E+01  0.7957747E-01            NaN
         13   -1    0    0    0    0  0.00000000000E+00  0.00000000000E+00  0.74505805969E-08  0.10566000000E+00  0.10566000000E+00 0. -1.
     999900   -1    0    0    0    0 -0.00000000000E+00 -0.00000000000E+00 -0.74505805969E-08  0.93827000000E+00  0.93827000000E+00 0. -1.
     999902    2    1    2    0    0 -0.16319067441E-01 -0.15956793059E-01  0.59579968017E-02  0.10203412541E+01  0.10200685496E+01 0.  0.
     999903    2    3    3    0    0 -0.89903472587E-01  0.48574251827E-01 -0.79088934966E-01  0.13084032604E+00  0.20543586826E-01 0.  0.
         14    1    1    2    0    0  0.16319067441E-01  0.15956793059E-01 -0.59579968017E-02  0.23588745892E-01  0.00000000000E+00 0. -1.
     999901    1    3    3    0    0  0.73584405146E-01 -0.64531044887E-01  0.85046931768E-01  0.88950092807E+00  0.88000000000E+00 0.  1.
        -11    1    4    4    0    0 -0.68052145833E-02  0.97657673254E-02 -0.13959848032E-01  0.18352646541E-01  0.51100000000E-03 0.  1.
         11    1    4    4    0    0 -0.83098258004E-01  0.38808484502E-01 -0.65129086933E-01  0.11248767950E+00  0.51100000000E-03 0. -1.
</event>
<event>
 8    1  0.1126414E+005  0.1043930E+01  0.7957747E-01            NaN
         13   -1    0    0    0    0  0.00000000000E+00  0.00000000000E+00  0.74505805969E-08  0.10566000000E+00  0.10566000000E+00 0. -1.
     999900   -1    0    0    0    0 -0.00000000000E+00 -0.00000000000E+00 -0.74505805969E-08  0.93827000000E+00  0.93827000000E+00 0. -1.
     999902    2    1    2    0    0 -0.22218585777E-01  0.27955502289E-02  0.49661380448E-02  0.10209921888E+01  0.10207344936E+01 0.  0.
     999903    2    3    3    0    0  0.86778215656E-01 -0.71156716810E-02 -0.92779834087E-01  0.12884152322E+00  0.20271877004E-01 0.  0.
         14    1    1    2    0    0  0.22218585777E-01 -0.27955502289E-02 -0.49661380448E-02  0.22937811188E-01  0.00000000000E+00 0.  1.
     999901    1    3    3    0    0 -0.10899680143E+00  0.99112219098E-02  0.97745972132E-01  0.89215066559E+00  0.88000000000E+00 0.  1.
        -11    1    4    4    0    0  0.66845779782E-01 -0.13993313100E-01 -0.71689990019E-01  0.99014579108E-01  0.51100000000E-03 0. -1.
         11    1    4    4    0    0  0.19932435875E-01  0.68776414193E-02 -0.21089844069E-01  0.29826944115E-01  0.51100000000E-03 0.  1.
</event>
<event>
 8    1  0.1126414E+005  0.1043930E+01  0.7957747E-01            NaN
         13   -1    0    0    0    0  0.00000000000E+00  0.00000000000E+00  0.74505805969E-08  0.10566000000E+00  0.10566000000E+00 0.  1.
     999900   -1    0    0    0    0 -0.00000000000E+00 -0.00000000000E+00 -0.74505805969E-08  0.93827000000E+00  0.93827000000E+00 0.  1.
     999902    2    1    2    0    0 -0.39399902485E-02  0.16105842916E-01  0.16818034647E-01  0.10203128878E+01  0.10200395193E+01 0.  0.
     999903    2    3    3    0    0 -0.10013188094E+00 -0.21852174745E-01 -0.75391486491E-01  0.12947267389E+00  0.23987203380E-01 0.  0.
         14    1    1    2    0    0  0.39399902485E-02 -0.16105842916E-01 -0.16818034647E-01  0.23617112198E-01  0.00000000000E+00 0. -1.
     999901    1    3    3    0    0  0.96191890693E-01  0.37958017661E-01  0.92209521138E-01  0.89084021392E+00  0.88000000000E+00 0. -1.
        -11    1    4    4    0    0 -0.92972344537E-01 -0.13913250915E-01 -0.63347822392E-01  0.11336067714E+00  0.51100000000E-03 0.  1.
         11    1    4    4    0    0 -0.71595364048E-02 -0.79389238297E-02 -0.12043664099E-01  0.16111996742E-01  0.51100000000E-03 0. -1.
</event>
<event>
 8    1  0.1126414E+005  0.1043930E+01  0.7957747E-01            NaN
         13   -1    0    0    0    0  0.00000000000E+00  0.00000000000E+00  0.74505805969E-08  0.10566000000E+00  0.10566000000E+00 0. -1.
     999900   -1    0    0    0    0 -0.00000000000E+00 -0.00000000000E+00 -0.74505805969E-08  0.93827000000E+00  0.93827000000E+00 0.  1.
     999902    2    1    2    0    0  0.11955750882E-01 -0.17374306952E-02  0.20440432112E-01  0.10201861606E+01  0.10199098158E+01 0.  0.
     999903    2    3    3    0    0  0.39008453962E-01  0.11263361661E-01  0.12565957215E+00  0.13341001253E+00  0.18957335633E-01 0.  0.
         14    1    1    2    0    0 -0.11955750882E-01  0.17374306952E-02 -0.20440432112E-01  0.23743839401E-01  0.00000000000E+00 0.  1.
     999901    1    3    3    0    0 -0.27052703080E-01 -0.13000792356E-01 -0.10521914004E+00  0.88677614806E+00  0.88000000000E+00 0.  1.
        -11    1    4    4    0    0  0.79360462182E-02  0.10363945544E-01  0.27508763965E-01  0.30453003345E-01  0.51100000000E-03 0. -1.
         11    1    4    4    0    0  0.31072407743E-01  0.89941611701E-03  0.98150808188E-01  0.10295700919E+00  0.51100000000E-03 0.  1.
</event>
<event>
 8    1  0.1126414E+005  0.1043930E+01  0.7957747E-01            NaN
         13   -1    0    0    0    0  0.00000000000E+00  0.00000000000E+00  0.74505805969E-08  0.10566000000E+00  0.10566000000E+00 0. -1.
     999900   -1    0    0    0    0 -0.00000000000E+00 -0.00000000000E+00 -0.74505805969E-08  0.93827000000E+00  0.93827000000E+00 0. -1.
     999902    2    1    2    0    0  0.15715648782E-01  0.10179948434E-01 -0.11191959598E-01  0.10221154882E+01  0.10218826734E+01 0.  0.
     999903    2    3    3    0    0  0.10847429989E+00  0.54938651006E-01 -0.55240082580E-01  0.13501473518E+00  0.19813704374E-01 0.  0.
         14    1    1    2    0    0 -0.15715648782E-01 -0.10179948434E-01  0.11191959598E-01  0.21814511830E-01  0.00000000000E+00 0.  1.
     999901    1    3    3    0    0 -0.92758651112E-01 -0.44758702572E-01  0.44048122982E-01  0.88710075299E+00  0.88000000000E+00 0.  1.
        -11    1    4    4    0    0  0.83211020469E-01  0.50537038257E-01 -0.46730178624E-01  0.10799091109E+00  0.51100000000E-03 0. -1.
         11    1    4    4    0    0  0.25263279426E-01  0.44016127482E-02 -0.85099039567E-02  0.27023824090E-01  0.51100000000E-03 0.  1.
</event>
<event>
 8    1  0.1210853E+005  0.1043930E+01  0.7957747E-01            NaN
         13   -1    0    0    0    0  0.00000000000E+00  0.00000000000E+00  0.74505805969E-08  0.10566000000E+00  0.10566000000E+00 0.  1.
     999900   -1    0    0    0    0 -0.00000000000E+00 -0.00000000000E+00 -0.74505805969E-08  0.93827000000E+00  0.93827000000E+00 0.  1.
     999902    2    1    2    0    0 -0.38851082648E-02 -0.21455292482E-01  0.94240493189E-02  0.10201763403E+01  0.10198997642E+01 0.  0.
     999903    2    3    3    0    0 -0.36942869234E-01 -0.11128687924E+00 -0.58167732090E-01  0.13240881533E+00  0.19976592388E-01 0.  0.
         14    1    1    2    0    0  0.38851082648E-02  0.21455292482E-01 -0.94240493189E-02  0.23753659661E-01  0.00000000000E+00 0. -1.
     999901    1    3    3    0    0  0.33057760969E-01  0.89831586758E-01  0.67591781409E-01  0.88776752501E+00  0.88000000000E+00 0.  1.
        -11    1    4    4    0    0 -0.49687078027E-02 -0.44683388208E-01 -0.24699091765E-01  0.51299117868E-01  0.51100000000E-03 0.  1.
         11    1    4    4    0    0 -0.31974161431E-01 -0.66603491032E-01 -0.33468640326E-01  0.81109697466E-01  0.51100000000E-03 0. -1.
</event>
<event>
 8    1  0.1126414E+005  0.1043930E+01  0.7957747E-01            NaN
         13   -1    0    0    0    0  0.00000000000E+00  0.00000000000E+00  0.74505805969E-08  0.10566000000E+00  0.10566000000E+00 0.  1.
     999900   -1    0    0    0    0 -0.00000000000E+00 -0.00000000000E+00 -0.74505805969E-08  0.93827000000E+00  0.93827000000E+00 0.  1.
     999902    2    1    2    0    0  0.18878721848E-01 -0.50089140630E-02 -0.90609420855E-02  0.10223987197E+01  0.10221719748E+01 0.  0.
     999903    2    3    3    0    0  0.88866973959E-01 -0.33567504016E-01 -0.93967298779E-01  0.13508646471E+00  0.19859086635E-01 0.  0.
         14    1    1    2    0    0 -0.18878721848E-01  0.50089140630E-02  0.90609420855E-02  0.21531280273E-01  0.00000000000E+00 0.  1.
     999901    1    3    3    0    0 -0.69988252110E-01  0.28558589953E-01  0.84906356694E-01  0.88731225502E+00  0.88000000000E+00 0. -1.
        -11    1    4    4    0    0  0.41520984551E-01 -0.25715717368E-01 -0.42936191185E-01  0.65031284105E-01  0.51100000000E-03 0.  1.
         11    1    4    4    0    0  0.47345989408E-01 -0.78517866479E-02 -0.51031107594E-01  0.70055180607E-01  0.51100000000E-03 0. -1.
</event>
<event>
 8    1  0.1126414E+005  0.1043930E+01  0.7957747E-01            NaN
         13   -1    0    0    0    0  0.00000000000E+00  0.00000000000E+00  0.74505805969E-08  0.10566000000E+00  0.10566000000E+00 0. -1.
     999900   -1    0    0    0    0 -0.00000000000E+00 -0.00000000000E+00 -0.74505805969E-08  0.93827000000E+00  0.93827000000E+00 0. -1.
     999902    2    1    2    0    0  0.14310417303E-01 -0.14114433201E-01 -0.13346276520E-01  0.10198026635E+01  0.10195172113E+01 0.  0.
     999903    2    3    3    0    0  0.88090919940E-01 -0.40367862594E-01 -0.88843205406E-01  0.13310508747E+00  0.20839257610E-01 0.  0.
         14    1    1    2    0    0 -0.14310417303E-01  0.14114433201E-01  0.13346276520E-01  0.24127336466E-01  0.00000000000E+00 0. -1.
     999901    1    3    3    0    0 -0.73780502637E-01  0.26253429392E-01  0.75496928886E-01  0.88669757606E+00  0.88000000000E+00 0.  1.
        -11    1    4    4    0    0  0.70226666211E-01 -0.40613673504E-01 -0.75210742510E-01  0.11062627189E+00  0.51100000000E-03 0.  1.
         11    1    4    4    0    0  0.17864253729E-01  0.24581090996E-03 -0.13632462896E-01  0.22478815581E-01  0.51100000000E-03 0. -1.
</event>
<event>
 8    1  0.1126414E+005  0.1043930E+01  0.7957747E-01            NaN
         13   -1    0    0    0    0  0.00000000000E+00  0.00000000000E+00  0.74505805969E-08  0.10566000000E+00  0.10566000000E+00 0. -1.
     999900   -1    0    0    0    0 -0.00000000000E+00 -0.00000000000E+00 -0.74505805969E-08  0.93827000000E+00  0.93827000000E+00 0. -1.
     999902    2    1    2    0    0  0.18714338431E-01  0.15604612137E-01  0.37075861018E-02  0.10192829601E+01  0.10189849244E+01 0.  0.
     999903    2    3    3    0    0 -0.11234289883E+00 -0.53057352436E-01 -0.16388516616E-01  0.12670561431E+00  0.18700792882E-01 0.  0.
         14    1    1    2    0    0 -0.18714338431E-01 -0.15604612137E-01 -0.37075861018E-02  0.24647039935E-01  0.00000000000E+00 0.  1.
     999901    1    3    3    0    0  0.13105723726E+00  0.68661964573E-01  0.20096102718E-01  0.89257734576E+00  0.88000000000E+00 0.  1.
        -11    1    4    4    0    0 -0.46123729834E-01 -0.30516155680E-01 -0.23421257144E-02  0.55356850390E-01  0.51100000000E-03 0. -1.
         11    1    4    4    0    0 -0.66219168998E-01 -0.22541196756E-01 -0.14046390902E-01  0.71348763916E-01  0.51100000000E-03 0.  1.
</event>
<event>
 8    1  0.1126414E+005  0.1043930E+01  0.7957747E-01            NaN
         13   -1    0    0    0    0  0.00000000000E+00  0.00000000000E+00  0.74505805969E-08  0.10566000000E+00  0.10566000000E+00 0. -1.
     999900   -1    0    0    0    0 -0.00000000000E+00 -0.00000000000E+00 -0.74505805969E-08  0.93827000000E+00  0.93827000000E+00 0.  1.
     999902    2    1    2    0    0 -0.31464965073E-02 -0.23130845487E-01  0.68469162604E-02  0.10196027166E+01  0.10193124561E+01 0.  0.
     999903    2    3    3    0    0 -0.47027493968E-01  0.11365532389E+00  0.27462453240E-01  0.12771651402E+00  0.20693085231E-01 0.  0.
         14    1    1    2    0    0  0.31464965073E-02  0.23130845487E-01 -0.68469162604E-02  0.24327283356E-01  0.00000000000E+00 0.  1.
     999901    1    3    3    0    0  0.43880997461E-01 -0.13678616938E+00 -0.20615536980E-01  0.89188620263E+00  0.88000000000E+00 0.  1.
        -11    1    4    4    0    0 -0.23704717069E-01  0.60375797899E-01  0.24955720612E-01  0.69499638096E-01  0.51100000000E-03 0.  1.
         11    1    4    4    0    0 -0.23322776899E-01  0.53279525994E-01  0.25067326283E-02  0.58216875920E-01  0.51100000000E-03 0. -1.
</event>
<event>
 8    1  0.1126414E+005  0.1043930E+01  0.7957747E-01            NaN
         13   -1    0    0    0    0  0.00000000000E+00  0.00000000000E+00  0.74505805969E-08  0.10566000000E+00  0.10566000000E+00 0.  1.
     999900   -1    0    0    0    0 -0.00000000000E+00 -0.00000000000E+00 -0.74505805969E-08  0.93827000000E+00  0.93827000000E+00 0.  1.
     999902    2    1    2    0    0  0.10787552616E-02 -0.73503707120E-02 -0.22878638572E-01  0.10198754003E+01  0.10195916871E+01 0.  0.
     999903    2    3    3    0    0 -0.65055564074E-01  0.50587318436E-01  0.94932594652E-01  0.12768146923E+00  0.22339580415E-01 0.  0.
         14    1    1    2    0    0 -0.10787552616E-02  0.73503707120E-02  0.22878638572E-01  0.24054599673E-01  0.00000000000E+00 0.  1.
     999901    1    3    3    0    0  0.66134319336E-01 -0.57937689148E-01 -0.11781123322E+00  0.89219393110E+00  0.88000000000E+00 0.  1.
        -11    1    4    4    0    0 -0.29622574148E-01  0.24540097100E-01  0.61064472365E-01  0.72172322749E-01  0.51100000000E-03 0.  1.
         11    1    4    4    0    0 -0.35432989927E-01  0.26047221336E-01  0.33868122287E-01  0.55509146478E-01  0.51100000000E-03 0. -1.
</event>
<event>
 8    1  0.1126414E+005  0.1043930E+01  0.7957747E-01            NaN
         13   -1    0    0    0    0  0.00000000000E+00  0.00000000000E+00  0.74505805969E-08  0.10566000000E+00  0.10566000000E+00 0. -1.
     999900   -1    0    0    0    0 -0.00000000000E+00 -0.00000000000E+00 -0.74505805969E-08  0.93827000000E+00  0.93827000000E+00 0. -1.
     999902    2    1    2    0    0  0.18019829781E-01 -0.30496347530E-02 -0.14857170133E-01  0.10203768677E+01  0.10201049956E+01 0.  0.
     999903    2    3    3    0    0  0.12866199355E+00 -0.15209989915E-01  0.20717961708E-01  0.13265216225E+00  0.19547629848E-01 0.  0.
         14    1    1    2    0    0 -0.18019829781E-01  0.30496347530E-02  0.14857170133E-01  0.23553132315E-01  0.00000000000E+00 0. -1.
     999901    1    3    3    0    0 -0.11064216377E+00  0.12160355162E-01 -0.35575131840E-01  0.88772470544E+00  0.88000000000E+00 0. -1.
        -11    1    4    4    0    0  0.50132592986E-01 -0.99907120796E-03  0.16282714388E-01  0.52722508776E-01  0.51100000000E-03 0.  1.
         11    1    4    4    0    0  0.78529400568E-01 -0.14210918707E-01  0.44352473201E-02  0.79929653470E-01  0.51100000000E-03 0. -1.
</event>
<event>
 8    1  0.1126414E+005  0.1043930E+01  0.7957747E-01            NaN
         13   -1    0    0    0    0  0.00000000000E+00  0.00000000000E+00  0.74505805969E-08  0.10566000000E+00  0.10566000000E+00 0. -1.
     999900   -1    0    0    0    0 -0.00000000000E+00 -0.00000000000E+00 -0.74505805969E-08  0.93827000000E+00  0.93827000000E+00 0. -1.
     999902    2    1    2    0    0  0.15679261897E-01 -0.18198460105E-01 -0.13288692713E-02  0.10198719640E+01  0.10195881687E+01 0.  0.
     999903    2    3    3    0    0  0.53767334349E-01 -0.80087103315E-01  0.88385231382E-01  0.13233068309E+00  0.19864294597E-01 0.  0.
         14    1    1    2    0    0 -0.15679261897E-01  0.18198460105E-01  0.13288692713E-02  0.24058036025E-01  0.00000000000E+00 0. -1.
     999901    1    3    3    0    0 -0.38088072452E-01  0.61888643210E-01 -0.89714100654E-01  0.88754128089E+00  0.88000000000E+00 0. -1.
        -11    1    4    4    0    0  0.43343692548E-01 -0.75169545677E-01  0.80450459396E-01  0.11832866863E+00  0.51100000000E-03 0. -1.
         11    1    4    4    0    0  0.10423641801E-01 -0.49175576378E-02  0.79347719868E-02  0.14002014462E-01  0.51100000000E-03 0.  1.
</event>
<event>
 8    1  0.1126414E+005  0.1043930E+01  0.7957747E-01            NaN
         13   -1    0    0    0    0  0.00000000000E+00  0.00000000000E+00  0.74505805969E-08  0.10566000000E+00  0.10566000000E+00 0.  1.
     999900   -1    0    0    0    0 -0.00000000000E+00 -0.00000000000E+00 -0.74505805969E-08  0.93827000000E+00  0.93827000000E+00 0. -1.
     999902    2    1    2    0    0  0.77584938593E-03 -0.16392523924E-01  0.16585505587E-01  0.10205977095E+01  0.10203309703E+01 0.  0.
     999903    2    3    3    0    0  0.14311201035E-01  0.61830908669E-01  0.11354911838E+00  0.13171973514E+00  0.20707839073E-01 0.  0.
         14    1    1    2    0    0 -0.77584938593E-03  0.16392523924E-01 -0.16585505587E-01  0.23332290467E-01  0.00000000000E+00 0.  1.
     999901    1    3    3    0    0 -0.13535351649E-01 -0.78223432593E-01 -0.96963612794E-01  0.88887797439E+00  0.88000000000E+00 0. -1.
        -11    1    4    4    0    0 -0.20008952214E-02  0.15151876931E-01  0.42406119675E-01  0.45079075668E-01  0.51100000000E-03 0. -1.
         11    1    4    4    0    0  0.16312096256E-01  0.46679031737E-01  0.71142998705E-01  0.86640659474E-01  0.51100000000E-03 0.  1.
</event>
<event>
 8    1  0.1126414E+005  0.1043930E+01  0.7957747E-01            NaN
         13   -1    0    0    0    0  0.00000000000E+00  0.00000000000E+00  0.74505805969E-08  0.10566000000E+00  0.10566000000E+00 0. -1.
     999900   -1    0    0    0    0 -0.00000000000E+00 -0.00000000000E+00 -0.74505805969E-08  0.93827000000E+00  0.93827000000E+00 0. -1.
     999902    2    1    2    0    0  0.17020397025E-02 -0.38748848950E-02  0.23310749982E-01  0.10202381715E+01  0.10199630503E+01 0.  0.
     999903    2    3    3    0    0  0.18864137168E-01  0.30411813876E-01  0.12688618076E+00  0.13333457746E+00  0.19931697974E-01 0.  0.
         14    1    1    2    0    0 -0.17020397025E-02  0.38748848950E-02 -0.23310749982E-01  0.23691828482E-01  0.00000000000E+00 0.  1.
     999901    1    3    3    0    0 -0.17162097465E-01 -0.34286698771E-01 -0.10357543077E+00  0.88690359406E+00  0.88000000000E+00 0. -1.
        -11    1    4    4    0    0 -0.18632168043E-02 -0.17745343204E-02  0.66008478401E-02  0.71030178179E-02  0.51100000000E-03 0.  1.
         11    1    4    4    0    0  0.20727353972E-01  0.32186348196E-01  0.12028533292E+00  0.12623155964E+00  0.51100000000E-03 0. -1.
</event>
<event>
 8    1  0.1126414E+005  0.1043930E+01  0.7957747E-01            NaN
         13   -1    0    0    0    0  0.00000000000E+00  0.00000000000E+00  0.74505805969E-08  0.10566000000E+00  0.10566000000E+00 0. -1.
     999900   -1    0    0    0    0 -0.00000000000E+00 -0.00000000000E+00 -0.74505805969E-08  0.93827000000E+00  0.93827000000E+00 0. -1.
     999902    2    1    2    0    0  0.22475065622E-01 -0.10406762520E-01  0.58248525436E-02  0.10184867654E+01  0.10181689119E+01 0.  0.
     999903    2    3    3    0    0 -0.83238245713E-01 -0.24965416621E-01  0.91706574668E-01  0.12788981457E+00  0.19845182182E-01 0.  0.
         14    1    1    2    0    0 -0.22475065622E-01  0.10406762520E-01 -0.58248525436E-02  0.25443234621E-01  0.00000000000E+00 0.  1.
     999901    1    3    3    0    0  0.10571331133E+00  0.14558654101E-01 -0.85881722124E-01  0.89059695081E+00  0.88000000000E+00 0. -1.
        -11    1    4    4    0    0 -0.29541182213E-01 -0.15950524181E-01  0.45036148344E-01  0.56174873804E-01  0.51100000000E-03 0.  1.
         11    1    4    4    0    0 -0.53697063500E-01 -0.90148924402E-02  0.46670426324E-01  0.71714940762E-01  0.51100000000E-03 0. -1.
</event>
<event>
 8    1  0.1126414E+005  0.1043930E+01  0.7957747E-01            NaN
         13   -1    0    0    0    0  0.00000000000E+00  0.00000000000E+00  0.74505805969E-08  0.10566000000E+00  0.10566000000E+00 0.  1.
     999900   -1    0    0    0    0 -0.00000000000E+00 -0.00000000000E+00 -0.74505805969E-08  0.93827000000E+00  0.93827000000E+00 0. -1.
     999902    2    1    2    0    0 -0.23626822604E-01 -0.52154301765E-02  0.45692645751E-02  0.10193067257E+01  0.10190092715E+01 0.  0.
     999903    2    3    3    0    0 -0.32395551950E-01  0.11739485202E+00 -0.40412796990E-01  0.12962500858E+00  0.18396348086E-01 0.  0.
         14    1    1    2    0    0  0.23626822604E-01  0.52154301765E-02 -0.45692645751E-02  0.24623274296E-01  0.00000000000E+00 0.  1.
     999901    1    3    3    0    0  0.87687293461E-02 -0.12261028220E+00  0.44982061565E-01  0.88968171712E+00  0.88000000000E+00 0. -1.
        -11    1    4    4    0    0 -0.14684518053E-01  0.58871925853E-01 -0.10595413962E-01  0.61595962872E-01  0.51100000000E-03 0.  1.
         11    1    4    4    0    0 -0.17711033898E-01  0.58522926167E-01 -0.29817383028E-01  0.68029045712E-01  0.51100000000E-03 0. -1.
</event>
<event>
 8    1  0.1126414E+005  0.1043930E+01  0.7957747E-01            NaN
         13   -1    0    0    0    0  0.00000000000E+00  0.00000000000E+00  0.74505805969E-08  0.10566000000E+00  0.10566000000E+00 0.  1.
     999900   -1    0    0    0    0 -0.00000000000E+00 -0.00000000000E+00 -0.74505805969E-08  0.93827000000E+00  0.93827000000E+00 0. -1.
     999902    2    1    2    0    0  0.27268823577E-01  0.13926702256E-01 -0.16040738870E-01  0.10093634399E+01  0.10087713847E+01 0.  0.
     999903    2    3    3    0    0 -0.10286961588E+00  0.44403360018E-01  0.30936363969E-01  0.11803202661E+00  0.20510593295E-01 0.  0.
         14    1    1    2    0    0 -0.27268823577E-01 -0.13926702256E-01  0.16040738870E-01  0.34566560119E-01  0.00000000000E+00 0. -1.
     999901    1    3    3    0    0  0.13013843946E+00 -0.30476657762E-01 -0.46977102839E-01  0.89133141327E+00  0.88000000000E+00 0.  1.
        -11    1    4    4    0    0 -0.71199880703E-01  0.34454301503E-01  0.12574951715E-01  0.80093148495E-01  0.51100000000E-03 0.  1.
         11    1    4    4    0    0 -0.31669735178E-01  0.99490585152E-02  0.18361412254E-01  0.37938878114E-01  0.51100000000E-03 0. -1.
</event>
<event>
 7    1  0.1492569E+005  0.1043930E+01  0.7957747E-01            NaN
         13   -1    0    0    0    0  0.00000000000E+00  0.00000000000E+00  0.74505805969E-08  0.10566000000E+00  0.10566000000E+00 0.  1.
     999900   -1    0    0    0    0 -0.00000000000E+00 -0.00000000000E+00 -0.74505805969E-08  0.93827000000E+00  0.93827000000E+00 0. -1.
     999903    2    1    2    0    0 -0.90028052547E-01  0.47757164830E-01 -0.53863304039E-01  0.11711731675E+00  0.20722290484E-01 0.  0.
         14    1    1    2    0    0 -0.86801930038E-02 -0.25662754613E-02  0.38979575414E-01  0.40016731748E-01  0.00000000000E+00 0.  1.
     999901    1    1    2    0    0  0.98708245550E-01 -0.45190889368E-01  0.14883728625E-01  0.88679595150E+00  0.88000000000E+00 0.  1.
        -11    1    3    3    0    0 -0.48976812852E-01  0.34877471502E-01 -0.23995921203E-01  0.64739721739E-01  0.51100000000E-03 0. -1.
         11    1    3    3    0    0 -0.41051239695E-01  0.12879693328E-01 -0.29867382836E-01  0.52377595011E-01  0.51100000000E-03 0.  1.
</event>
<event>
 8    1  0.1126414E+005  0.1043930E+01  0.7957747E-01            NaN
         13   -1    0    0    0    0  0.00000000000E+00  0.00000000000E+00  0.74505805969E-08  0.10566000000E+00  0.10566000000E+00 0.  1.
     999900   -1    0    0    0    0 -0.00000000000E+00 -0.00000000000E+00 -0.74505805969E-08  0.93827000000E+00  0.93827000000E+00 0.  1.
     999902    2    1    2    0    0 -0.13336111636E-01 -0.65611997300E-02 -0.17680310065E-01  0.10208324984E+01  0.10205711613E+01 0.  0.
     999903    2    3    3    0    0  0.92347149712E-01  0.86972600304E-01  0.12973212221E-01  0.12906057583E+00  0.19902229401E-01 0.  0.
         14    1    1    2    0    0  0.13336111636E-01  0.65611997300E-02  0.17680310065E-01  0.23097501585E-01  0.00000000000E+00 0.  1.
     999901    1    3    3    0    0 -0.10568326135E+00 -0.93533800034E-01 -0.30653522286E-01  0.89177192258E+00  0.88000000000E+00 0.  1.
        -11    1    4    4    0    0  0.57851127798E-01  0.62055800014E-01  0.98085718450E-03  0.84846322871E-01  0.51100000000E-03 0. -1.
         11    1    4    4    0    0  0.34496021914E-01  0.24916800291E-01  0.11992355036E-01  0.44214252961E-01  0.51100000000E-03 0.  1.
</event>
<event>
 8    1  0.1126414E+005  0.1043930E+01  0.7957747E-01            NaN
         13   -1    0    0    0    0  0.00000000000E+00  0.00000000000E+00  0.74505805969E-08  0.10566000000E+00  0.10566000000E+00 0.  1.
     999900   -1    0    0    0    0 -0.00000000000E+00 -0.00000000000E+00 -0.74505805969E-08  0.93827000000E+00  0.93827000000E+00 0.  1.
     999902    2    1    2    0    0  0.13426806245E-01  0.10880059887E-01  0.16187327362E-01  0.10202512248E+01  0.10199764101E+01 0.  0.
     999903    2    3    3    0    0  0.28418461363E-01 -0.92092570165E-01 -0.82680651771E-01  0.12862182331E+00  0.20465405630E-01 0.  0.
         14    1    1    2    0    0 -0.13426806245E-01 -0.10880059887E-01 -0.16187327362E-01  0.23678775226E-01  0.00000000000E+00 0. -1.
     999901    1    3    3    0    0 -0.14991655117E-01  0.10297263005E+00  0.98867979133E-01  0.89162940147E+00  0.88000000000E+00 0. -1.
        -11    1    4    4    0    0  0.14767001573E-01 -0.75717662342E-01 -0.62969704498E-01  0.99582496110E-01  0.51100000000E-03 0. -1.
         11    1    4    4    0    0  0.13651459790E-01 -0.16374907823E-01 -0.19710947273E-01  0.29039327197E-01  0.51100000000E-03 0.  1.
</event>
<event>
 8    1  0.1126414E+005  0.1043930E+01  0.7957747E-01            NaN
         13   -1    0    0    0    0  0.00000000000E+00  0.00000000000E+00  0.74505805969E-08  0.10566000000E+00  0.10566000000E+00 0.  1.
     999900   -1    0    0    0    0 -0.00000000000E+00 -0.00000000000E+00 -0.74505805969E-08  0.93827000000E+00  0.93827000000E+00 0.  1.
     999902    2    1    2    0    0  0.20891095067E-01 -0.11908263117E-01 -0.22438685954E-02  0.10197788193E+01  0.10194927958E+01 0.  0.
     999903    2    3    3    0    0 -0.73019612735E-01  0.99969720641E-01 -0.23458907807E-01  0.12748627635E+00  0.19406736287E-01 0.  0.
         14    1    1    2    0    0 -0.20891095067E-01  0.11908263117E-01  0.22438685954E-02  0.24151180713E-01  0.00000000000E+00 0. -1.
     999901    1    3    3    0    0  0.93910707803E-01 -0.11187798376E+00  0.21215039212E-01  0.89229254294E+00  0.88000000000E+00 0. -1.
        -11    1    4    4    0    0 -0.41950708943E-01  0.65355060496E-01 -0.22897024756E-01  0.80967158631E-01  0.51100000000E-03 0.  1.
         11    1    4    4    0    0 -0.31068903793E-01  0.34614660145E-01 -0.56188305183E-03  0.46519117720E-01  0.51100000000E-03 0. -1.
</event>
<event>
 8    1  0.1126414E+005  0.1043930E+01  0.7957747E-01            NaN
         13   -1    0    0    0    0  0.00000000000E+00  0.00000000000E+00  0.74505805969E-08  0.10566000000E+00  0.10566000000E+00 0. -1.
     999900   -1    0    0    0    0 -0.00000000000E+00 -0.00000000000E+00 -0.74505805969E-08  0.93827000000E+00  0.93827000000E+00 0. -1.
     999902    2    1    2    0    0 -0.24056709207E-01  0.21069671944E-02 -0.48200613917E-02  0.10193048592E+01  0.10190073593E+01 0.  0.
     999903    2    3    3    0    0 -0.16980077442E-01 -0.90885387652E-01  0.88166126459E-01  0.12950483226E+00  0.21207522367E-01 0.  0.
         14    1    1    2    0    0  0.24056709207E-01 -0.21069671944E-02  0.48200613917E-02  0.24625140821E-01  0.00000000000E+00 0. -1.
     999901    1    3    3    0    0 -0.70766317648E-02  0.92992354846E-01 -0.92986187850E-01  0.88980002692E+00  0.88000000000E+00 0. -1.
        -11    1    4    4    0    0 -0.69437983174E-02 -0.50266004452E-01  0.62136989905E-01  0.80225645364E-01  0.51100000000E-03 0. -1.
         11    1    4    4    0    0 -0.10036279125E-01 -0.40619383200E-01  0.26029136553E-01  0.49279186894E-01  0.51100000000E-03 0.  1.
</event>
<event>
 8    1  0.1126414E+005  0.1043930E+01  0.7957747E-01            NaN
         13   -1    0    0    0    0  0.00000000000E+00  0.00000000000E+00  0.74505805969E-08  0.10566000000E+00  0.10566000000E+00 0. -1.
     999900   -1    0    0    0    0 -0.00000000000E+00 -0.00000000000E+00 -0.74505805969E-08  0.93827000000E+00  0.93827000000E+00 0. -1.
     999902    2    1    2    0    0  0.30827323025E-02 -0.22290704351E-01  0.80257568306E-02  0.10200387566E+01  0.10197589291E+01 0.  0.
     999903    2    3    3    0    0  0.72148932431E-01 -0.73049973147E-01  0.81645456197E-01  0.13281471301E+00  0.20784620447E-01 0.  0.
         14    1    1    2    0    0 -0.30827323025E-02  0.22290704351E-01 -0.80257568306E-02  0.23891243409E-01  0.00000000000E+00 0.  1.
     999901    1    3    3    0    0 -0.69066200128E-01  0.50759268796E-01 -0.73619699367E-01  0.88722404358E+00  0.88000000000E+00 0. -1.
        -11    1    4    4    0    0  0.33338470057E-01 -0.36771269318E-01  0.52363059418E-01  0.72150751525E-01  0.51100000000E-03 0. -1.
         11    1    4    4    0    0  0.38810462374E-01 -0.36278703830E-01  0.29282396780E-01  0.60663961488E-01  0.51100000000E-03 0.  1.
</event>
<event>
 8    1  0.1126414E+005  0.1043930E+01  0.7957747E-01            NaN
         13   -1    0    0    0    0  0.00000000000E+00  0.00000000000E+00  0.74505805969E-08  0.10566000000E+00  0.10566000000E+00 0.  1.
     999900   -1    0    0    0    0 -0.00000000000E+00 -0.00000000000E+00 -0.74505805969E-08  0.93827000000E+00  0.93827000000E+00 0.  1.
     999902    2    1    2    0    0  0.12234717744E-01 -0.14418995092E-01  0.14543121178E-01  0.10200742227E+01  0.10197952352E+01 0.  0.
     999903    2    3    3    0    0  0.12969725040E+00 -0.15298131140E-02  0.15125540433E-01  0.13217562667E+00  0.20442534633E-01 0.  0.
         14    1    1    2    0    0 -0.12234717744E-01  0.14418995092E-01 -0.14543121178E-01  0.23855777316E-01  0.00000000000E+00 0. -1.
     999901    1    3    3    0    0 -0.11746253266E+00 -0.12889181978E-01 -0.58241925466E-03  0.88789859601E+00  0.88000000000E+00 0.  1.
        -11    1    4    4    0    0  0.19722716400E-01  0.44600053256E-02 -0.33358117601E-02  0.20500389041E-01  0.51100000000E-03 0.  1.
         11    1    4    4    0    0  0.10997453400E+00 -0.59898184396E-02  0.18461352193E-01  0.11167523763E+00  0.51100000000E-03 0. -1.
</event>
<event>
 8    1  0.1126414E+005  0.1043930E+01  0.7957747E-01            NaN
         13   -1    0    0    0    0  0.00000000000E+00  0.00000000000E+00  0.74505805969E-08  0.10566000000E+00  0.10566000000E+00 0.  1.
     999900   -1    0    0    0    0 -0.00000000000E+00 -0.00000000000E+00 -0.74505805969E-08  0.93827000000E+00  0.93827000000E+00 0. -1.
     999902    2    1    2    0    0  0.29265114301E-02  0.65539135303E-02 -0.22516980306E-01  0.10202967045E+01  0.10200229569E+01 0.  0.
     999903    2    3    3    0    0  0.11281322183E+00  0.53980315420E-01  0.31792639401E-01  0.13053612579E+00  0.19703064326E-01 0.  0.
         14    1    1    2    0    0 -0.29265114301E-02 -0.65539135303E-02  0.22516980306E-01  0.23633295450E-01  0.00000000000E+00 0.  1.
     999901    1    3    3    0    0 -0.10988671040E+00 -0.47426401890E-01 -0.54309619707E-01  0.88976057876E+00  0.88000000000E+00 0. -1.
        -11    1    4    4    0    0  0.63893547628E-01  0.41146526509E-01  0.17701764662E-01  0.78032273230E-01  0.51100000000E-03 0.  1.
         11    1    4    4    0    0  0.48919674203E-01  0.12833788912E-01  0.14090874739E-01  0.52503852562E-01  0.51100000000E-03 0. -1.
</event>
<event>
 8    1  0.1126414E+005  0.1043930E+01  0.7957747E-01            NaN
         13   -1    0    0    0    0  0.00000000000E+00  0.00000000000E+00  0.74505805969E-08  0.10566000000E+00  0.10566000000E+00 0.  1.
     999900   -1    0    0    0    0 -0.00000000000E+00 -0.00000000000E+00 -0.74505805969E-08  0.93827000000E+00  0.93827000000E+00 0. -1.
     999902    2    1    2    0    0 -0.18900865891E-01 -0.25063693315E-02 -0.16368312879E-01  0.10188014050E+01  0.10184914612E+01 0.  0.
     999903    2    3    3    0    0 -0.12329608841E+00  0.30737270430E-01  0.23464816401E-01  0.13111329524E+00  0.22212459794E-01 0.  0.
         14    1    1    2    0    0  0.18900865891E-01  0.25063693315E-02  0.16368312879E-01  0.25128594969E-01  0.00000000000E+00 0.  1.
     999901    1    3    3    0    0  0.10439522252E+00 -0.33243639762E-01 -0.39833129280E-01  0.88768810979E+00  0.88000000000E+00 0. -1.
        -11    1    4    4    0    0 -0.33022694469E-01 -0.13166229103E-02  0.87657561024E-02  0.34195488693E-01  0.51100000000E-03 0. -1.
         11    1    4    4    0    0 -0.90273393941E-01  0.32053893340E-01  0.14699060299E-01  0.96917806550E-01  0.51100000000E-03 0.  1.
</event>
<event>
 8    1  0.1126414E+005  0.1043930E+01  0.7957747E-01            NaN
         13   -1    0    0    0    0  0.00000000000E+00  0.00000000000E+00  0.74505805969E-08  0.10566000000E+00  0.10566000000E+00 0. -1.
     999900   -1    0    0    0    0 -0.00000000000E+00 -0.00000000000E+00 -0.74505805969E-08  0.93827000000E+00  0.93827000000E+00 0. -1.
     999902    2    1    2    0    0  0.13736956635E-01  0.81636342826E-02  0.17812586198E-01  0.10200001624E+01  0.10197194193E+01 0.  0.
     999903    2    3    3    0    0  0.39972877945E-01 -0.46457159225E-01  0.11603294042E+00  0.13246481510E+00  0.18088265894E-01 0.  0.
         14    1    1    2    0    0 -0.13736956635E-01 -0.81636342826E-02 -0.17812586198E-01  0.23929837637E-01  0.00000000000E+00 0.  1.
     999901    1    3    3    0    0 -0.26235921310E-01  0.54620793507E-01 -0.98220354225E-01  0.88753534726E+00  0.88000000000E+00 0. -1.
        -11    1    4    4    0    0  0.19254992626E-01 -0.28159573938E-01  0.46794943388E-01  0.57911520383E-01  0.51100000000E-03 0.  1.
         11    1    4    4    0    0  0.20717885319E-01 -0.18297585287E-01  0.69237997034E-01  0.74553294721E-01  0.51100000000E-03 0. -1.
</event>
<event>
 8    1  0.1126414E+005  0.1043930E+01  0.7957747E-01            NaN
         13   -1    0    0    0    0  0.00000000000E+00  0.00000000000E+00  0.74505805969E-08  0.10566000000E+00  0.10566000000E+00 0. -1.
     999900   -1    0    0    0    0 -0.00000000000E+00 -0.00000000000E+00 -0.74505805969E-08  0.93827000000E+00  0.93827000000E+00 0. -1.
     999902    2    1    2    0    0 -0.19586472923E-01  0.60917290923E-03 -0.12417974865E-01  0.10207307088E+01  0.10204670366E+01 0.  0.
     999903    2    3    3    0    0  0.98957667922E-01  0.66530194091E-02  0.78448518730E-01  0.12812443440E+00  0.20611110885E-01 0.  0.
         14    1    1    2    0    0  0.19586472923E-01 -0.60917290923E-03  0.12417974865E-01  0.23199291216E-01  0.00000000000E+00 0. -1.
     999901    1    3    3    0    0 -0.11854414084E+00 -0.60438464999E-02 -0.90866493595E-01  0.89260627438E+00  0.88000000000E+00 0. -1.
        -11    1    4    4    0    0  0.63000707621E-01  0.99816509433E-02  0.59991893954E-01  0.87567179796E-01  0.51100000000E-03 0.  1.
         11    1    4    4    0    0  0.35956960301E-01 -0.33286315342E-02  0.18456624776E-01  0.40557254605E-01  0.51100000000E-03 0. -1.
</event>
<event>
 8    1  0.1126414E+005  0.1043930E+01  0.7957747E-01            NaN
         13   -1    0    0    0    0  0.00000000000E+00  0.00000000000E+00  0.74505805969E-08  0.10566000000E+00  0.10566000000E+00 0.  1.
     999900   -1    0    0    0    0 -0.00000000000E+00 -0.00000000000E+00 -0.74505805969E-08  0.93827000000E+00  0.93827000000E+00 0. -1.
     999902    2    1    2    0    0  0.15267195631E-01 -0.16138690824E-01  0.68003448992E-02  0.10206966340E+01  0.10204321778E+01 0.  0.
     999903    2    3    3    0    0 -0.12798427718E+00  0.11765693729E-02  0.33886629796E-02  0.12893857139E+00  0.15241805461E-01 0.  0.
         14    1    1    2    0    0 -0.15267195631E-01  0.16138690824E-01 -0.68003448992E-02  0.23233365979E-01  0.00000000000E+00 0. -1.
     999901    1    3    3    0    0  0.14325147281E+00 -0.17315260197E-01  0.34116819196E-02  0.89175806263E+00  0.88000000000E+00 0. -1.
        -11    1    4    4    0    0 -0.51791418879E-01  0.38098287087E-03  0.88433497245E-02  0.52544858671E-01  0.51100000000E-03 0.  1.
         11    1    4    4    0    0 -0.76192858302E-01  0.79558650204E-03 -0.54546867449E-02  0.76393712716E-01  0.51100000000E-03 0. -1.
</event>
<event>
 8    1  0.1126414E+005  0.1043930E+01  0.7957747E-01            NaN
         13   -1    0    0    0    0  0.00000000000E+00  0.00000000000E+00  0.74505805969E-08  0.10566000000E+00  0.10566000000E+00 0. -1.
     999900   -1    0    0    0    0 -0.00000000000E+00 -0.00000000000E+00 -0.74505805969E-08  0.93827000000E+00  0.93827000000E+00 0.  1.
     999902    2    1    2    0    0 -0.17203172936E-01 -0.18075574377E-01 -0.57786443861E-02  0.10183161702E+01  0.10179939853E+01 0.  0.
     999903    2    3    3    0    0  0.92784806314E-02  0.99062643729E-03 -0.12741290388E+00  0.12935065279E+00  0.20260102633E-01 0.  0.
         14    1    1    2    0    0  0.17203172936E-01  0.18075574377E-01  0.57786443861E-02  0.25613829839E-01  0.00000000000E+00 0. -1.
     999901    1    3    3    0    0 -0.26481653567E-01 -0.19066200814E-01  0.12163425949E+00  0.88896551737E+00  0.88000000000E+00 0. -1.
        -11    1    4    4    0    0 -0.64402141607E-02  0.12018613500E-02 -0.38923795985E-01  0.39474597452E-01  0.51100000000E-03 0. -1.
         11    1    4    4    0    0  0.15718694792E-01 -0.21123491266E-03 -0.88489107895E-01  0.89876055339E-01  0.51100000000E-03 0.  1.
</event>
<event>
 8    1  0.1126414E+005  0.1043930E+01  0.7957747E-01            NaN
         13   -1    0    0    0    0  0.00000000000E+00  0.00000000000E+00  0.74505805969E-08  0.10566000000E+00  0.10566000000E+00 0. -1.
     999900   -1    0    0    0    0 -0.00000000000E+00 -0.00000000000E+00 -0.74505805969E-08  0.93827000000E+00  0.93827000000E+00 0. -1.
     999902    2    1    2    0    0  0.18728886555E-01 -0.46258225145E-02  0.10157553742E-01  0.10221275845E+01  0.10218950306E+01 0.  0.
     999903    2    3    3    0    0 -0.12353756260E+00  0.34145913273E-01 -0.40622320540E-02  0.12974583186E+00  0.19748579487E-01 0.  0.
         14    1    1    2    0    0 -0.18728886555E-01  0.46258225145E-02 -0.10157553742E-01  0.21802415544E-01  0.00000000000E+00 0.  1.
     999901    1    3    3    0    0  0.14226644915E+00 -0.38771735787E-01  0.14219785796E-01  0.89238175259E+00  0.88000000000E+00 0.  1.
        -11    1    4    4    0    0 -0.39855201717E-01  0.68135914062E-02  0.69356079835E-02  0.41027136275E-01  0.51100000000E-03 0. -1.
         11    1    4    4    0    0 -0.83682360878E-01  0.27332321867E-01 -0.10997840038E-01  0.88718695590E-01  0.51100000000E-03 0.  1.
</event>
<event>
 8    1  0.1126414E+005  0.1043930E+01  0.7957747E-01            NaN
         13   -1    0    0    0    0  0.00000000000E+00  0.00000000000E+00  0.74505805969E-08  0.10566000000E+00  0.10566000000E+00 0. -1.
     999900   -1    0    0    0    0 -0.00000000000E+00 -0.00000000000E+00 -0.74505805969E-08  0.93827000000E+00  0.93827000000E+00 0. -1.
     999902    2    1    2    0    0 -0.54569198776E-02 -0.22573747145E-01  0.68577613332E-02  0.10197146965E+01  0.10194271339E+01 0.  0.
     999903    2    3    3    0    0  0.95006507029E-01  0.65206689402E-01 -0.51273754331E-01  0.12776314044E+00  0.20402780479E-01 0.  0.
         14    1    1    2    0    0  0.54569198776E-02  0.22573747145E-01 -0.68577613332E-02  0.24215303533E-01  0.00000000000E+00 0. -1.
     999901    1    3    3    0    0 -0.10046342691E+00 -0.87780436547E-01  0.58131515664E-01  0.89195155603E+00  0.88000000000E+00 0. -1.
        -11    1    4    4    0    0  0.77818337357E-01  0.55587832540E-01 -0.33811917116E-01  0.10143573145E+00  0.51100000000E-03 0.  1.
         11    1    4    4    0    0  0.17188169672E-01  0.96188568621E-02 -0.17461837215E-01  0.26327408986E-01  0.51100000000E-03 0. -1.
</event>
<event>
 8    1  0.1126414E+005  0.1043930E+01  0.7957747E-01            NaN
         13   -1    0    0    0    0  0.00000000000E+00  0.00000000000E+00  0.74505805969E-08  0.10566000000E+00  0.10566000000E+00 0. -1.
     999900   -1    0    0    0    0 -0.00000000000E+00 -0.00000000000E+00 -0.74505805969E-08  0.93827000000E+00  0.93827000000E+00 0.  1.
     999902    2    1    2    0    0  0.17125706332E-01  0.10164602762E-01  0.10655330752E-01  0.10213436094E+01  0.10210938367E+01 0.  0.
     999903    2    3    3    0    0  0.11891137410E+00  0.81014546419E-02  0.58545024080E-01  0.13418071485E+00  0.19271635528E-01 0.  0.
         14    1    1    2    0    0 -0.17125706332E-01 -0.10164602762E-01 -0.10655330752E-01  0.22586390595E-01  0.00000000000E+00 0.  1.
     999901    1    3    3    0    0 -0.10178566777E+00  0.20631481206E-02 -0.47889693328E-01  0.88716289455E+00  0.88000000000E+00 0. -1.
        -11    1    4    4    0    0  0.66460414817E-01 -0.48070236002E-02  0.29892369064E-01  0.73033615978E-01  0.51100000000E-03 0.  1.
         11    1    4    4    0    0  0.52450959284E-01  0.12908478242E-01  0.28652655015E-01  0.61147098874E-01  0.51100000000E-03 0. -1.
</event>
<event>
 8    1  0.1126414E+005  0.1043930E+01  0.7957747E-01            NaN
         13   -1    0    0    0    0  0.00000000000E+00  0.00000000000E+00  0.74505805969E-08  0.10566000000E+00  0.10566000000E+00 0.  1.
     999900   -1    0    0    0    0 -0.00000000000E+00 -0.00000000000E+00 -0.74505805969E-08  0.93827000000E+00  0.93827000000E+00 0.  1.
     999902    2    1    2    0    0 -0.78939828946E-02 -0.16961378770E-01  0.13809509899E-01  0.10206769163E+01  0.10204120058E+01 0.  0.
     999903    2    3    3    0    0 -0.40760393779E-01 -0.19421317197E-01 -0.12014165308E+00  0.12993050669E+00  0.20231720158E-01 0.  0.
         14    1    1    2    0    0  0.78939828946E-02  0.16961378770E-01 -0.13809509899E-01  0.23253083653E-01  0.00000000000E+00 0. -1.
     999901    1    3    3    0    0  0.32866410885E-01  0.24599384272E-02  0.13395116298E+00  0.89074640966E+00  0.88000000000E+00 0. -1.
        -11    1    4    4    0    0 -0.17276674987E-02  0.18112961757E-02 -0.22597075116E-01  0.22741032378E-01  0.51100000000E-03 0. -1.
         11    1    4    4    0    0 -0.39032726280E-01 -0.21232613373E-01 -0.97544577962E-01  0.10718947431E+00  0.51100000000E-03 0.  1.
</event>
<event>
 8    1  0.1126414E+005  0.1043930E+01  0.7957747E-01            NaN
         13   -1    0    0    0    0  0.00000000000E+00  0.00000000000E+00  0.74505805969E-08  0.10566000000E+00  0.10566000000E+00 0.  1.
     999900   -1    0    0    0    0 -0.00000000000E+00 -0.00000000000E+00 -0.74505805969E-08  0.93827000000E+00  0.93827000000E+00 0. -1.
     999902    2    1    2    0    0  0.74798413329E-02 -0.58256312280E-02 -0.22651208555E-01  0.10193746899E+01  0.10190788954E+01 0.  0.
     999903    2    3    3    0    0  0.25345441018E-02  0.11846225923E+00  0.42804781491E-01  0.12822014532E+00  0.23841677216E-01 0.  0.
         14    1    1    2    0    0 -0.74798413329E-02  0.58256312280E-02  0.22651208555E-01  0.24555310109E-01  0.00000000000E+00 0.  1.
     999901    1    3    3    0    0  0.49452972311E-02 -0.12428789045E+00 -0.65455990046E-01  0.89115454457E+00  0.88000000000E+00 0. -1.
        -11    1    4    4    0    0 -0.68803886159E-02  0.26238788403E-01  0.16903091539E-01  0.31965440540E-01  0.51100000000E-03 0. -1.
         11    1    4    4    0    0  0.94149327177E-02  0.92223470823E-01  0.25901689952E-01  0.96254704779E-01  0.51100000000E-03 0.  1.
</event>
<event>
 8    1  0.1402192E+005  0.1043930E+01  0.7957747E-01            NaN
         13   -1    0    0    0    0  0.00000000000E+00  0.00000000000E+00  0.74505805969E-08  0.10566000000E+00  0.10566000000E+00 0. -1.
     999900   -1    0    0    0    0 -0.00000000000E+00 -0.00000000000E+00 -0.74505805969E-08  0.93827000000E+00  0.93827000000E+00 0.  1.
     999902    2    1    2    0    0 -0.52685767809E-02 -0.19934472284E-01 -0.11738599363E-01  0.10202037318E+01  0.10199278007E+01 0.  0.
     999903    2    3    3    0    0 -0.53723060916E-01 -0.11544210475E+00 -0.34456557352E-01  0.13341985144E+00  0.20013884940E-01 0.  0.
         14    1    1    2    0    0  0.52685767809E-02  0.19934472284E-01  0.11738599363E-01  0.23726268176E-01  0.00000000000E+00 0. -1.
     999901    1    3    3    0    0  0.48454484136E-01  0.95507632467E-01  0.22717957989E-01  0.88678388038E+00  0.88000000000E+00 0.  1.
        -11    1    4    4    0    0 -0.36936490989E-01 -0.69908980949E-01 -0.12109667717E-01  0.79990469165E-01  0.51100000000E-03 0.  1.
         11    1    4    4    0    0 -0.16786569927E-01 -0.45533123802E-01 -0.22346889635E-01  0.53429382276E-01  0.51100000000E-03 0. -1.
</event>
<event>
 8    1  0.1126414E+005  0.1043930E+01  0.7957747E-01            NaN
         13   -1    0    0    0    0  0.00000000000E+00  0.00000000000E+00  0.74505805969E-08  0.10566000000E+00  0.10566000000E+00 0. -1.
     999900   -1    0    0    0    0 -0.00000000000E+00 -0.00000000000E+00 -0.74505805969E-08  0.93827000000E+00  0.93827000000E+00 0.  1.
     999902    2    1    2    0    0  0.34857813167E-02  0.20417121402E-01  0.13094850785E-01  0.10194252120E+01  0.10191306483E+01 0.  0.
     999903    2    3    3    0    0 -0.15841245555E-01 -0.37611744976E-01 -0.11906131372E+00  0.12745764806E+00  0.20106397104E-01 0.  0.
         14    1    1    2    0    0 -0.34857813167E-02 -0.20417121402E-01 -0.13094850785E-01  0.24504787998E-01  0.00000000000E+00 0.  1.
     999901    1    3    3    0    0  0.19327026872E-01  0.58028866378E-01  0.13215616450E+00  0.89196756394E+00  0.88000000000E+00 0. -1.
        -11    1    4    4    0    0 -0.62858841764E-02 -0.29929836940E-01 -0.10168178390E+00  0.10618264348E+00  0.51100000000E-03 0. -1.
         11    1    4    4    0    0 -0.95553613785E-02 -0.76819080356E-02 -0.17379529822E-01  0.21275004582E-01  0.51100000000E-03 0.  1.
</event>
<event>
 8    1  0.1126414E+005  0.1043930E+01  0.7957747E-01            NaN
         13   -1    0    0    0    0  0.00000000000E+00  0.00000000000E+00  0.74505805969E-08  0.10566000000E+00  0.10566000000E+00 0. -1.
     999900   -1    0    0    0    0 -0.00000000000E+00 -0.00000000000E+00 -0.74505805969E-08  0.93827000000E+00  0.93827000000E+00 0. -1.
     999902    2    1    2    0    0  0.15198760685E-01 -0.74930717163E-02 -0.15078406665E-01  0.10212472577E+01  0.10209953254E+01 0.  0.
     999903    2    3    3    0    0  0.63305003427E-01 -0.89978493924E-01  0.69918562865E-01  0.13201020254E+00  0.20843111893E-01 0.  0.
         14    1    1    2    0    0 -0.15198760685E-01  0.74930717163E-02  0.15078406665E-01  0.22682742287E-01  0.00000000000E+00 0. -1.
     999901    1    3    3    0    0 -0.48106242742E-01  0.82485422208E-01 -0.84996969529E-01  0.88923705518E+00  0.88000000000E+00 0. -1.
        -11    1    4    4    0    0  0.36326444688E-01 -0.65669650479E-01  0.40551019979E-01  0.85303926756E-01  0.51100000000E-03 0. -1.
         11    1    4    4    0    0  0.26978558738E-01 -0.24308843445E-01  0.29367542886E-01  0.46706275782E-01  0.51100000000E-03 0.  1.
</event>
<event>
 8    1  0.1126414E+005  0.1043930E+01  0.7957747E-01            NaN
         13   -1    0    0    0    0  0.00000000000E+00  0.00000000000E+00  0.74505805969E-08  0.10566000000E+00  0.10566000000E+00 0. -1.
     999900   -1    0    0    0    0 -0.00000000000E+00 -0.00000000000E+00 -0.74505805969E-08  0.93827000000E+00  0.93827000000E+00 0.  1.
     999902    2    1    2    0    0  0.40360575972E-02 -0.16853839151E-01  0.18847957745E-01  0.10183255635E+01  0.10180036180E+01 0.  0.
     999903    2    3    3    0    0 -0.56796199817E-02  0.11156888240E+00  0.59153042229E-01  0.12803836851E+00  0.20368303896E-01 0.  0.
         14    1    1    2    0    0 -0.40360575972E-02  0.16853839151E-01 -0.18847957745E-01  0.25604436456E-01  0.00000000000E+00 0.  1.
     999901    1    3    3    0    0  0.97156775788E-02 -0.12842272155E+00 -0.40305084485E-01  0.89028719503E+00  0.88000000000E+00 0.  1.
        -11    1    4    4    0    0  0.39467850584E-02  0.28055440202E-01  0.72870398836E-02  0.29258279315E-01  0.51100000000E-03 0.  1.
         11    1    4    4    0    0 -0.96264050401E-02  0.83513442198E-01  0.51866002346E-01  0.98780089198E-01  0.51100000000E-03 0. -1.
</event>
<event>
 8    1  0.1126414E+005  0.1043930E+01  0.7957747E-01            NaN
         13   -1    0    0    0    0  0.00000000000E+00  0.00000000000E+00  0.74505805969E-08  0.10566000000E+00  0.10566000000E+00 0. -1.
     999900   -1    0    0    0    0 -0.00000000000E+00 -0.00000000000E+00 -0.74505805969E-08  0.93827000000E+00  0.93827000000E+00 0.  1.
     999902    2    1    2    0    0 -0.17833042289E-01  0.12470414383E-01  0.84240747978E-02  0.10205956119E+01  0.10203288241E+01 0.  0.
     999903    2    3    3    0    0  0.78120013620E-01  0.91370958794E-01 -0.45684938054E-01  0.13022486320E+00  0.20494213640E-01 0.  0.
         14    1    1    2    0    0  0.17833042289E-01 -0.12470414383E-01 -0.84240747978E-02  0.23334388108E-01  0.00000000000E+00 0.  1.
     999901    1    3    3    0    0 -0.95953055909E-01 -0.78900544411E-01  0.54109012852E-01  0.89037074869E+00  0.88000000000E+00 0. -1.
        -11    1    4    4    0    0  0.53497069863E-01  0.55663048217E-01 -0.38445289602E-01  0.86247393203E-01  0.51100000000E-03 0.  1.
         11    1    4    4    0    0  0.24622943757E-01  0.35707910577E-01 -0.72396484519E-02  0.43977470001E-01  0.51100000000E-03 0. -1.
</event>
<event>
 8    1  0.1126414E+005  0.1043930E+01  0.7957747E-01            NaN
         13   -1    0    0    0    0  0.00000000000E+00  0.00000000000E+00  0.74505805969E-08  0.10566000000E+00  0.10566000000E+00 0. -1.
     999900   -1    0    0    0    0 -0.00000000000E+00 -0.00000000000E+00 -0.74505805969E-08  0.93827000000E+00  0.93827000000E+00 0.  1.
     999902    2    1    2    0    0 -0.77794587103E-03 -0.22643573733E-01  0.76813255779E-02  0.10200063842E+01  0.10197257888E+01 0.  0.
     999903    2    3    3    0    0 -0.86867579112E-01  0.73298884949E-01 -0.56006187455E-01  0.12833801553E+00  0.20377692767E-01 0.  0.
         14    1    1    2    0    0  0.77794587103E-03  0.22643573733E-01 -0.76813255779E-02  0.23923615818E-01  0.00000000000E+00 0.  1.
     999901    1    3    3    0    0  0.86089633241E-01 -0.95942458682E-01  0.63687513033E-01  0.89166836865E+00  0.88000000000E+00 0.  1.
        -11    1    4    4    0    0 -0.32989169581E-01  0.33406228447E-01 -0.33274476525E-01  0.57547487501E-01  0.51100000000E-03 0.  1.
         11    1    4    4    0    0 -0.53878409532E-01  0.39892656502E-01 -0.22731710929E-01  0.70790528033E-01  0.51100000000E-03 0. -1.
</event>
<event>
 8    1  0.1126414E+005  0.1043930E+01  0.7957747E-01            NaN
         13   -1    0    0    0    0  0.00000000000E+00  0.00000000000E+00  0.74505805969E-08  0.10566000000E+00  0.10566000000E+00 0. -1.
     999900   -1    0    0    0    0 -0.00000000000E+00 -0.00000000000E+00 -0.74505805969E-08  0.93827000000E+00  0.93827000000E+00 0. -1.
     999902    2    1    2    0    0 -0.21959212378E-02  0.71601945213E-02  0.21245335342E-01  0.10214032441E+01  0.10211548034E+01 0.  0.
     999903    2    3    3    0    0 -0.60712541045E-03  0.13086421690E+00 -0.23661745756E-02  0.13243602718E+00  0.20196302809E-01 0.  0.
         14    1    1    2    0    0  0.21959212378E-02 -0.71601945213E-02 -0.21245335342E-01  0.22526755857E-01  0.00000000000E+00 0.  1.
     999901    1    3    3    0    0 -0.15887958274E-02 -0.12370402238E+00  0.23611509917E-01  0.88896721696E+00  0.88000000000E+00 0.  1.
        -11    1    4    4    0    0  0.52087176385E-02  0.92744629967E-01  0.55882876126E-02  0.93060126835E-01  0.51100000000E-03 0.  1.
         11    1    4    4    0    0 -0.58158430490E-02  0.38119586937E-01 -0.79544621882E-02  0.39375900350E-01  0.51100000000E-03 0. -1.
</event>
<event>
 8    1  0.1126414E+005  0.1043930E+01  0.7957747E-01            NaN
         13   -1    0    0    0    0  0.00000000000E+00  0.00000000000E+00  0.74505805969E-08  0.10566000000E+00  0.10566000000E+00 0.  1.
     999900   -1    0    0    0    0 -0.00000000000E+00 -0.00000000000E+00 -0.74505805969E-08  0.93827000000E+00  0.93827000000E+00 0. -1.
     999902    2    1    2    0    0 -0.55535716286E-02  0.14252649102E-01 -0.20405158511E-01  0.10184280264E+01  0.10181086849E+01 0.  0.
     999903    2    3    3    0    0  0.47464097630E-02  0.95086838687E-01  0.84037277197E-01  0.12851315507E+00  0.19731491812E-01 0.  0.
         14    1    1    2    0    0  0.55535716286E-02 -0.14252649102E-01  0.20405158511E-01  0.25501973612E-01  0.00000000000E+00 0.  1.
     999901    1    3    3    0    0 -0.10299981392E-01 -0.80834189585E-01 -0.10444243571E+00  0.88991487132E+00  0.88000000000E+00 0. -1.
        -11    1    4    4    0    0  0.82970078778E-02  0.43096253297E-01  0.48635140012E-01  0.65511566559E-01  0.51100000000E-03 0.  1.
         11    1    4    4    0    0 -0.35505981148E-02  0.51990585390E-01  0.35402137186E-01  0.63001588508E-01  0.51100000000E-03 0. -1.
</event>
<event>
 8    1  0.1126414E+005  0.1043930E+01  0.7957747E-01            NaN
         13   -1    0    0    0    0  0.00000000000E+00  0.00000000000E+00  0.74505805969E-08  0.10566000000E+00  0.10566000000E+00 0. -1.
     999900   -1    0    0    0    0 -0.00000000000E+00 -0.00000000000E+00 -0.74505805969E-08  0.93827000000E+00  0.93827000000E+00 0.  1.
     999902    2    1    2    0    0  0.16503253820E-01 -0.22009985993E-01  0.92888372686E-02  0.10148941710E+01  0.10144787326E+01 0.  0.
     999903    2    3    3    0    0 -0.51945916884E-01  0.10806988371E+00  0.19161799293E-01  0.12264782782E+00  0.17257956725E-01 0.  0.
         14    1    1    2    0    0 -0.16503253820E-01  0.22009985993E-01 -0.92888372686E-02  0.29035829037E-01  0.00000000000E+00 0.  1.
     999901    1    3    3    0    0  0.68449170704E-01 -0.13007986971E+00 -0.98729620240E-02  0.89224634314E+00  0.88000000000E+00 0.  1.
        -11    1    4    4    0    0 -0.27440288944E-01  0.52787090178E-01  0.99013667888E-03  0.59503679201E-01  0.51100000000E-03 0.  1.
         11    1    4    4    0    0 -0.24505627940E-01  0.55282793535E-01  0.18171662614E-01  0.63144148620E-01  0.51100000000E-03 0. -1.
</event>
<event>
 8    1  0.1126414E+005  0.1043930E+01  0.7957747E-01            NaN
         13   -1    0    0    0    0  0.00000000000E+00  0.00000000000E+00  0.74505805969E-08  0.10566000000E+00  0.10566000000E+00 0.  1.
     999900   -1    0    0    0    0 -0.00000000000E+00 -0.00000000000E+00 -0.74505805969E-08  0.93827000000E+00  0.93827000000E+00 0.  1.
     999902    2    1    2    0    0 -0.10153884912E-01  0.10144254546E-01  0.18663671333E-01  0.10203855759E+01  0.10201139072E+01 0.  0.
     999903    2    3    3    0    0 -0.86739539620E-01  0.38136140270E-01  0.91502775712E-01  0.13361929140E+00  0.22433103755E-01 0.  0.
         14    1    1    2    0    0  0.10153884912E-01 -0.10144254546E-01 -0.18663671333E-01  0.23544424111E-01  0.00000000000E+00 0. -1.
     999901    1    3    3    0    0  0.76585654708E-01 -0.27991885724E-01 -0.72839104379E-01  0.88676628449E+00  0.88000000000E+00 0.  1.
        -11    1    4    4    0    0 -0.31823628764E-01  0.19237439617E-01  0.22658638066E-01  0.43548793677E-01  0.51100000000E-03 0.  1.
         11    1    4    4    0    0 -0.54915910856E-01  0.18898700653E-01  0.68844137646E-01  0.90070497727E-01  0.51100000000E-03 0. -1.
</event>
<event>
 8    1  0.1126414E+005  0.1043930E+01  0.7957747E-01            NaN
         13   -1    0    0    0    0  0.00000000000E+00  0.00000000000E+00  0.74505805969E-08  0.10566000000E+00  0.10566000000E+00 0. -1.
     999900   -1    0    0    0    0 -0.00000000000E+00 -0.00000000000E+00 -0.74505805969E-08  0.93827000000E+00  0.93827000000E+00 0. -1.
     999902    2    1    2    0    0 -0.13323583033E-01  0.19865022924E-01 -0.64845973124E-02  0.10191472035E+01  0.10188458349E+01 0.  0.
     999903    2    3    3    0    0  0.77502712451E-01  0.47275681957E-01 -0.90888433539E-01  0.13003260584E+00  0.20152188187E-01 0.  0.
         14    1    1    2    0    0  0.13323583033E-01 -0.19865022924E-01  0.64845973124E-02  0.24782796511E-01  0.00000000000E+00 0. -1.
     999901    1    3    3    0    0 -0.90826295484E-01 -0.27410659033E-01  0.84403836227E-01  0.88911459765E+00  0.88000000000E+00 0.  1.
        -11    1    4    4    0    0  0.29413244122E-01  0.11538449074E-01 -0.42819947627E-01  0.53217325868E-01  0.51100000000E-03 0.  1.
         11    1    4    4    0    0  0.48089468330E-01  0.35737232883E-01 -0.48068485913E-01  0.76815279973E-01  0.51100000000E-03 0. -1.
</event>
<event>
 8    1  0.1126414E+005  0.1043930E+01  0.7957747E-01            NaN
         13   -1    0    0    0    0  0.00000000000E+00  0.00000000000E+00  0.74505805969E-08  0.10566000000E+00  0.10566000000E+00 0. -1.
     999900   -1    0    0    0    0 -0.00000000000E+00 -0.00000000000E+00 -0.74505805969E-08  0.93827000000E+00  0.93827000000E+00 0.  1.
     999902    2    1    2    0    0  0.23115238530E-01 -0.69100728519E-02 -0.11248034158E-02  0.10197778046E+01  0.10194917568E+01 0.  0.
     999903    2    3    3    0    0  0.58988987858E-02 -0.12839996342E+00  0.16254311882E-01  0.13109437982E+00  0.20004653280E-01 0.  0.
         14    1    1    2    0    0 -0.23115238530E-01  0.69100728519E-02  0.11248034158E-02  0.24152195383E-01  0.00000000000E+00 0. -1.
     999901    1    3    3    0    0  0.17216339744E-01  0.12148989056E+00 -0.17379115297E-01  0.88868342480E+00  0.88000000000E+00 0.  1.
        -11    1    4    4    0    0  0.16722453443E-02 -0.97469891352E-01  0.20404344884E-01  0.99598064920E-01  0.51100000000E-03 0.  1.
         11    1    4    4    0    0  0.42266534414E-02 -0.30930072064E-01 -0.41500330023E-02  0.31496314898E-01  0.51100000000E-03 0. -1.
</event>
<event>
 8    1  0.1126414E+005  0.1043930E+01  0.7957747E-01            NaN
         13   -1    0    0    0    0  0.00000000000E+00  0.00000000000E+00  0.74505805969E-08  0.10566000000E+00  0.10566000000E+00 0.  1.
     999900   -1    0    0    0    0 -0.00000000000E+00 -0.00000000000E+00 -0.74505805969E-08  0.93827000000E+00  0.93827000000E+00 0.  1.
     999902    2    1    2    0    0 -0.80745256803E-02 -0.22937276796E-01 -0.83743044666E-03  0.10195985816E+01  0.10193082211E+01 0.  0.
     999903    2    3    3    0    0  0.18026928054E-01 -0.10524609841E+00 -0.75726163313E-01  0.13220670068E+00  0.18505364854E-01 0.  0.
         14    1    1    2    0    0  0.80745256803E-02  0.22937276796E-01  0.83743044666E-03  0.24331418404E-01  0.00000000000E+00 0.  1.
     999901    1    3    3    0    0 -0.26101453735E-01  0.82308821619E-01  0.74888732866E-01  0.88739188091E+00  0.88000000000E+00 0. -1.
        -11    1    4    4    0    0  0.13588792699E-01 -0.47295381644E-01 -0.43868483800E-01  0.65925817429E-01  0.51100000000E-03 0.  1.
         11    1    4    4    0    0  0.44381353555E-02 -0.57950716771E-01 -0.31857679513E-01  0.66280883252E-01  0.51100000000E-03 0. -1.
</event>
<event>
 8    1  0.1126414E+005  0.1043930E+01  0.7957747E-01            NaN
         13   -1    0    0    0    0  0.00000000000E+00  0.00000000000E+00  0.74505805969E-08  0.10566000000E+00  0.10566000000E+00 0. -1.
     999900   -1    0    0    0    0 -0.00000000000E+00 -0.00000000000E+00 -0.74505805969E-08  0.93827000000E+00  0.93827000000E+00 0. -1.
     999902    2    1    2    0    0 -0.83982965958E-02 -0.14184530647E-01 -0.17099104663E-01  0.10201789647E+01  0.10199024504E+01 0.  0.
     999903    2    3    3    0    0  0.43431800382E-01 -0.10101547501E+00  0.67210036491E-01  0.13038460472E+00  0.19811831468E-01 0.  0.
         14    1    1    2    0    0  0.83982965958E-02  0.14184530647E-01  0.17099104663E-01  0.23751035255E-01  0.00000000000E+00 0. -1.
     999901    1    3    3    0    0 -0.51830096978E-01  0.86830944366E-01 -0.84309141154E-01  0.88979436003E+00  0.88000000000E+00 0. -1.
        -11    1    4    4    0    0  0.41592443499E-01 -0.84707682115E-01  0.50812625292E-01  0.10717978716E+00  0.51100000000E-03 0.  1.
         11    1    4    4    0    0  0.18393568829E-02 -0.16307792899E-01  0.16397411199E-01  0.23204817560E-01  0.51100000000E-03 0. -1.
</event>
<event>
 8    1  0.1126414E+005  0.1043930E+01  0.7957747E-01            NaN
         13   -1    0    0    0    0  0.00000000000E+00  0.00000000000E+00  0.74505805969E-08  0.10566000000E+00  0.10566000000E+00 0.  1.
     999900   -1    0    0    0    0 -0.00000000000E+00 -0.00000000000E+00 -0.74505805969E-08  0.93827000000E+00  0.93827000000E+00 0.  1.
     999902    2    1    2    0    0  0.93548161073E-02 -0.25286578230E-01 -0.61409382562E-02  0.10162779703E+01  0.10159017070E+01 0.  0.
     999903    2    3    3    0    0  0.73584067605E-02  0.93022375455E-01 -0.81058855115E-01  0.12520351302E+00  0.19951771745E-01 0.  0.
         14    1    1    2    0    0 -0.93548161073E-02  0.25286578230E-01  0.61409382562E-02  0.27652029684E-01  0.00000000000E+00 0.  1.
     999901    1    3    3    0    0  0.19964093468E-02 -0.11830895368E+00  0.74917916858E-01  0.89107445729E+00  0.88000000000E+00 0. -1.
        -11    1    4    4    0    0  0.12569654444E-01  0.66938612507E-01 -0.64879634756E-01  0.94065945933E-01  0.51100000000E-03 0. -1.
         11    1    4    4    0    0 -0.52112476830E-02  0.26083762948E-01 -0.16179220358E-01  0.31137567091E-01  0.51100000000E-03 0.  1.
</event>
<event>
 8    1  0.1126414E+005  0.1043930E+01  0.7957747E-01            NaN
         13   -1    0    0    0    0  0.00000000000E+00  0.00000000000E+00  0.74505805969E-08  0.10566000000E+00  0.10566000000E+00 0. -1.
     999900   -1    0    0    0    0 -0.00000000000E+00 -0.00000000000E+00 -0.74505805969E-08  0.93827000000E+00  0.93827000000E+00 0.  1.
     999902    2    1    2    0    0  0.24169738080E-01 -0.13756671236E-02  0.14585440139E-03  0.10197207048E+01  0.10194332866E+01 0.  0.
     999903    2    3    3    0    0 -0.33519753006E-02 -0.37847868428E-01  0.12275900541E+00  0.13004567935E+00  0.19960170975E-01 0.  0.
         14    1    1    2    0    0 -0.24169738080E-01  0.13756671236E-02 -0.14585440139E-03  0.24209295165E-01  0.00000000000E+00 0. -1.
     999901    1    3    3    0    0  0.27521713381E-01  0.36472201305E-01 -0.12261315101E+00  0.88967502549E+00  0.88000000000E+00 0.  1.
        -11    1    4    4    0    0  0.73840094127E-02 -0.16082884023E-01  0.65572922776E-01  0.67920925170E-01  0.51100000000E-03 0.  1.
         11    1    4    4    0    0 -0.10735984713E-01 -0.21764984406E-01  0.57186082632E-01  0.62124754178E-01  0.51100000000E-03 0. -1.
</event>
<event>
 8    1  0.1126414E+005  0.1043930E+01  0.7957747E-01            NaN
         13   -1    0    0    0    0  0.00000000000E+00  0.00000000000E+00  0.74505805969E-08  0.10566000000E+00  0.10566000000E+00 0. -1.
     999900   -1    0    0    0    0 -0.00000000000E+00 -0.00000000000E+00 -0.74505805969E-08  0.93827000000E+00  0.93827000000E+00 0.  1.
     999902    2    1    2    0    0 -0.81997056263E-02 -0.21478856213E-01 -0.24168689876E-02  0.10208125241E+01  0.10205507296E+01 0.  0.
     999903    2    3    3    0    0  0.86298902936E-02  0.14124592913E-01  0.12774233075E+00  0.13036754648E+00  0.20090171174E-01 0.  0.
         14    1    1    2    0    0  0.81997056263E-02  0.21478856213E-01  0.24168689876E-02  0.23117475907E-01  0.00000000000E+00 0. -1.
     999901    1    3    3    0    0 -0.16829595920E-01 -0.35603449126E-01 -0.13015919974E+00  0.89044497762E+00  0.88000000000E+00 0.  1.
        -11    1    4    4    0    0 -0.48117585268E-02 -0.22368140271E-03  0.47658082591E-01  0.47903622105E-01  0.51100000000E-03 0. -1.
         11    1    4    4    0    0  0.13441648820E-01  0.14348274315E-01  0.80084248157E-01  0.82463924371E-01  0.51100000000E-03 0.  1.
</event>
<event>
 8    1  0.1126414E+005  0.1043930E+01  0.7957747E-01            NaN
         13   -1    0    0    0    0  0.00000000000E+00  0.00000000000E+00  0.74505805969E-08  0.10566000000E+00  0.10566000000E+00 0. -1.
     999900   -1    0    0    0    0 -0.00000000000E+00 -0.00000000000E+00 -0.74505805969E-08  0.93827000000E+00  0.93827000000E+00 0.  1.
     999902    2    1    2    0    0 -0.12840044880E-01  0.21305689709E-01 -0.11383133549E-02  0.10190282948E+01  0.10187239914E+01 0.  0.
     999903    2    3    3    0    0 -0.88212493213E-01  0.52737545538E-01  0.79744185921E-01  0.13155381839E+00  0.19610692890E-01 0.  0.
         14    1    1    2    0    0  0.12840044880E-01 -0.21305689709E-01  0.11383133549E-02  0.24901705239E-01  0.00000000000E+00 0. -1.
     999901    1    3    3    0    0  0.75372448333E-01 -0.31431855828E-01 -0.80882499275E-01  0.88747447638E+00  0.88000000000E+00 0.  1.
        -11    1    4    4    0    0 -0.67465929570E-01  0.31724547370E-01  0.62971916759E-01  0.97590071113E-01  0.51100000000E-03 0. -1.
         11    1    4    4    0    0 -0.20746563643E-01  0.21012998168E-01  0.16772269162E-01  0.33963747273E-01  0.51100000000E-03 0.  1.
</event>
<event>
 8    1  0.1126414E+005  0.1043930E+01  0.7957747E-01            NaN
         13   -1    0    0    0    0  0.00000000000E+00  0.00000000000E+00  0.74505805969E-08  0.10566000000E+00  0.10566000000E+00 0.  1.
     999900   -1    0    0    0    0 -0.00000000000E+00 -0.00000000000E+00 -0.74505805969E-08  0.93827000000E+00  0.93827000000E+00 0.  1.
     999902    2    1    2    0    0 -0.29005199993E-02 -0.76603625153E-02  0.22707044463E-01  0.10197907366E+01  0.10195049987E+01 0.  0.
     999903    2    3    3    0    0  0.16377913492E-01 -0.10251816971E+00  0.76518330121E-01  0.13284918493E+00  0.31869106051E-01 0.  0.
         14    1    1    2    0    0  0.29005199993E-02  0.76603625153E-02 -0.22707044463E-01  0.24139263418E-01  0.00000000000E+00 0. -1.
     999901    1    3    3    0    0 -0.19278433491E-01  0.94857807196E-01 -0.53811285659E-01  0.88694155165E+00  0.88000000000E+00 0.  1.
        -11    1    4    4    0    0  0.71820227164E-02 -0.35676649792E-01  0.46367837392E-01  0.58946096191E-01  0.51100000000E-03 0. -1.
         11    1    4    4    0    0  0.91958907756E-02 -0.66841519920E-01  0.30150492729E-01  0.73903088739E-01  0.51100000000E-03 0.  1.
</event>
<event>
 8    1  0.1126414E+005  0.1043930E+01  0.7957747E-01            NaN
         13   -1    0    0    0    0  0.00000000000E+00  0.00000000000E+00  0.74505805969E-08  0.10566000000E+00  0.10566000000E+00 0. -1.
     999900   -1    0    0    0    0 -0.00000000000E+00 -0.00000000000E+00 -0.74505805969E-08  0.93827000000E+00  0.93827000000E+00 0. -1.
     999902    2    1    2    0    0 -0.54989342936E-02  0.22133211650E-01  0.18639169709E-02  0.10210478777E+01  0.10207914464E+01 0.  0.
     999903    2    3    3    0    0 -0.68656835920E-01  0.11252561899E+00 -0.17650877706E-01  0.13395118899E+00  0.15987229256E-01 0.  0.
         14    1    1    2    0    0  0.54989342936E-02 -0.22133211650E-01 -0.18639169709E-02  0.22882122340E-01  0.00000000000E+00 0.  1.
     999901    1    3    3    0    0  0.63157901626E-01 -0.90392407343E-01  0.19514794676E-01  0.88709668867E+00  0.88000000000E+00 0.  1.
        -11    1    4    4    0    0 -0.64176576123E-01  0.11043837150E+00 -0.16083232678E-01  0.12874081838E+00  0.51100000000E-03 0. -1.
         11    1    4    4    0    0 -0.44802597972E-02  0.20872474908E-02 -0.15676450277E-02  0.52103706078E-02  0.51100000000E-03 0.  1.
</event>
<event>
 8    1  0.1126414E+005  0.1043930E+01  0.7957747E-01            NaN
         13   -1    0    0    0    0  0.00000000000E+00  0.00000000000E+00  0.74505805969E-08  0.10566000000E+00  0.10566000000E+00 0. -1.
     999900   -1    0    0    0    0 -0.00000000000E+00 -0.00000000000E+00 -0.74505805969E-08  0.93827000000E+00  0.93827000000E+00 0. -1.
     999902    2    1    2    0    0  0.54220448515E-02  0.24041706725E-02 -0.22180323642E-01  0.10209703536E+01  0.10207121619E+01 0.  0.
     999903    2    3    3    0    0  0.11110253408E+00  0.31753553189E-01 -0.63495147705E-01  0.13319973751E+00  0.18933437926E-01 0.  0.
         14    1    1    2    0    0 -0.54220448515E-02 -0.24041706725E-02  0.22180323642E-01  0.22959646423E-01  0.00000000000E+00 0. -1.
     999901    1    3    3    0    0 -0.10568048923E+00 -0.29349382516E-01  0.41314824063E-01  0.88777061606E+00  0.88000000000E+00 0.  1.
        -11    1    4    4    0    0  0.11571405284E-01  0.85709307225E-02 -0.12057263490E-01  0.18788214326E-01  0.51100000000E-03 0. -1.
         11    1    4    4    0    0  0.99531128800E-01  0.23182622466E-01 -0.51437884215E-01  0.11441152319E+00  0.51100000000E-03 0.  1.
</event>
<event>
 8    1  0.1126414E+005  0.1043930E+01  0.7957747E-01            NaN
         13   -1    0    0    0    0  0.00000000000E+00  0.00000000000E+00  0.74505805969E-08  0.10566000000E+00  0.10566000000E+00 0. -1.
     999900   -1    0    0    0    0 -0.00000000000E+00 -0.00000000000E+00 -0.74505805969E-08  0.93827000000E+00  0.93827000000E+00 0. -1.
     999902    2    1    2    0    0  0.19146734089E-02  0.23321413887E-01  0.40527772208E-02  0.10201817512E+01  0.10199053025E+01 0.  0.
     999903    2    3    3    0    0 -0.49443625368E-01 -0.91230344540E-01  0.73308110863E-01  0.12857865479E+00  0.19767232857E-01 0.  0.
         14    1    1    2    0    0 -0.19146734089E-02 -0.23321413887E-01 -0.40527772208E-02  0.23748248844E-01  0.00000000000E+00 0.  1.
     999901    1    3    3    0    0  0.51358298777E-01  0.11455175843E+00 -0.69255333642E-01  0.89160309637E+00  0.88000000000E+00 0. -1.
        -11    1    4    4    0    0 -0.74903910659E-02 -0.22224386258E-01  0.25847969857E-01  0.34905701105E-01  0.51100000000E-03 0.  1.
         11    1    4    4    0    0 -0.41953234302E-01 -0.69005958281E-01  0.47460141006E-01  0.93672953685E-01  0.51100000000E-03 0. -1.
</event>
<event>
 8    1  0.1126414E+005  0.1043930E+01  0.7957747E-01            NaN
         13   -1    0    0    0    0  0.00000000000E+00  0.00000000000E+00  0.74505805969E-08  0.10566000000E+00  0.10566000000E+00 0. -1.
     999900   -1    0    0    0    0 -0.00000000000E+00 -0.00000000000E+00 -0.74505805969E-08  0.93827000000E+00  0.93827000000E+00 0. -1.
     999902    2    1    2    0    0 -0.10950868374E-02 -0.12685067892E-02 -0.23579536569E-01  0.10202909884E+01  0.10200171068E+01 0.  0.
     999903    2    3    3    0    0  0.12468134236E+00 -0.68530529787E-02  0.29738559649E-01  0.12973289558E+00  0.18810656533E-01 0.  0.
         14    1    1    2    0    0  0.10950868374E-02  0.12685067892E-02  0.23579536569E-01  0.23639011601E-01  0.00000000000E+00 0. -1.
     999901    1    3    3    0    0 -0.12577642919E+00  0.55845461894E-02 -0.53318096218E-01  0.89055809282E+00  0.88000000000E+00 0.  1.
        -11    1    4    4    0    0  0.47299933819E-02  0.26446084478E-02 -0.10154804469E-02  0.55370671635E-02  0.51100000000E-03 0.  1.
         11    1    4    4    0    0  0.11995134897E+00 -0.94976614265E-02  0.30754040096E-01  0.12419582842E+00  0.51100000000E-03 0. -1.
</event>
<event>
 8    1  0.1126414E+005  0.1043930E+01  0.7957747E-01            NaN
         13   -1    0    0    0    0  0.00000000000E+00  0.00000000000E+00  0.74505805969E-08  0.10566000000E+00  0.10566000000E+00 0.  1.
     999900   -1    0    0    0    0 -0.00000000000E+00 -0.00000000000E+00 -0.74505805969E-08  0.93827000000E+00  0.93827000000E+00 0.  1.
     999902    2    1    2    0    0  0.20507723989E-01  0.95002376284E-02 -0.14296067195E-02  0.10212834763E+01  0.10210323570E+01 0.  0.
     999903    2    3    3    0    0  0.66729907133E-01  0.74009051055E-01  0.85776071662E-01  0.13341934960E+00  0.22648802031E-01 0.  0.
         14    1    1    2    0    0 -0.20507723989E-01 -0.95002376284E-02  0.14296067195E-02  0.22646523654E-01  0.00000000000E+00 0. -1.
     999901    1    3    3    0    0 -0.46222183144E-01 -0.64508813427E-01 -0.87205678381E-01  0.88786412675E+00  0.88000000000E+00 0.  1.
        -11    1    4    4    0    0  0.67178762713E-01  0.69902519499E-01  0.85468054074E-01  0.12924549424E+00  0.51100000000E-03 0.  1.
         11    1    4    4    0    0 -0.44885558003E-03  0.41065315561E-02  0.30801758728E-03  0.41738553625E-02  0.51100000000E-03 0. -1.
</event>
<event>
 8    1  0.1126414E+005  0.1043930E+01  0.7957747E-01            NaN
         13   -1    0    0    0    0  0.00000000000E+00  0.00000000000E+00  0.74505805969E-08  0.10566000000E+00  0.10566000000E+00 0. -1.
     999900   -1    0    0    0    0 -0.00000000000E+00 -0.00000000000E+00 -0.74505805969E-08  0.93827000000E+00  0.93827000000E+00 0.  1.
     999902    2    1    2    0    0  0.61869090220E-02  0.16394204855E-01 -0.19835437144E-01  0.10174631837E+01  0.10171188907E+01 0.  0.
     999903    2    3    3    0    0 -0.65659670876E-01  0.17517634159E-01  0.10411892684E+00  0.12587590395E+00  0.19645161826E-01 0.  0.
         14    1    1    2    0    0 -0.61869090220E-02 -0.16394204855E-01  0.19835437144E-01  0.26466816256E-01  0.00000000000E+00 0. -1.
     999901    1    3    3    0    0  0.71846579898E-01 -0.11234293044E-02 -0.12395436398E+00  0.89158727979E+00  0.88000000000E+00 0.  1.
        -11    1    4    4    0    0 -0.44623509925E-01  0.54723545862E-02  0.79431145830E-01  0.91273064765E-01  0.51100000000E-03 0.  1.
         11    1    4    4    0    0 -0.21036160951E-01  0.12045279573E-01  0.24687781010E-01  0.34602839186E-01  0.51100000000E-03 0. -1.
</event>
<event>
 8    1  0.1126414E+005  0.1043930E+01  0.7957747E-01            NaN
         13   -1    0    0    0    0  0.00000000000E+00  0.00000000000E+00  0.74505805969E-08  0.10566000000E+00  0.10566000000E+00 0. -1.
     999900   -1    0    0    0    0 -0.00000000000E+00 -0.00000000000E+00 -0.74505805969E-08  0.93827000000E+00  0.93827000000E+00 0. -1.
     999902    2    1    2    0    0  0.13972101085E-01  0.17298996266E-01 -0.43741499777E-02  0.10212670772E+01  0.10210155900E+01 0.  0.
     999903    2    3    3    0    0  0.34252297318E-01  0.65826136636E-01  0.10807686592E+00  0.13255373723E+00  0.19585304971E-01 0.  0.
         14    1    1    2    0    0 -0.13972101085E-01 -0.17298996266E-01  0.43741499777E-02  0.22662922772E-01  0.00000000000E+00 0. -1.
     999901    1    3    3    0    0 -0.20280196233E-01 -0.48527140370E-01 -0.11245101590E+00  0.88871334000E+00  0.88000000000E+00 0. -1.
        -11    1    4    4    0    0  0.43692997612E-02  0.19765562940E-01  0.42110484227E-01  0.46726034087E-01  0.51100000000E-03 0.  1.
         11    1    4    4    0    0  0.29882997557E-01  0.46060573696E-01  0.65966381695E-01  0.85827703144E-01  0.51100000000E-03 0. -1.
</event>
<event>
 8    1  0.1126414E+005  0.1043930E+01  0.7957747E-01            NaN
         13   -1    0    0    0    0  0.00000000000E+00  0.00000000000E+00  0.74505805969E-08  0.10566000000E+00  0.10566000000E+00 0.  1.
     999900   -1    0    0    0    0 -0.00000000000E+00 -0.00000000000E+00 -0.74505805969E-08  0.93827000000E+00  0.93827000000E+00 0.  1.
     999902    2    1    2    0    0 -0.16149881986E-01  0.23524353395E-02  0.16882482161E-01  0.10204487129E+01  0.10201785161E+01 0.  0.
     999903    2    3    3    0    0 -0.36553008815E-01  0.32368836412E-01  0.12248863435E+00  0.13339181996E+00  0.20150634344E-01 0.  0.
         14    1    1    2    0    0  0.16149881986E-01 -0.23524353395E-02 -0.16882482161E-01  0.23481287105E-01  0.00000000000E+00 0.  1.
     999901    1    3    3    0    0  0.20403126829E-01 -0.30016401072E-01 -0.10560615219E+00  0.88705689293E+00  0.88000000000E+00 0.  1.
        -11    1    4    4    0    0 -0.13133067353E-01  0.19883324253E-01  0.78257287920E-01  0.81806407299E-01  0.51100000000E-03 0. -1.
         11    1    4    4    0    0 -0.23419941461E-01  0.12485512159E-01  0.44231346428E-01  0.51585412664E-01  0.51100000000E-03 0.  1.
</event>
<event>
 8    1  0.1126414E+005  0.1043930E+01  0.7957747E-01            NaN
         13   -1    0    0    0    0  0.00000000000E+00  0.00000000000E+00  0.74505805969E-08  0.10566000000E+00  0.10566000000E+00 0.  1.
     999900   -1    0    0    0    0 -0.00000000000E+00 -0.00000000000E+00 -0.74505805969E-08  0.93827000000E+00  0.93827000000E+00 0. -1.
     999902    2    1    2    0    0  0.12939329977E-01 -0.19186833614E-01 -0.36375386294E-02  0.10205036787E+01  0.10202347601E+01 0.  0.
     999903    2    3    3    0    0 -0.12287698936E-01 -0.11786322107E+00  0.56694586403E-01  0.13257721901E+00  0.17880616511E-01 0.  0.
         14    1    1    2    0    0 -0.12939329977E-01  0.19186833614E-01  0.36375386294E-02  0.23426321343E-01  0.00000000000E+00 0. -1.
     999901    1    3    3    0    0  0.25227028914E-01  0.98676387456E-01 -0.60332125032E-01  0.88792645965E+00  0.88000000000E+00 0. -1.
        -11    1    4    4    0    0 -0.16270492367E-01 -0.77145999805E-01  0.34960089982E-01  0.86247917194E-01  0.51100000000E-03 0. -1.
         11    1    4    4    0    0  0.39827934308E-02 -0.40717221266E-01  0.21734496420E-01  0.46329301816E-01  0.51100000000E-03 0.  1.
</event>
<event>
 8    1  0.1126414E+005  0.1043930E+01  0.7957747E-01            NaN
         13   -1    0    0    0    0  0.00000000000E+00  0.00000000000E+00  0.74505805969E-08  0.10566000000E+00  0.10566000000E+00 0. -1.
     999900   -1    0    0    0    0 -0.00000000000E+00 -0.00000000000E+00 -0.74505805969E-08  0.93827000000E+00  0.93827000000E+00 0.  1.
     999902    2    1    2    0    0  0.16462349648E-01 -0.16212169103E-01 -0.33949707428E-02  0.10205768587E+01  0.10203096370E+01 0.  0.
     999903    2    3    3    0    0 -0.12207356957E+00  0.55876558792E-02 -0.35523227252E-01  0.12889324991E+00  0.20454630629E-01 0.  0.
         14    1    1    2    0    0 -0.16462349648E-01  0.16212169103E-01  0.33949707428E-02  0.23353141316E-01  0.00000000000E+00 0. -1.
     999901    1    3    3    0    0  0.13853591921E+00 -0.21799824983E-01  0.32128256509E-01  0.89168360877E+00  0.88000000000E+00 0. -1.
        -11    1    4    4    0    0 -0.10722767280E+00  0.10465108886E-01 -0.26932565643E-01  0.11105366509E+00  0.51100000000E-03 0.  1.
         11    1    4    4    0    0 -0.14845896770E-01 -0.48774530066E-02 -0.85906616091E-02  0.17839584822E-01  0.51100000000E-03 0. -1.
</event>
<event>
 8    1  0.1126414E+005  0.1043930E+01  0.7957747E-01            NaN
         13   -1    0    0    0    0  0.00000000000E+00  0.00000000000E+00  0.74505805969E-08  0.10566000000E+00  0.10566000000E+00 0.  1.
     999900   -1    0    0    0    0 -0.00000000000E+00 -0.00000000000E+00 -0.74505805969E-08  0.93827000000E+00  0.93827000000E+00 0.  1.
     999902    2    1    2    0    0 -0.17276566784E-01 -0.11765824730E-01  0.31145927566E-01  0.10064202253E+01  0.10057209786E+01 0.  0.
     999903    2    3    3    0    0 -0.30944633486E-01  0.11059382835E+00  0.17024086423E-01  0.11773685813E+00  0.19585275909E-01 0.  0.
         14    1    1    2    0    0  0.17276566784E-01  0.11765824730E-01 -0.31145927566E-01  0.37509774664E-01  0.00000000000E+00 0. -1.
     999901    1    3    3    0    0  0.13668066702E-01 -0.12235965308E+00  0.14121841143E-01  0.88868336721E+00  0.88000000000E+00 0.  1.
        -11    1    4    4    0    0  0.23510360938E-02  0.15249534794E-01  0.88639443360E-03  0.15463586202E-01  0.51100000000E-03 0.  1.
         11    1    4    4    0    0 -0.33295669580E-01  0.95344293560E-01  0.16137691989E-01  0.10227327193E+00  0.51100000000E-03 0. -1.
</event>
<event>
 8    1  0.1126414E+005  0.1043930E+01  0.7957747E-01            NaN
         13   -1    0    0    0    0  0.00000000000E+00  0.00000000000E+00  0.74505805969E-08  0.10566000000E+00  0.10566000000E+00 0.  1.
     999900   -1    0    0    0    0 -0.00000000000E+00 -0.00000000000E+00 -0.74505805969E-08  0.93827000000E+00  0.93827000000E+00 0. -1.
     999902    2    1    2    0    0 -0.13154456942E-01  0.18490595189E-01 -0.77492029421E-02  0.10199510093E+01  0.10196690980E+01 0.  0.
     999903    2    3    3    0    0 -0.65907135494E-01  0.24348668838E-01  0.10882213992E+00  0.13067825021E+00  0.17260902536E-01 0.  0.
         14    1    1    2    0    0  0.13154456942E-01 -0.18490595189E-01  0.77492029421E-02  0.23978990682E-01  0.00000000000E+00 0.  1.
     999901    1    3    3    0    0  0.52752678552E-01 -0.58580736490E-02 -0.11657134286E+00  0.88927275911E+00  0.88000000000E+00 0. -1.
        -11    1    4    4    0    0 -0.29657744284E-01  0.45572612321E-02  0.35154525968E-01  0.46221772391E-01  0.51100000000E-03 0.  1.
         11    1    4    4    0    0 -0.36249391210E-01  0.19791407606E-01  0.73667613954E-01  0.84456477815E-01  0.51100000000E-03 0. -1.
</event>
<event>
 8    1  0.1126414E+005  0.1043930E+01  0.7957747E-01            NaN
         13   -1    0    0    0    0  0.00000000000E+00  0.00000000000E+00  0.74505805969E-08  0.10566000000E+00  0.10566000000E+00 0. -1.
     999900   -1    0    0    0    0 -0.00000000000E+00 -0.00000000000E+00 -0.74505805969E-08  0.93827000000E+00  0.93827000000E+00 0. -1.
     999902    2    1    2    0    0 -0.12828340729E-01  0.18581546751E-01 -0.58015214188E-02  0.10206169595E+01  0.10203506653E+01 0.  0.
     999903    2    3    3    0    0  0.82415181870E-01  0.13355011921E-01 -0.98393658827E-01  0.13063271855E+00  0.20321823574E-01 0.  0.
         14    1    1    2    0    0  0.12828340729E-01 -0.18581546751E-01  0.58015214188E-02  0.23313040478E-01  0.00000000000E+00 0. -1.
     999901    1    3    3    0    0 -0.95243522599E-01  0.52265348309E-02  0.92592137408E-01  0.88998424097E+00  0.88000000000E+00 0. -1.
        -11    1    4    4    0    0  0.50914450898E-01  0.18145142961E-01 -0.61074448061E-01  0.81559039047E-01  0.51100000000E-03 0.  1.
         11    1    4    4    0    0  0.31500730972E-01 -0.47901310402E-02 -0.37319210765E-01  0.49073679506E-01  0.51100000000E-03 0. -1.
</event>
<event>
 8    1  0.1126414E+005  0.1043930E+01  0.7957747E-01            NaN
         13   -1    0    0    0    0  0.00000000000E+00  0.00000000000E+00  0.74505805969E-08  0.10566000000E+00  0.10566000000E+00 0. -1.
     999900   -1    0    0    0    0 -0.00000000000E+00 -0.00000000000E+00 -0.74505805969E-08  0.93827000000E+00  0.93827000000E+00 0.  1.
     999902    2    1    2    0    0  0.94349077421E-02  0.18448499008E-01 -0.11756015584E-01  0.10201063038E+01  0.10198280750E+01 0.  0.
     999903    2    3    3    0    0  0.47040950677E-02  0.88759850954E-01  0.93779866446E-01  0.13100344740E+00  0.21605560137E-01 0.  0.
         14    1    1    2    0    0 -0.94349077421E-02 -0.18448499008E-01  0.11756015584E-01  0.23823696233E-01  0.00000000000E+00 0. -1.
     999901    1    3    3    0    0  0.47308126744E-02 -0.70311351946E-01 -0.10553588203E+00  0.88910285637E+00  0.88000000000E+00 0.  1.
        -11    1    4    4    0    0  0.61885450945E-02  0.80271489459E-01  0.73714345483E-01  0.10915986424E+00  0.51100000000E-03 0.  1.
         11    1    4    4    0    0 -0.14844500269E-02  0.84883614952E-02  0.20065520963E-01  0.21843583160E-01  0.51100000000E-03 0. -1.
</event>
<event>
 8    1  0.1126414E+005  0.1043930E+01  0.7957747E-01            NaN
         13   -1    0    0    0    0  0.00000000000E+00  0.00000000000E+00  0.74505805969E-08  0.10566000000E+00  0.10566000000E+00 0.  1.
     999900   -1    0    0    0    0 -0.00000000000E+00 -0.00000000000E+00 -0.74505805969E-08  0.93827000000E+00  0.93827000000E+00 0.  1.
     999902    2    1    2    0    0 -0.90719089468E-02 -0.21451717967E-01  0.26425169206E-02  0.10204894661E+01  0.10202202173E+01 0.  0.
     999903    2    3    3    0    0  0.24703226979E-01 -0.25819217632E-01  0.12469725297E+00  0.13141287012E+00  0.21048898147E-01 0.  0.
         14    1    1    2    0    0  0.90719089468E-02  0.21451717967E-01 -0.26425169206E-02  0.23440533939E-01  0.00000000000E+00 0.  1.
     999901    1    3    3    0    0 -0.33775135926E-01  0.43674996650E-02 -0.12205473605E+00  0.88907659594E+00  0.88000000000E+00 0.  1.
        -11    1    4    4    0    0  0.14575284299E-01 -0.12842108900E-02  0.51914051354E-01  0.53939020745E-01  0.51100000000E-03 0. -1.
         11    1    4    4    0    0  0.10127942679E-01 -0.24535006742E-01  0.72783201613E-01  0.77473849374E-01  0.51100000000E-03 0.  1.
</event>
<event>
 8    1  0.1126414E+005  0.1043930E+01  0.7957747E-01            NaN
         13   -1    0    0    0    0  0.00000000000E+00  0.00000000000E+00  0.74505805969E-08  0.10566000000E+00  0.10566000000E+00 0. -1.
     999900   -1    0    0    0    0 -0.00000000000E+00 -0.00000000000E+00 -0.74505805969E-08  0.93827000000E+00  0.93827000000E+00 0. -1.
     999902    2    1    2    0    0 -0.99151749702E-02 -0.11758895799E-01  0.84658041111E-02  0.10263728885E+01  0.10262227117E+01 0.  0.
     999903    2    3    3    0    0  0.69090559511E-01 -0.89046941160E-01  0.75213072253E-01  0.13695142156E+00  0.19895288064E-01 0.  0.
         14    1    1    2    0    0  0.99151749702E-02  0.11758895799E-01 -0.84658041111E-02  0.17557111504E-01  0.00000000000E+00 0.  1.
     999901    1    3    3    0    0 -0.79005734481E-01  0.77288045360E-01 -0.66747268142E-01  0.88942146693E+00  0.88000000000E+00 0. -1.
        -11    1    4    4    0    0 -0.13026200946E-02 -0.20837178216E-02  0.10577328004E-02  0.27237141458E-02  0.51100000000E-03 0. -1.
         11    1    4    4    0    0  0.70393179605E-01 -0.86963223338E-01  0.74155339452E-01  0.13422770742E+00  0.51100000000E-03 0.  1.
</event>
<event>
 8    1  0.1126414E+005  0.1043930E+01  0.7957747E-01            NaN
         13   -1    0    0    0    0  0.00000000000E+00  0.00000000000E+00  0.74505805969E-08  0.10566000000E+00  0.10566000000E+00 0.  1.
     999900   -1    0    0    0    0 -0.00000000000E+00 -0.00000000000E+00 -0.74505805969E-08  0.93827000000E+00  0.93827000000E+00 0.  1.
     999902    2    1    2    0    0 -0.16135874341E-01  0.16970822472E-01  0.27350745908E-02  0.10203534038E+01  0.10200809834E+01 0.  0.
     999903    2    3    3    0    0 -0.30965951614E-02 -0.21801456616E-01  0.12724313484E+00  0.13064807645E+00  0.19829576439E-01 0.  0.
         14    1    1    2    0    0  0.16135874341E-01 -0.16970822472E-01 -0.27350745908E-02  0.23576596216E-01  0.00000000000E+00 0. -1.
     999901    1    3    3    0    0 -0.13039279179E-01  0.38772279088E-01 -0.12450806025E+00  0.88970532734E+00  0.88000000000E+00 0.  1.
        -11    1    4    4    0    0  0.32600492447E-02 -0.17095212274E-01  0.48938429252E-01  0.51943288137E-01  0.51100000000E-03 0. -1.
         11    1    4    4    0    0 -0.63566444061E-02 -0.47062443422E-02  0.78304705591E-01  0.78704788308E-01  0.51100000000E-03 0.  1.
</event>
<event>
 8    1  0.1126414E+005  0.1043930E+01  0.7957747E-01            NaN
         13   -1    0    0    0    0  0.00000000000E+00  0.00000000000E+00  0.74505805969E-08  0.10566000000E+00  0.10566000000E+00 0.  1.
     999900   -1    0    0    0    0 -0.00000000000E+00 -0.00000000000E+00 -0.74505805969E-08  0.93827000000E+00  0.93827000000E+00 0. -1.
     999902    2    1    2    0    0 -0.20985475368E-01 -0.14263160061E-01 -0.46095811823E-02  0.10181409296E+01  0.10178142642E+01 0.  0.
     999903    2    3    3    0    0  0.66635988185E-01 -0.47158053282E-01  0.95845055246E-01  0.12749468738E+00  0.20109295961E-01 0.  0.
         14    1    1    2    0    0  0.20985475368E-01  0.14263160061E-01  0.46095811823E-02  0.25789070359E-01  0.00000000000E+00 0.  1.
     999901    1    3    3    0    0 -0.87621463552E-01  0.32894893221E-01 -0.10045463643E+00  0.89064624226E+00  0.88000000000E+00 0. -1.
        -11    1    4    4    0    0  0.43567092326E-01 -0.30691937888E-01  0.76269846632E-01  0.93045350294E-01  0.51100000000E-03 0.  1.
         11    1    4    4    0    0  0.23068895859E-01 -0.16466115393E-01  0.19575208614E-01  0.34449337084E-01  0.51100000000E-03 0. -1.
</event>
<event>
 8    1  0.1384298E+005  0.1043930E+01  0.7957747E-01            NaN
         13   -1    0    0    0    0  0.00000000000E+00  0.00000000000E+00  0.74505805969E-08  0.10566000000E+00  0.10566000000E+00 0.  1.
     999900   -1    0    0    0    0 -0.00000000000E+00 -0.00000000000E+00 -0.74505805969E-08  0.93827000000E+00  0.93827000000E+00 0. -1.
     999902    2    1    2    0    0 -0.22972494720E-01 -0.51419511891E-02  0.81768154408E-02  0.10190094164E+01  0.10187046457E+01 0.  0.
     999903    2    3    3    0    0 -0.70240858553E-01  0.43021719718E-03  0.10982114717E+00  0.13188094913E+00  0.19948360394E-01 0.  0.
         14    1    1    2    0    0  0.22972494720E-01  0.51419511891E-02 -0.81768154408E-02  0.24920583590E-01  0.00000000000E+00 0.  1.
     999901    1    3    3    0    0  0.47268363833E-01 -0.55721683863E-02 -0.10164433173E+00  0.88712846728E+00  0.88000000000E+00 0. -1.
        -11    1    4    4    0    0 -0.18362417227E-01 -0.57283332724E-02  0.42601665427E-01  0.46745643504E-01  0.51100000000E-03 0.  1.
         11    1    4    4    0    0 -0.51878441326E-01  0.61585504695E-02  0.67219481740E-01  0.85135305630E-01  0.51100000000E-03 0. -1.
</event>
<event>
 8    1  0.1126414E+005  0.1043930E+01  0.7957747E-01            NaN
         13   -1    0    0    0    0  0.00000000000E+00  0.00000000000E+00  0.74505805969E-08  0.10566000000E+00  0.10566000000E+00 0.  1.
     999900   -1    0    0    0    0 -0.00000000000E+00 -0.00000000000E+00 -0.74505805969E-08  0.93827000000E+00  0.93827000000E+00 0.  1.
     999902    2    1    2    0    0 -0.21642052611E-01  0.76040949485E-02 -0.69829533898E-02  0.10199516277E+01  0.10196697311E+01 0.  0.
     999903    2    3    3    0    0  0.55174072428E-01 -0.82393763647E-01 -0.80178923528E-01  0.12902066421E+00  0.19615337349E-01 0.  0.
         14    1    1    2    0    0  0.21642052611E-01 -0.76040949485E-02  0.69829533898E-02  0.23978372323E-01  0.00000000000E+00 0. -1.
     999901    1    3    3    0    0 -0.76816125039E-01  0.89997858596E-01  0.73195970138E-01  0.89093096347E+00  0.88000000000E+00 0.  1.
        -11    1    4    4    0    0  0.22894501872E-01 -0.43280418120E-01 -0.50107809010E-01  0.70060020364E-01  0.51100000000E-03 0. -1.
         11    1    4    4    0    0  0.32279570555E-01 -0.39113345527E-01 -0.30071114517E-01  0.58960643847E-01  0.51100000000E-03 0.  1.
</event>
<event>
 8    1  0.1126414E+005  0.1043930E+01  0.7957747E-01            NaN
         13   -1    0    0    0    0  0.00000000000E+00  0.00000000000E+00  0.74505805969E-08  0.10566000000E+00  0.10566000000E+00 0.  1.
     999900   -1    0    0    0    0 -0.00000000000E+00 -0.00000000000E+00 -0.74505805969E-08  0.93827000000E+00  0.93827000000E+00 0. -1.
     999902    2    1    2    0    0 -0.70364692513E-02  0.44045729018E-02 -0.21419614032E-01  0.10209580165E+01  0.10206995441E+01 0.  0.
     999903    2    3    3    0    0  0.73181486228E-01  0.10695379166E+00 -0.12220062672E-02  0.13114949437E+00  0.20101072028E-01 0.  0.
         14    1    1    2    0    0  0.70364692513E-02 -0.44045729018E-02  0.21419614032E-01  0.22971983529E-01  0.00000000000E+00 0.  1.
     999901    1    3    3    0    0 -0.80217955480E-01 -0.10254921876E+00 -0.20197607765E-01  0.88980852210E+00  0.88000000000E+00 0. -1.
        -11    1    4    4    0    0  0.14765876911E-01  0.22459224150E-01 -0.84302919625E-02  0.28174080534E-01  0.51100000000E-03 0. -1.
         11    1    4    4    0    0  0.58415609317E-01  0.84494567509E-01  0.72082856953E-02  0.10297541383E+00  0.51100000000E-03 0.  1.
</event>
<event>
 8    1  0.1126414E+005  0.1043930E+01  0.7957747E-01            NaN
         13   -1    0    0    0    0  0.00000000000E+00  0.00000000000E+00  0.74505805969E-08  0.10566000000E+00  0.10566000000E+00 0.  1.
     999900   -1    0    0    0    0 -0.00000000000E+00 -0.00000000000E+00 -0.74505805969E-08  0.93827000000E+00  0.93827000000E+00 0.  1.
     999902    2    1    2    0    0  0.25307552490E-01  0.69510931395E-02  0.67789865899E-02  0.10168238279E+01  0.10164624697E+01 0.  0.
     999903    2    3    3    0    0 -0.47670963381E-01 -0.99594273336E-01 -0.55523361309E-01  0.12521889211E+00  0.20134231041E-01 0.  0.
         14    1    1    2    0    0 -0.25307552490E-01 -0.69510931395E-02 -0.67789865899E-02  0.27106172140E-01  0.00000000000E+00 0. -1.
     999901    1    3    3    0    0  0.72978515872E-01  0.10654536648E+00  0.62302347899E-01  0.89160493575E+00  0.88000000000E+00 0. -1.
        -11    1    4    4    0    0 -0.29403237023E-01 -0.46572928936E-01 -0.36153610018E-01  0.65885754875E-01  0.51100000000E-03 0.  1.
         11    1    4    4    0    0 -0.18267726358E-01 -0.53021344401E-01 -0.19369751291E-01  0.59333137238E-01  0.51100000000E-03 0. -1.
</event>
<event>
 8    1  0.1126414E+005  0.1043930E+01  0.7957747E-01            NaN
         13   -1    0    0    0    0  0.00000000000E+00  0.00000000000E+00  0.74505805969E-08  0.10566000000E+00  0.10566000000E+00 0. -1.
     999900   -1    0    0    0    0 -0.00000000000E+00 -0.00000000000E+00 -0.74505805969E-08  0.93827000000E+00  0.93827000000E+00 0. -1.
     999902    2    1    2    0    0 -0.17205313513E-01  0.11724059352E-01 -0.74736498646E-02  0.10218091541E+01  0.10215696822E+01 0.  0.
     999903    2    3    3    0    0 -0.34048512703E-01 -0.10006527973E+00  0.74462531764E-01  0.13080180983E+00  0.19801095774E-01 0.  0.
         14    1    1    2    0    0  0.17205313513E-01 -0.11724059352E-01  0.74736498646E-02  0.22120845894E-01  0.00000000000E+00 0. -1.
     999901    1    3    3    0    0  0.16843199190E-01  0.11178933908E+00 -0.81936181629E-01  0.89100734427E+00  0.88000000000E+00 0. -1.
        -11    1    4    4    0    0 -0.26544711946E-01 -0.56873030699E-01  0.52179360619E-01  0.81621750464E-01  0.51100000000E-03 0. -1.
         11    1    4    4    0    0 -0.75038007570E-02 -0.43192249031E-01  0.22283171145E-01  0.49180059368E-01  0.51100000000E-03 0.  1.
</event>
<event>
 8    1  0.1126414E+005  0.1043930E+01  0.7957747E-01            NaN
         13   -1    0    0    0    0  0.00000000000E+00  0.00000000000E+00  0.74505805969E-08  0.10566000000E+00  0.10566000000E+00 0.  1.
     999900   -1    0    0    0    0 -0.00000000000E+00 -0.00000000000E+00 -0.74505805969E-08  0.93827000000E+00  0.93827000000E+00 0. -1.
     999902    2    1    2    0    0  0.64273603050E-02  0.21034781350E-01  0.96830208381E-02  0.10198980654E+01  0.10196148930E+01 0.  0.
     999903    2    3    3    0    0 -0.73566986208E-01  0.29657837874E-01  0.10249844775E+00  0.13136660506E+00  0.21437451539E-01 0.  0.
         14    1    1    2    0    0 -0.64273603050E-02 -0.21034781350E-01 -0.96830208381E-02  0.24031934576E-01  0.00000000000E+00 0.  1.
     999901    1    3    3    0    0  0.79994346513E-01 -0.86230565238E-02 -0.92815426908E-01  0.88853146036E+00  0.88000000000E+00 0. -1.
        -11    1    4    4    0    0 -0.49742853925E-01  0.96028843615E-02  0.57433546404E-01  0.76586162446E-01  0.51100000000E-03 0. -1.
         11    1    4    4    0    0 -0.23824132283E-01  0.20054953512E-01  0.45064901342E-01  0.54780442617E-01  0.51100000000E-03 0.  1.
</event>
<event>
 8    1  0.1126414E+005  0.1043930E+01  0.7957747E-01            NaN
         13   -1    0    0    0    0  0.00000000000E+00  0.00000000000E+00  0.74505805969E-08  0.10566000000E+00  0.10566000000E+00 0. -1.
     999900   -1    0    0    0    0 -0.00000000000E+00 -0.00000000000E+00 -0.74505805969E-08  0.93827000000E+00  0.93827000000E+00 0. -1.
     999902    2    1    2    0    0  0.22678100427E-02  0.14588454879E-01 -0.19640614461E-01  0.10193592915E+01  0.10190631215E+01 0.  0.
     999903    2    3    3    0    0  0.11139666745E+00  0.64016208917E-01 -0.18570814854E-01  0.13124141937E+00  0.19290994574E-01 0.  0.
         14    1    1    2    0    0 -0.22678100427E-02 -0.14588454879E-01  0.19640614461E-01  0.24570708466E-01  0.00000000000E+00 0. -1.
     999901    1    3    3    0    0 -0.10912885740E+00 -0.49427754038E-01 -0.10697996062E-02  0.88811787216E+00  0.88000000000E+00 0.  1.
        -11    1    4    4    0    0  0.86113535794E-01  0.50854175063E-01 -0.22369398288E-01  0.10248092149E+00  0.51100000000E-03 0.  1.
         11    1    4    4    0    0  0.25283131651E-01  0.13162033854E-01  0.37985834332E-02  0.28760497881E-01  0.51100000000E-03 0. -1.
</event>
<event>
 8    1  0.1126414E+005  0.1043930E+01  0.7957747E-01            NaN
         13   -1    0    0    0    0  0.00000000000E+00  0.00000000000E+00  0.74505805969E-08  0.10566000000E+00  0.10566000000E+00 0. -1.
     999900   -1    0    0    0    0 -0.00000000000E+00 -0.00000000000E+00 -0.74505805969E-08  0.93827000000E+00  0.93827000000E+00 0. -1.
     999902    2    1    2    0    0  0.87006858296E-02 -0.22537119758E-01 -0.60813600688E-03  0.10197640419E+01  0.10194776641E+01 0.  0.
     999903    2    3    3    0    0 -0.28040688069E-01  0.90773581532E-01 -0.82502076173E-01  0.12797042172E+00  0.23317653624E-01 0.  0.
         14    1    1    2    0    0 -0.87006858296E-02  0.22537119758E-01  0.60813600688E-03  0.24165958087E-01  0.00000000000E+00 0. -1.
     999901    1    3    3    0    0  0.36741373899E-01 -0.11331070129E+00  0.81893940166E-01  0.89179362019E+00  0.88000000000E+00 0.  1.
        -11    1    4    4    0    0 -0.10359930939E-01  0.67611553846E-01 -0.62184452942E-01  0.92443591942E-01  0.51100000000E-03 0. -1.
         11    1    4    4    0    0 -0.17680757130E-01  0.23162027686E-01 -0.20317623231E-01  0.35526829776E-01  0.51100000000E-03 0.  1.
</event>
<event>
 8    1  0.1126414E+005  0.1043930E+01  0.7957747E-01            NaN
         13   -1    0    0    0    0  0.00000000000E+00  0.00000000000E+00  0.74505805969E-08  0.10566000000E+00  0.10566000000E+00 0. -1.
     999900   -1    0    0    0    0 -0.00000000000E+00 -0.00000000000E+00 -0.74505805969E-08  0.93827000000E+00  0.93827000000E+00 0. -1.
     999902    2    1    2    0    0 -0.17337229777E-01  0.15476048245E-01 -0.10538227330E-02  0.10206663342E+01  0.10204011797E+01 0.  0.
     999903    2    3    3    0    0  0.11035851752E+00  0.31707057222E-01  0.56415809903E-01  0.12944671578E+00  0.19732428909E-01 0.  0.
         14    1    1    2    0    0  0.17337229777E-01 -0.15476048245E-01  0.10538227330E-02  0.23263665833E-01  0.00000000000E+00 0.  1.
     999901    1    3    3    0    0 -0.12769574730E+00 -0.16231008978E-01 -0.57469632636E-01  0.89121961839E+00  0.88000000000E+00 0. -1.
        -11    1    4    4    0    0  0.80266615092E-01  0.13902665186E-01  0.37333676947E-01  0.89610703339E-01  0.51100000000E-03 0. -1.
         11    1    4    4    0    0  0.30091902430E-01  0.17804392036E-01  0.19082132957E-01  0.39836012436E-01  0.51100000000E-03 0.  1.
</event>
<event>
 8    1  0.1126414E+005  0.1043930E+01  0.7957747E-01            NaN
         13   -1    0    0    0    0  0.00000000000E+00  0.00000000000E+00  0.74505805969E-08  0.10566000000E+00  0.10566000000E+00 0. -1.
     999900   -1    0    0    0    0 -0.00000000000E+00 -0.00000000000E+00 -0.74505805969E-08  0.93827000000E+00  0.93827000000E+00 0. -1.
     999902    2    1    2    0    0  0.75645532426E-02 -0.12387529807E-01 -0.18650540713E-01  0.10202970563E+01  0.10200233169E+01 0.  0.
     999903    2    3    3    0    0 -0.93131157353E-01  0.45989762042E-01  0.72281095680E-01  0.12798763862E+00  0.19178325350E-01 0.  0.
         14    1    1    2    0    0 -0.75645532426E-02  0.12387529807E-01  0.18650540713E-01  0.23632943730E-01  0.00000000000E+00 0. -1.
     999901    1    3    3    0    0  0.10069571060E+00 -0.58377291848E-01 -0.90931636394E-01  0.89230941765E+00  0.88000000000E+00 0. -1.
        -11    1    4    4    0    0 -0.63228193897E-01  0.21756328142E-01  0.41488462054E-01  0.78693684133E-01  0.51100000000E-03 0.  1.
         11    1    4    4    0    0 -0.29902963455E-01  0.24233433899E-01  0.30792633626E-01  0.49293954483E-01  0.51100000000E-03 0. -1.
</event>
<event>
 8    1  0.1126414E+005  0.1043930E+01  0.7957747E-01            NaN
         13   -1    0    0    0    0  0.00000000000E+00  0.00000000000E+00  0.74505805969E-08  0.10566000000E+00  0.10566000000E+00 0. -1.
     999900   -1    0    0    0    0 -0.00000000000E+00 -0.00000000000E+00 -0.74505805969E-08  0.93827000000E+00  0.93827000000E+00 0. -1.
     999902    2    1    2    0    0 -0.16253541990E-01  0.16014355342E-01 -0.56520027022E-02  0.10204229300E+01  0.10201521327E+01 0.  0.
     999903    2    3    3    0    0 -0.24357071709E-01 -0.79374136619E-01 -0.99391108713E-01  0.13028156396E+00  0.14183543612E-01 0.  0.
         14    1    1    2    0    0  0.16253541990E-01 -0.16014355342E-01  0.56520027022E-02  0.23507069975E-01  0.00000000000E+00 0.  1.
     999901    1    3    3    0    0  0.81035297193E-02  0.95388491961E-01  0.93739106011E-01  0.89014136607E+00  0.88000000000E+00 0.  1.
        -11    1    4    4    0    0 -0.28369550074E-02 -0.29574807840E-01 -0.40178413392E-01  0.49972828579E-01  0.51100000000E-03 0.  1.
         11    1    4    4    0    0 -0.21520116702E-01 -0.49799328779E-01 -0.59212695321E-01  0.80308735377E-01  0.51100000000E-03 0. -1.
</event>
<event>
 8    1  0.1126414E+005  0.1043930E+01  0.7957747E-01            NaN
         13   -1    0    0    0    0  0.00000000000E+00  0.00000000000E+00  0.74505805969E-08  0.10566000000E+00  0.10566000000E+00 0. -1.
     999900   -1    0    0    0    0 -0.00000000000E+00 -0.00000000000E+00 -0.74505805969E-08  0.93827000000E+00  0.93827000000E+00 0.  1.
     999902    2    1    2    0    0 -0.20548667674E-01  0.88103387226E-02 -0.82522252700E-02  0.10200978991E+01  0.10198194716E+01 0.  0.
     999903    2    3    3    0    0  0.32395095671E-01 -0.73740679162E-01  0.97871143121E-01  0.12831323790E+00  0.19959869161E-01 0.  0.
         14    1    1    2    0    0  0.20548667674E-01 -0.88103387226E-02  0.82522252700E-02  0.23832100904E-01  0.00000000000E+00 0. -1.
     999901    1    3    3    0    0 -0.52943763346E-01  0.82551017884E-01 -0.10612336839E+00  0.89178466120E+00  0.88000000000E+00 0.  1.
        -11    1    4    4    0    0  0.32644781425E-01 -0.55320323709E-01  0.71199377082E-01  0.95893860009E-01  0.51100000000E-03 0. -1.
         11    1    4    4    0    0 -0.24968575389E-03 -0.18420355453E-01  0.26671766039E-01  0.32419377888E-01  0.51100000000E-03 0.  1.
</event>
<event>
 8    1  0.1126414E+005  0.1043930E+01  0.7957747E-01            NaN
         13   -1    0    0    0    0  0.00000000000E+00  0.00000000000E+00  0.74505805969E-08  0.10566000000E+00  0.10566000000E+00 0.  1.
     999900   -1    0    0    0    0 -0.00000000000E+00 -0.00000000000E+00 -0.74505805969E-08  0.93827000000E+00  0.93827000000E+00 0. -1.
     999902    2    1    2    0    0 -0.10697693331E-01  0.16189261501E-01  0.13786498845E-01  0.10201266309E+01  0.10198488823E+01 0.  0.
     999903    2    3    3    0    0 -0.54240778603E-01  0.45878865913E-01 -0.10747386046E+00  0.13024936541E+00  0.19165962179E-01 0.  0.
         14    1    1    2    0    0  0.10697693331E-01 -0.16189261501E-01 -0.13786498845E-01  0.23803369109E-01  0.00000000000E+00 0. -1.
     999901    1    3    3    0    0  0.43543085271E-01 -0.29689604412E-01  0.12126035930E+00  0.88987726548E+00  0.88000000000E+00 0.  1.
        -11    1    4    4    0    0 -0.12165128191E-01  0.64116177345E-02 -0.35061070121E-01  0.37664823707E-01  0.51100000000E-03 0.  1.
         11    1    4    4    0    0 -0.42075650411E-01  0.39467248178E-01 -0.72412790338E-01  0.92584541701E-01  0.51100000000E-03 0. -1.
</event>
<event>
 8    1  0.1126414E+005  0.1043930E+01  0.7957747E-01            NaN
         13   -1    0    0    0    0  0.00000000000E+00  0.00000000000E+00  0.74505805969E-08  0.10566000000E+00  0.10566000000E+00 0. -1.
     999900   -1    0    0    0    0 -0.00000000000E+00 -0.00000000000E+00 -0.74505805969E-08  0.93827000000E+00  0.93827000000E+00 0. -1.
     999902    2    1    2    0    0 -0.21291470397E-01  0.73510483148E-02  0.73981411078E-02  0.10202214126E+01  0.10199458974E+01 0.  0.
     999903    2    3    3    0    0 -0.15439542175E-02  0.12990997989E+00  0.28702617426E-02  0.13149695714E+00  0.20105339184E-01 0.  0.
         14    1    1    2    0    0  0.21291470397E-01 -0.73510483148E-02 -0.73981411078E-02  0.23708587365E-01  0.00000000000E+00 0.  1.
     999901    1    3    3    0    0 -0.19747516179E-01 -0.12255893158E+00  0.45278793652E-02  0.88872445550E+00  0.88000000000E+00 0. -1.
        -11    1    4    4    0    0  0.96261056488E-03  0.99342508221E-01 -0.61068469516E-02  0.99535999816E-01  0.51100000000E-03 0. -1.
         11    1    4    4    0    0 -0.25065647823E-02  0.30567471673E-01  0.89771086941E-02  0.31960957323E-01  0.51100000000E-03 0.  1.
</event>
<event>
 8    1  0.1126414E+005  0.1043930E+01  0.7957747E-01            NaN
         13   -1    0    0    0    0  0.00000000000E+00  0.00000000000E+00  0.74505805969E-08  0.10566000000E+00  0.10566000000E+00 0. -1.
     999900   -1    0    0    0    0 -0.00000000000E+00 -0.00000000000E+00 -0.74505805969E-08  0.93827000000E+00  0.93827000000E+00 0. -1.
     999902    2    1    2    0    0  0.22369934299E-01  0.64054289712E-02  0.52953117889E-02  0.10200661401E+01  0.10197869613E+01 0.  0.
     999903    2    3    3    0    0  0.11910034561E+00 -0.42653216662E-01 -0.33899294438E-01  0.13254163887E+00  0.20345384136E-01 0.  0.
         14    1    1    2    0    0 -0.22369934299E-01 -0.64054289712E-02 -0.52953117889E-02  0.23863859867E-01  0.00000000000E+00 0. -1.
     999901    1    3    3    0    0 -0.96730411309E-01  0.49058645633E-01  0.39194606227E-01  0.88752450126E+00  0.88000000000E+00 0.  1.
        -11    1    4    4    0    0  0.94920106211E-01 -0.33127800851E-01 -0.18186930775E-01  0.10216801517E+00  0.51100000000E-03 0.  1.
         11    1    4    4    0    0  0.24180239397E-01 -0.95254158102E-02 -0.15712363663E-01  0.30373623698E-01  0.51100000000E-03 0. -1.
</event>
<event>
 8    1  0.1126414E+005  0.1043930E+01  0.7957747E-01            NaN
         13   -1    0    0    0    0  0.00000000000E+00  0.00000000000E+00  0.74505805969E-08  0.10566000000E+00  0.10566000000E+00 0.  1.
     999900   -1    0    0    0    0 -0.00000000000E+00 -0.00000000000E+00 -0.74505805969E-08  0.93827000000E+00  0.93827000000E+00 0.  1.
     999902    2    1    2    0    0  0.75519613256E-02 -0.34762654980E-02 -0.21964499094E-01  0.10204447757E+01  0.10201744872E+01 0.  0.
     999903    2    3    3    0    0  0.39557650050E-01 -0.10051525370E+00  0.69239069251E-01  0.12985001921E+00  0.19971351368E-01 0.  0.
         14    1    1    2    0    0 -0.75519613256E-02  0.34762654980E-02  0.21964499094E-01  0.23485224337E-01  0.00000000000E+00 0.  1.
     999901    1    3    3    0    0 -0.32005688724E-01  0.97038988197E-01 -0.91203568346E-01  0.89059475645E+00  0.88000000000E+00 0.  1.
        -11    1    4    4    0    0  0.99017469557E-02 -0.52232515970E-01  0.34732128614E-01  0.63504820261E-01  0.51100000000E-03 0. -1.
         11    1    4    4    0    0  0.29655903094E-01 -0.48282737725E-01  0.34506940637E-01  0.66345198950E-01  0.51100000000E-03 0.  1.
</event>
<event>
 8    1  0.1126414E+005  0.1043930E+01  0.7957747E-01            NaN
         13   -1    0    0    0    0  0.00000000000E+00  0.00000000000E+00  0.74505805969E-08  0.10566000000E+00  0.10566000000E+00 0. -1.
     999900   -1    0    0    0    0 -0.00000000000E+00 -0.00000000000E+00 -0.74505805969E-08  0.93827000000E+00  0.93827000000E+00 0. -1.
     999902    2    1    2    0    0 -0.13857090456E-02  0.77574361997E-02 -0.20730842885E-01  0.10217519511E+01  0.10215112255E+01 0.  0.
     999903    2    3    3    0    0  0.66228214679E-01 -0.34769028466E-01 -0.10910384122E+00  0.13372609016E+00  0.19594827369E-01 0.  0.
         14    1    1    2    0    0  0.13857090456E-02 -0.77574361997E-02  0.20730842885E-01  0.22178048892E-01  0.00000000000E+00 0. -1.
     999901    1    3    3    0    0 -0.67613923724E-01  0.42526464665E-01  0.88372998338E-01  0.88802586095E+00  0.88000000000E+00 0.  1.
        -11    1    4    4    0    0  0.41768019080E-01 -0.15998244996E-01 -0.50187388293E-01  0.67227571171E-01  0.51100000000E-03 0. -1.
         11    1    4    4    0    0  0.24460195599E-01 -0.18770783469E-01 -0.58916452930E-01  0.66498518988E-01  0.51100000000E-03 0.  1.
</event>
<event>
 8    1  0.1126414E+005  0.1043930E+01  0.7957747E-01            NaN
         13   -1    0    0    0    0  0.00000000000E+00  0.00000000000E+00  0.74505805969E-08  0.10566000000E+00  0.10566000000E+00 0. -1.
     999900   -1    0    0    0    0 -0.00000000000E+00 -0.00000000000E+00 -0.74505805969E-08  0.93827000000E+00  0.93827000000E+00 0.  1.
     999902    2    1    2    0    0 -0.21004462855E-01 -0.69605935010E-02 -0.11859482277E-01  0.10188245296E+01  0.10185151632E+01 0.  0.
     999903    2    3    3    0    0  0.12267915466E+00  0.23448422168E-01  0.35116403678E-02  0.12652079123E+00  0.19879021769E-01 0.  0.
         14    1    1    2    0    0  0.21004462855E-01  0.69605935010E-02  0.11859482277E-01  0.25105470352E-01  0.00000000000E+00 0. -1.
     999901    1    3    3    0    0 -0.14368361751E+00 -0.30409015669E-01 -0.15371122645E-01  0.89230373841E+00  0.88000000000E+00 0.  1.
        -11    1    4    4    0    0  0.10874632627E+00  0.16250307271E-01  0.78693506288E-02  0.11023621802E+00  0.51100000000E-03 0.  1.
         11    1    4    4    0    0  0.13932828393E-01  0.71981148970E-02 -0.43577102611E-02  0.16284573216E-01  0.51100000000E-03 0. -1.
</event>
<event>
 8    1  0.1126414E+005  0.1043930E+01  0.7957747E-01            NaN
         13   -1    0    0    0    0  0.00000000000E+00  0.00000000000E+00  0.74505805969E-08  0.10566000000E+00  0.10566000000E+00 0.  1.
     999900   -1    0    0    0    0 -0.00000000000E+00 -0.00000000000E+00 -0.74505805969E-08  0.93827000000E+00  0.93827000000E+00 0.  1.
     999902    2    1    2    0    0 -0.15242220000E-01 -0.10866939960E-01 -0.13196189717E-01  0.10210268326E+01  0.10207699240E+01 0.  0.
     999903    2    3    3    0    0  0.58359783741E-01  0.54618287633E-01  0.98582690940E-01  0.12850227373E+00  0.20131212079E-01 0.  0.
         14    1    1    2    0    0  0.15242220000E-01  0.10866939960E-01  0.13196189717E-01  0.22903167416E-01  0.00000000000E+00 0.  1.
     999901    1    3    3    0    0 -0.73602003742E-01 -0.65485227593E-01 -0.11177888066E+00  0.89252455885E+00  0.88000000000E+00 0.  1.
        -11    1    4    4    0    0  0.53571708697E-01  0.44521604458E-01  0.92417501990E-01  0.11572967222E+00  0.51100000000E-03 0.  1.
         11    1    4    4    0    0  0.47880750442E-02  0.10096683174E-01  0.61651889496E-02  0.12772601518E-01  0.51100000000E-03 0. -1.
</event>
<event>
 8    1  0.1126414E+005  0.1043930E+01  0.7957747E-01            NaN
         13   -1    0    0    0    0  0.00000000000E+00  0.00000000000E+00  0.74505805969E-08  0.10566000000E+00  0.10566000000E+00 0.  1.
     999900   -1    0    0    0    0 -0.00000000000E+00 -0.00000000000E+00 -0.74505805969E-08  0.93827000000E+00  0.93827000000E+00 0.  1.
     999902    2    1    2    0    0  0.88621098113E-02 -0.21925531750E-01  0.31024748757E-02  0.10200785580E+01  0.10197996731E+01 0.  0.
     999903    2    3    3    0    0  0.12736342089E+00 -0.28437614688E-01  0.41479522210E-02  0.13211118197E+00  0.20149937559E-01 0.  0.
         14    1    1    2    0    0 -0.88621098113E-02  0.21925531750E-01 -0.31024748757E-02  0.23851441952E-01  0.00000000000E+00 0.  1.
     999901    1    3    3    0    0 -0.11850131108E+00  0.65120829378E-02 -0.10454773453E-02  0.88796737608E+00  0.88000000000E+00 0. -1.
        -11    1    4    4    0    0  0.81545810430E-01 -0.27655785367E-01  0.52681098958E-02  0.86270364354E-01  0.51100000000E-03 0.  1.
         11    1    4    4    0    0  0.45817610464E-01 -0.78182932134E-03 -0.11201576748E-02  0.45840817618E-01  0.51100000000E-03 0. -1.
</event>
<event>
 8    1  0.1126414E+005  0.1043930E+01  0.7957747E-01            NaN
         13   -1    0    0    0    0  0.00000000000E+00  0.00000000000E+00  0.74505805969E-08  0.10566000000E+00  0.10566000000E+00 0.  1.
     999900   -1    0    0    0    0 -0.00000000000E+00 -0.00000000000E+00 -0.74505805969E-08  0.93827000000E+00  0.93827000000E+00 0.  1.
     999902    2    1    2    0    0  0.20153825317E-01  0.87723677122E-02 -0.13998329739E-01  0.10178707532E+01  0.10175371177E+01 0.  0.
     999903    2    3    3    0    0  0.10918887655E-01  0.80393348646E-01  0.96834325301E-01  0.12798383540E+00  0.20510069555E-01 0.  0.
         14    1    1    2    0    0 -0.20153825317E-01 -0.87723677122E-02  0.13998329739E-01  0.26059246836E-01  0.00000000000E+00 0.  1.
     999901    1    3    3    0    0  0.92349376614E-02 -0.71620980934E-01 -0.11083265504E+00  0.88988691776E+00  0.88000000000E+00 0.  1.
        -11    1    4    4    0    0  0.15515199138E-01  0.47981485103E-01  0.51671461917E-01  0.72202115029E-01  0.51100000000E-03 0.  1.
         11    1    4    4    0    0 -0.45963114829E-02  0.32411863543E-01  0.45162863384E-01  0.55781720372E-01  0.51100000000E-03 0. -1.
</event>
<event>
 8    1  0.1126414E+005  0.1043930E+01  0.7957747E-01            NaN
         13   -1    0    0    0    0  0.00000000000E+00  0.00000000000E+00  0.74505805969E-08  0.10566000000E+00  0.10566000000E+00 0. -1.
     999900   -1    0    0    0    0 -0.00000000000E+00 -0.00000000000E+00 -0.74505805969E-08  0.93827000000E+00  0.93827000000E+00 0.  1.
     999902    2    1    2    0    0  0.12147797637E-01  0.10778374138E-01 -0.15785356973E-01  0.10212822665E+01  0.10210311200E+01 0.  0.
     999903    2    3    3    0    0 -0.54719432753E-01 -0.43705617363E-01 -0.11027439800E+00  0.13203094620E+00  0.19165870455E-01 0.  0.
         14    1    1    2    0    0 -0.12147797637E-01 -0.10778374138E-01  0.15785356973E-01  0.22647733468E-01  0.00000000000E+00 0. -1.
     999901    1    3    3    0    0  0.66867230390E-01  0.54483991501E-01  0.94489041031E-01  0.88925132033E+00  0.88000000000E+00 0.  1.
        -11    1    4    4    0    0 -0.67108450044E-02 -0.11370431484E-01 -0.11364131529E-01  0.17427758296E-01  0.51100000000E-03 0. -1.
         11    1    4    4    0    0 -0.48008587749E-01 -0.32335185879E-01 -0.98910266475E-01  0.11460318791E+00  0.51100000000E-03 0.  1.
</event>
<event>
 8    1  0.1126414E+005  0.1043930E+01  0.7957747E-01            NaN
         13   -1    0    0    0    0  0.00000000000E+00  0.00000000000E+00  0.74505805969E-08  0.10566000000E+00  0.10566000000E+00 0.  1.
     999900   -1    0    0    0    0 -0.00000000000E+00 -0.00000000000E+00 -0.74505805969E-08  0.93827000000E+00  0.93827000000E+00 0. -1.
     999902    2    1    2    0    0 -0.15014722181E-01  0.30878901647E-02  0.18444307722E-01  0.10199473097E+01  0.10196653103E+01 0.  0.
     999903    2    3    3    0    0 -0.59441615814E-01  0.10761670680E+00 -0.40131278997E-01  0.13071667494E+00  0.19017578216E-01 0.  0.
         14    1    1    2    0    0  0.15014722181E-01 -0.30878901647E-02 -0.18444307722E-01  0.23982690324E-01  0.00000000000E+00 0. -1.
     999901    1    3    3    0    0  0.44426893634E-01 -0.10452881664E+00  0.58575586719E-01  0.88923063473E+00  0.88000000000E+00 0.  1.
        -11    1    4    4    0    0 -0.46744772437E-01  0.80752083075E-01 -0.21869456444E-01  0.95835833159E-01  0.51100000000E-03 0.  1.
         11    1    4    4    0    0 -0.12696843378E-01  0.26864623727E-01 -0.18261822553E-01  0.34880841786E-01  0.51100000000E-03 0. -1.
</event>
<event>
 8    1  0.1126414E+005  0.1043930E+01  0.7957747E-01            NaN
         13   -1    0    0    0    0  0.00000000000E+00  0.00000000000E+00  0.74505805969E-08  0.10566000000E+00  0.10566000000E+00 0. -1.
     999900   -1    0    0    0    0 -0.00000000000E+00 -0.00000000000E+00 -0.74505805969E-08  0.93827000000E+00  0.93827000000E+00 0.  1.
     999902    2    1    2    0    0 -0.21615366973E-01  0.27364984098E-02 -0.93230895754E-02  0.10202312129E+01  0.10199559281E+01 0.  0.
     999903    2    3    3    0    0 -0.97238543513E-01  0.45426917922E-02 -0.88979370227E-01  0.13340132488E+00  0.20065262505E-01 0.  0.
         14    1    1    2    0    0  0.21615366973E-01 -0.27364984098E-02  0.93230895754E-02  0.23698787145E-01  0.00000000000E+00 0. -1.
     999901    1    3    3    0    0  0.75623176540E-01 -0.18061933824E-02  0.79656280652E-01  0.88682988798E+00  0.88000000000E+00 0. -1.
        -11    1    4    4    0    0 -0.28827870439E-01 -0.71937328615E-02 -0.31211868310E-01  0.43095681349E-01  0.51100000000E-03 0.  1.
         11    1    4    4    0    0 -0.68410673074E-01  0.11736424654E-01 -0.57767501918E-01  0.90305643528E-01  0.51100000000E-03 0. -1.
</event>
<event>
 8    1  0.1126414E+005  0.1043930E+01  0.7957747E-01            NaN
         13   -1    0    0    0    0  0.00000000000E+00  0.00000000000E+00  0.74505805969E-08  0.10566000000E+00  0.10566000000E+00 0.  1.
     999900   -1    0    0    0    0 -0.00000000000E+00 -0.00000000000E+00 -0.74505805969E-08  0.93827000000E+00  0.93827000000E+00 0. -1.
     999902    2    1    2    0    0 -0.49454449474E-02  0.44612304653E-02 -0.22623089727E-01  0.10203468664E+01  0.10200742931E+01 0.  0.
     999903    2    3    3    0    0  0.15351193935E-01 -0.94736863994E-01  0.82744649808E-01  0.12829609650E+00  0.20061873053E-01 0.  0.
         14    1    1    2    0    0  0.49454449474E-02 -0.44612304653E-02  0.22623089727E-01  0.23583133629E-01  0.00000000000E+00 0.  1.
     999901    1    3    3    0    0 -0.20296638883E-01  0.99198094459E-01 -0.10536773953E+00  0.89205076987E+00  0.88000000000E+00 0. -1.
        -11    1    4    4    0    0  0.90831153968E-02 -0.46811548088E-01  0.28139432732E-01  0.55370685522E-01  0.51100000000E-03 0. -1.
         11    1    4    4    0    0  0.62680785384E-02 -0.47925315906E-01  0.54605217075E-01  0.72925410976E-01  0.51100000000E-03 0.  1.
</event>
<event>
 8    1  0.1126414E+005  0.1043930E+01  0.7957747E-01            NaN
         13   -1    0    0    0    0  0.00000000000E+00  0.00000000000E+00  0.74505805969E-08  0.10566000000E+00  0.10566000000E+00 0. -1.
     999900   -1    0    0    0    0 -0.00000000000E+00 -0.00000000000E+00 -0.74505805969E-08  0.93827000000E+00  0.93827000000E+00 0. -1.
     999902    2    1    2    0    0  0.17776922935E-01  0.15204045187E-01 -0.15018700244E-02  0.10204899148E+01  0.10202206765E+01 0.  0.
     999903    2    3    3    0    0 -0.24761700272E-01  0.10077378204E+00  0.78744847365E-01  0.13168664640E+00  0.19290539279E-01 0.  0.
         14    1    1    2    0    0 -0.17776922935E-01 -0.15204045187E-01  0.15018700244E-02  0.23440085167E-01  0.00000000000E+00 0.  1.
     999901    1    3    3    0    0  0.42538623207E-01 -0.85569736854E-01 -0.80246717389E-01  0.88880326844E+00  0.88000000000E+00 0.  1.
        -11    1    4    4    0    0 -0.13446726725E-01  0.38035023455E-01  0.41369768568E-01  0.57785779749E-01  0.51100000000E-03 0. -1.
         11    1    4    4    0    0 -0.11314973547E-01  0.62738758586E-01  0.37375078796E-01  0.73900866648E-01  0.51100000000E-03 0.  1.
</event>
<event>
 8    1  0.1126414E+005  0.1043930E+01  0.7957747E-01            NaN
         13   -1    0    0    0    0  0.00000000000E+00  0.00000000000E+00  0.74505805969E-08  0.10566000000E+00  0.10566000000E+00 0. -1.
     999900   -1    0    0    0    0 -0.00000000000E+00 -0.00000000000E+00 -0.74505805969E-08  0.93827000000E+00  0.93827000000E+00 0.  1.
     999902    2    1    2    0    0 -0.11662233303E-01 -0.27787531739E-02 -0.20298430106E-01  0.10203555346E+01  0.10200831640E+01 0.  0.
     999903    2    3    3    0    0  0.12449880675E+00  0.29319059074E-02  0.24990133511E-01  0.12871463464E+00  0.20842299359E-01 0.  0.
         14    1    1    2    0    0  0.11662233303E-01  0.27787531739E-02  0.20298430106E-01  0.23574465415E-01  0.00000000000E+00 0. -1.
     999901    1    3    3    0    0 -0.13616104006E+00 -0.57106590813E-02 -0.45288563618E-01  0.89164089994E+00  0.88000000000E+00 0.  1.
        -11    1    4    4    0    0  0.29662408352E-01  0.32984545318E-02 -0.25501340587E-02  0.29958347355E-01  0.51100000000E-03 0.  1.
         11    1    4    4    0    0  0.94836398402E-01 -0.36654862437E-03  0.27540267570E-01  0.98756287287E-01  0.51100000000E-03 0. -1.
</event>
<event>
 7    1  0.1126414E+005  0.1043930E+01  0.7957747E-01            NaN
         13   -1    0    0    0    0  0.00000000000E+00  0.00000000000E+00  0.74505805969E-08  0.10566000000E+00  0.10566000000E+00 0.  1.
     999900   -1    0    0    0    0 -0.00000000000E+00 -0.00000000000E+00 -0.74505805969E-08  0.93827000000E+00  0.93827000000E+00 0. -1.
     999903    2    1    2    0    0 -0.15937602803E-01 -0.11263094860E+00 -0.23287104104E-01  0.11767194679E+00  0.19096074927E-01 0.  0.
         14    1    1    2    0    0  0.41051653639E-02  0.25616163593E-01 -0.30757400386E-01  0.40237518542E-01  0.00000000000E+00 0. -1.
     999901    1    1    2    0    0  0.11832437439E-01  0.87014785010E-01  0.54044504490E-01  0.88602053467E+00  0.88000000000E+00 0.  1.
        -11    1    3    3    0    0  0.13033533775E-02 -0.42389820809E-01 -0.28328497716E-02  0.42507432256E-01  0.51100000000E-03 0. -1.
         11    1    3    3    0    0 -0.17240956180E-01 -0.70241127795E-01 -0.20454254332E-01  0.75164514534E-01  0.51100000000E-03 0.  1.
</event>
<event>
 8    1  0.1126414E+005  0.1043930E+01  0.7957747E-01            NaN
         13   -1    0    0    0    0  0.00000000000E+00  0.00000000000E+00  0.74505805969E-08  0.10566000000E+00  0.10566000000E+00 0.  1.
     999900   -1    0    0    0    0 -0.00000000000E+00 -0.00000000000E+00 -0.74505805969E-08  0.93827000000E+00  0.93827000000E+00 0.  1.
     999902    2    1    2    0    0 -0.15897541413E-01 -0.15566927478E-01 -0.80135526607E-02  0.10202809391E+01  0.10200068219E+01 0.  0.
     999903    2    3    3    0    0 -0.44606442428E-01 -0.12242423727E+00 -0.19740953958E-01  0.13327461581E+00  0.19874339730E-01 0.  0.
         14    1    1    2    0    0  0.15897541413E-01  0.15566927478E-01  0.80135526607E-02  0.23649060876E-01  0.00000000000E+00 0. -1.
     999901    1    3    3    0    0  0.28708901014E-01  0.10685730979E+00  0.11727401297E-01  0.88700632331E+00  0.88000000000E+00 0.  1.
        -11    1    4    4    0    0 -0.14297899152E-01 -0.68038954337E-01 -0.94108877461E-02  0.70160923288E-01  0.51100000000E-03 0. -1.
         11    1    4    4    0    0 -0.30308543275E-01 -0.54385282932E-01 -0.10330066212E-01  0.63113692524E-01  0.51100000000E-03 0.  1.
</event>
<event>
 8    1  0.1126414E+005  0.1043930E+01  0.7957747E-01            NaN
         13   -1    0    0    0    0  0.00000000000E+00  0.00000000000E+00  0.74505805969E-08  0.10566000000E+00  0.10566000000E+00 0. -1.
     999900   -1    0    0    0    0 -0.00000000000E+00 -0.00000000000E+00 -0.74505805969E-08  0.93827000000E+00  0.93827000000E+00 0.  1.
     999902    2    1    2    0    0 -0.11153302214E-01  0.13517490098E-01 -0.16230108709E-01  0.10200441231E+01  0.10197644227E+01 0.  0.
     999903    2    3    3    0    0  0.43092672365E-01 -0.11471288702E+00  0.30737060169E-01  0.12786052629E+00  0.19685590052E-01 0.  0.
         14    1    1    2    0    0  0.11153302214E-01 -0.13517490098E-01  0.16230108709E-01  0.23885876947E-01  0.00000000000E+00 0. -1.
     999901    1    3    3    0    0 -0.54245974579E-01  0.12823037712E+00 -0.46967168879E-01  0.89218359676E+00  0.88000000000E+00 0.  1.
        -11    1    4    4    0    0  0.16450715110E-01 -0.71087246970E-01  0.16852283637E-01  0.74888472372E-01  0.51100000000E-03 0.  1.
         11    1    4    4    0    0  0.26641957255E-01 -0.43625640052E-01  0.13884776532E-01  0.52972053922E-01  0.51100000000E-03 0. -1.
</event>
<event>
 8    1  0.1126414E+005  0.1043930E+01  0.7957747E-01            NaN
         13   -1    0    0    0    0  0.00000000000E+00  0.00000000000E+00  0.74505805969E-08  0.10566000000E+00  0.10566000000E+00 0.  1.
     999900   -1    0    0    0    0 -0.00000000000E+00 -0.00000000000E+00 -0.74505805969E-08  0.93827000000E+00  0.93827000000E+00 0.  1.
     999902    2    1    2    0    0 -0.20524857730E-02 -0.13276923636E-01 -0.18429177411E-01  0.10211237732E+01  0.10208690593E+01 0.  0.
     999903    2    3    3    0    0  0.45269782662E-01 -0.46310792822E-01  0.11060172939E+00  0.12984401440E+00  0.20801028254E-01 0.  0.
         14    1    1    2    0    0  0.20524857730E-02  0.13276923636E-01  0.18429177411E-01  0.22806226762E-01  0.00000000000E+00 0.  1.
     999901    1    3    3    0    0 -0.47322268435E-01  0.33033869186E-01 -0.12903090680E+00  0.89127975884E+00  0.88000000000E+00 0.  1.
        -11    1    4    4    0    0  0.35515809346E-01 -0.35576506865E-01  0.66163296414E-01  0.83095748794E-01  0.51100000000E-03 0.  1.
         11    1    4    4    0    0  0.97539733161E-02 -0.10734285957E-01  0.44438432980E-01  0.46748265606E-01  0.51100000000E-03 0. -1.
</event>
<event>
 8    1  0.1126414E+005  0.1043930E+01  0.7957747E-01            NaN
         13   -1    0    0    0    0  0.00000000000E+00  0.00000000000E+00  0.74505805969E-08  0.10566000000E+00  0.10566000000E+00 0. -1.
     999900   -1    0    0    0    0 -0.00000000000E+00 -0.00000000000E+00 -0.74505805969E-08  0.93827000000E+00  0.93827000000E+00 0.  1.
     999902    2    1    2    0    0 -0.14421338306E-01  0.16781396599E-03 -0.18219810668E-01  0.10206928603E+01  0.10204283171E+01 0.  0.
     999903    2    3    3    0    0  0.98342720505E-01  0.36926185252E-01 -0.75044417345E-01  0.13091988548E+00  0.21760468879E-01 0.  0.
         14    1    1    2    0    0  0.14421338306E-01 -0.16781396599E-03  0.18219810668E-01  0.23237139687E-01  0.00000000000E+00 0.  1.
     999901    1    3    3    0    0 -0.11276405881E+00 -0.36758371286E-01  0.56824606677E-01  0.88977297483E+00  0.88000000000E+00 0. -1.
        -11    1    4    4    0    0  0.54862474167E-01  0.28061104002E-01 -0.33552374231E-01  0.70166513146E-01  0.51100000000E-03 0.  1.
         11    1    4    4    0    0  0.43480246337E-01  0.88650812502E-02 -0.41492043114E-01  0.60753372333E-01  0.51100000000E-03 0. -1.
</event>
<event>
 8    1  0.1126414E+005  0.1043930E+01  0.7957747E-01            NaN
         13   -1    0    0    0    0  0.00000000000E+00  0.00000000000E+00  0.74505805969E-08  0.10566000000E+00  0.10566000000E+00 0. -1.
     999900   -1    0    0    0    0 -0.00000000000E+00 -0.00000000000E+00 -0.74505805969E-08  0.93827000000E+00  0.93827000000E+00 0.  1.
     999902    2    1    2    0    0 -0.14153862574E-02 -0.14881428718E-01  0.18304125920E-01  0.10202973686E+01  0.10200236366E+01 0.  0.
     999903    2    3    3    0    0  0.49272523007E-03  0.49566433171E-01 -0.11599427618E+00  0.12777665259E+00  0.20374659881E-01 0.  0.
         14    1    1    2    0    0  0.14153862574E-02  0.14881428718E-01 -0.18304125920E-01  0.23632631353E-01  0.00000000000E+00 0.  1.
     999901    1    3    3    0    0 -0.19081114874E-02 -0.64447861889E-01  0.13429840210E+00  0.89252071606E+00  0.88000000000E+00 0. -1.
        -11    1    4    4    0    0 -0.39064957883E-02  0.11538483009E-01 -0.50151219768E-01  0.51612045732E-01  0.51100000000E-03 0.  1.
         11    1    4    4    0    0  0.43992210184E-02  0.38027950162E-01 -0.65843056408E-01  0.76164606855E-01  0.51100000000E-03 0. -1.
</event>
<event>
 8    1  0.1126414E+005  0.1043930E+01  0.7957747E-01            NaN
         13   -1    0    0    0    0  0.00000000000E+00  0.00000000000E+00  0.74505805969E-08  0.10566000000E+00  0.10566000000E+00 0.  1.
     999900   -1    0    0    0    0 -0.00000000000E+00 -0.00000000000E+00 -0.74505805969E-08  0.93827000000E+00  0.93827000000E+00 0.  1.
     999902    2    1    2    0    0  0.12601655714E-01  0.63421177916E-03  0.20427360540E-01  0.10199199811E+01  0.10196373310E+01 0.  0.
     999903    2    3    3    0    0 -0.59956510984E-01  0.11248967730E+00  0.63304679531E-02  0.12976546912E+00  0.23458291576E-01 0.  0.
         14    1    1    2    0    0 -0.12601655714E-01 -0.63421177916E-03 -0.20427360540E-01  0.24010018950E-01  0.00000000000E+00 0. -1.
     999901    1    3    3    0    0  0.72558166697E-01 -0.11185546552E+00  0.14096892587E-01  0.89015451193E+00  0.88000000000E+00 0. -1.
        -11    1    4    4    0    0 -0.29108772307E-01  0.77168598343E-01  0.77897986215E-02  0.82844766154E-01  0.51100000000E-03 0.  1.
         11    1    4    4    0    0 -0.30847738676E-01  0.35321078959E-01 -0.14593306684E-02  0.46920702971E-01  0.51100000000E-03 0. -1.
</event>
<event>
 8    1  0.1126414E+005  0.1043930E+01  0.7957747E-01            NaN
         13   -1    0    0    0    0  0.00000000000E+00  0.00000000000E+00  0.74505805969E-08  0.10566000000E+00  0.10566000000E+00 0.  1.
     999900   -1    0    0    0    0 -0.00000000000E+00 -0.00000000000E+00 -0.74505805969E-08  0.93827000000E+00  0.93827000000E+00 0. -1.
     999902    2    1    2    0    0  0.20721217293E-01  0.55319020886E-02 -0.81054056681E-02  0.10210025407E+01  0.10207450807E+01 0.  0.
     999903    2    3    3    0    0 -0.24820948810E-01  0.12445371794E+00  0.26338517763E-01  0.13116948278E+00  0.20171967824E-01 0.  0.
         14    1    1    2    0    0 -0.20721217293E-01 -0.55319020886E-02  0.81054056681E-02  0.22927459255E-01  0.00000000000E+00 0. -1.
     999901    1    3    3    0    0  0.45542166104E-01 -0.11892181586E+00 -0.34443923431E-01  0.88983305796E+00  0.88000000000E+00 0. -1.
        -11    1    4    4    0    0 -0.53876535981E-02  0.67919889143E-01  0.20232178009E-01  0.71075595675E-01  0.51100000000E-03 0. -1.
         11    1    4    4    0    0 -0.19433295212E-01  0.56533828801E-01  0.61063397535E-02  0.60093887109E-01  0.51100000000E-03 0.  1.
</event>
<event>
 8    1  0.1126414E+005  0.1043930E+01  0.7957747E-01            NaN
         13   -1    0    0    0    0  0.00000000000E+00  0.00000000000E+00  0.74505805969E-08  0.10566000000E+00  0.10566000000E+00 0. -1.
     999900   -1    0    0    0    0 -0.00000000000E+00 -0.00000000000E+00 -0.74505805969E-08  0.93827000000E+00  0.93827000000E+00 0. -1.
     999902    2    1    2    0    0  0.19900004581E-01  0.47057281799E-02  0.13499464668E-01  0.10194271511E+01  0.10191326345E+01 0.  0.
     999903    2    3    3    0    0 -0.74701913743E-01 -0.72979264301E-01  0.72990460923E-01  0.12896454115E+00  0.19947344516E-01 0.  0.
         14    1    1    2    0    0 -0.19900004581E-01 -0.47057281799E-02 -0.13499464668E-01  0.24502848944E-01  0.00000000000E+00 0. -1.
     999901    1    3    3    0    0  0.94601918324E-01  0.77684992481E-01 -0.59490996255E-01  0.89046260991E+00  0.88000000000E+00 0. -1.
        -11    1    4    4    0    0 -0.52330941079E-01 -0.55558166850E-01  0.42644385555E-01  0.87430212388E-01  0.51100000000E-03 0. -1.
         11    1    4    4    0    0 -0.22370972664E-01 -0.17421097451E-01  0.30346075368E-01  0.41534328761E-01  0.51100000000E-03 0.  1.
</event>
<event>
 8    1  0.1126414E+005  0.1043930E+01  0.7957747E-01            NaN
         13   -1    0    0    0    0  0.00000000000E+00  0.00000000000E+00  0.74505805969E-08  0.10566000000E+00  0.10566000000E+00 0.  1.
     999900   -1    0    0    0    0 -0.00000000000E+00 -0.00000000000E+00 -0.74505805969E-08  0.93827000000E+00  0.93827000000E+00 0. -1.
     999902    2    1    2    0    0 -0.22225585901E-01 -0.67950197920E-02 -0.76629994043E-02  0.10194581688E+01  0.10191644065E+01 0.  0.
     999903    2    3    3    0    0 -0.92910874975E-01  0.36601361541E-01  0.82301854384E-01  0.13099132590E+00  0.20323431585E-01 0.  0.
         14    1    1    2    0    0  0.22225585901E-01  0.67950197920E-02  0.76629994043E-02  0.24471831204E-01  0.00000000000E+00 0. -1.
     999901    1    3    3    0    0  0.70685289073E-01 -0.43396381333E-01 -0.89964853788E-01  0.88846684289E+00  0.88000000000E+00 0. -1.
        -11    1    4    4    0    0 -0.47935240015E-01  0.21434185908E-01  0.30482319950E-01  0.60717744617E-01  0.51100000000E-03 0.  1.
         11    1    4    4    0    0 -0.44975634959E-01  0.15167175633E-01  0.51819534434E-01  0.70273581285E-01  0.51100000000E-03 0. -1.
</event>
<event>
 8    1  0.1126414E+005  0.1043930E+01  0.7957747E-01            NaN
         13   -1    0    0    0    0  0.00000000000E+00  0.00000000000E+00  0.74505805969E-08  0.10566000000E+00  0.10566000000E+00 0. -1.
     999900   -1    0    0    0    0 -0.00000000000E+00 -0.00000000000E+00 -0.74505805969E-08  0.93827000000E+00  0.93827000000E+00 0. -1.
     999902    2    1    2    0    0  0.54233723826E-02 -0.18539304203E-01 -0.17231746870E-01  0.10180446399E+01  0.10177154990E+01 0.  0.
     999903    2    3    3    0    0  0.96433472228E-02 -0.87423476314E-01  0.91575650040E-01  0.12866177127E+00  0.20782043921E-01 0.  0.
         14    1    1    2    0    0 -0.54233723826E-02  0.18539304203E-01  0.17231746870E-01  0.25885360120E-01  0.00000000000E+00 0. -1.
     999901    1    3    3    0    0 -0.42199748402E-02  0.68884172111E-01 -0.10880739691E+00  0.88938286861E+00  0.88000000000E+00 0. -1.
        -11    1    4    4    0    0  0.15724953750E-01 -0.49401368661E-01  0.53901772577E-01  0.74789247916E-01  0.51100000000E-03 0.  1.
         11    1    4    4    0    0 -0.60816065269E-02 -0.38022107653E-01  0.37673877463E-01  0.53872523353E-01  0.51100000000E-03 0. -1.
</event>
<event>
 8    1  0.1126414E+005  0.1043930E+01  0.7957747E-01            NaN
         13   -1    0    0    0    0  0.00000000000E+00  0.00000000000E+00  0.74505805969E-08  0.10566000000E+00  0.10566000000E+00 0. -1.
     999900   -1    0    0    0    0 -0.00000000000E+00 -0.00000000000E+00 -0.74505805969E-08  0.93827000000E+00  0.93827000000E+00 0.  1.
     999902    2    1    2    0    0  0.10949641343E-01  0.79072791408E-02  0.19331096926E-01  0.10203479938E+01  0.10200754469E+01 0.  0.
     999903    2    3    3    0    0 -0.19150833805E-03  0.11282267380E+00  0.67098131701E-01  0.13275965741E+00  0.19848802477E-01 0.  0.
         14    1    1    2    0    0 -0.10949641343E-01 -0.79072791408E-02 -0.19331096926E-01  0.23582006219E-01  0.00000000000E+00 0.  1.
     999901    1    3    3    0    0  0.11141149681E-01 -0.10491539466E+00 -0.47767034775E-01  0.88758833637E+00  0.88000000000E+00 0.  1.
        -11    1    4    4    0    0  0.89058640481E-02  0.35826537625E-01  0.19050591535E-01  0.41545654062E-01  0.51100000000E-03 0. -1.
         11    1    4    4    0    0 -0.90973723862E-02  0.76996136171E-01  0.48047540166E-01  0.91214003347E-01  0.51100000000E-03 0.  1.
</event>
<event>
 8    1  0.1126414E+005  0.1043930E+01  0.7957747E-01            NaN
         13   -1    0    0    0    0  0.00000000000E+00  0.00000000000E+00  0.74505805969E-08  0.10566000000E+00  0.10566000000E+00 0.  1.
     999900   -1    0    0    0    0 -0.00000000000E+00 -0.00000000000E+00 -0.74505805969E-08  0.93827000000E+00  0.93827000000E+00 0. -1.
     999902    2    1    2    0    0  0.25393693990E-02 -0.23552926972E-01 -0.19815923714E-03  0.10202397481E+01  0.10199646639E+01 0.  0.
     999903    2    3    3    0    0 -0.51867720809E-01  0.61155899718E-01 -0.99129165840E-01  0.12899171261E+00  0.19543947111E-01 0.  0.
         14    1    1    2    0    0 -0.25393693990E-02  0.23552926972E-01  0.19815923714E-03  0.23690251855E-01  0.00000000000E+00 0.  1.
     999901    1    3    3    0    0  0.54407090208E-01 -0.84708826690E-01  0.98931006603E-01  0.89124803554E+00  0.88000000000E+00 0. -1.
        -11    1    4    4    0    0 -0.44291658223E-01  0.41007350852E-01 -0.79787483713E-01  0.10004827580E+00  0.51100000000E-03 0.  1.
         11    1    4    4    0    0 -0.75760625857E-02  0.20148548866E-01 -0.19341682127E-01  0.28943436808E-01  0.51100000000E-03 0. -1.
</event>
<event>
 8    1  0.1126414E+005  0.1043930E+01  0.7957747E-01            NaN
         13   -1    0    0    0    0  0.00000000000E+00  0.00000000000E+00  0.74505805969E-08  0.10566000000E+00  0.10566000000E+00 0.  1.
     999900   -1    0    0    0    0 -0.00000000000E+00 -0.00000000000E+00 -0.74505805969E-08  0.93827000000E+00  0.93827000000E+00 0.  1.
     999902    2    1    2    0    0 -0.15874378688E-01 -0.15972142911E-01 -0.76231558632E-02  0.10201556913E+01  0.10198786285E+01 0.  0.
     999903    2    3    3    0    0 -0.21464629385E-01  0.49114265569E-01 -0.11780863503E+00  0.13088164397E+00  0.19447078014E-01 0.  0.
         14    1    1    2    0    0  0.15874378688E-01  0.15972142911E-01  0.76231558632E-02  0.23774308680E-01  0.00000000000E+00 0.  1.
     999901    1    3    3    0    0  0.55902506979E-02 -0.65086408480E-01  0.11018547917E+00  0.88927404735E+00  0.88000000000E+00 0. -1.
        -11    1    4    4    0    0 -0.76440661594E-02  0.92997406569E-02 -0.46615987199E-01  0.48147983418E-01  0.51100000000E-03 0. -1.
         11    1    4    4    0    0 -0.13820563226E-01  0.39814524912E-01 -0.71192647833E-01  0.82733660552E-01  0.51100000000E-03 0.  1.
</event>
<event>
 8    1  0.1126414E+005  0.1043930E+01  0.7957747E-01            NaN
         13   -1    0    0    0    0  0.00000000000E+00  0.00000000000E+00  0.74505805969E-08  0.10566000000E+00  0.10566000000E+00 0. -1.
     999900   -1    0    0    0    0 -0.00000000000E+00 -0.00000000000E+00 -0.74505805969E-08  0.93827000000E+00  0.93827000000E+00 0. -1.
     999902    2    1    2    0    0  0.41862691596E-02 -0.10212559764E-02  0.16927900558E-01  0.10264622689E+01  0.10263136303E+01 0.  0.
     999903    2    3    3    0    0 -0.45644492707E-01  0.11381879940E+00 -0.52586166149E-01  0.13488863276E+00  0.19786348014E-01 0.  0.
         14    1    1    2    0    0 -0.41862691596E-02  0.10212559764E-02 -0.16927900558E-01  0.17467731122E-01  0.00000000000E+00 0.  1.
     999901    1    3    3    0    0  0.49830761867E-01 -0.11484005537E+00  0.69514066707E-01  0.89157363612E+00  0.88000000000E+00 0.  1.
        -11    1    4    4    0    0 -0.29354045615E-01  0.47331627605E-01 -0.21458234474E-01  0.59688021524E-01  0.51100000000E-03 0.  1.
         11    1    4    4    0    0 -0.16290447092E-01  0.66487171791E-01 -0.31127931675E-01  0.75200611238E-01  0.51100000000E-03 0. -1.
</event>
<event>
 8    1  0.1126414E+005  0.1043930E+01  0.7957747E-01            NaN
         13   -1    0    0    0    0  0.00000000000E+00  0.00000000000E+00  0.74505805969E-08  0.10566000000E+00  0.10566000000E+00 0. -1.
     999900   -1    0    0    0    0 -0.00000000000E+00 -0.00000000000E+00 -0.74505805969E-08  0.93827000000E+00  0.93827000000E+00 0.  1.
     999902    2    1    2    0    0 -0.15157750232E-01 -0.12506194536E-01  0.13632802825E-01  0.10200131522E+01  0.10197327175E+01 0.  0.
     999903    2    3    3    0    0 -0.11413335503E+00 -0.46615441259E-01 -0.43479428715E-01  0.13196956207E+00  0.18057754460E-01 0.  0.
         14    1    1    2    0    0  0.15157750232E-01  0.12506194536E-01 -0.13632802825E-01  0.23916847760E-01  0.00000000000E+00 0.  1.
     999901    1    3    3    0    0  0.98975604799E-01  0.34109246723E-01  0.57112231540E-01  0.88804359017E+00  0.88000000000E+00 0.  1.
        -11    1    4    4    0    0 -0.33109965940E-01 -0.10369400504E-01 -0.43728890396E-02  0.34973955895E-01  0.51100000000E-03 0. -1.
         11    1    4    4    0    0 -0.81023389091E-01 -0.36246040756E-01 -0.39106539675E-01  0.96995606172E-01  0.51100000000E-03 0.  1.
</event>
<event>
 8    1  0.1126414E+005  0.1043930E+01  0.7957747E-01            NaN
         13   -1    0    0    0    0  0.00000000000E+00  0.00000000000E+00  0.74505805969E-08  0.10566000000E+00  0.10566000000E+00 0.  1.
     999900   -1    0    0    0    0 -0.00000000000E+00 -0.00000000000E+00 -0.74505805969E-08  0.93827000000E+00  0.93827000000E+00 0.  1.
     999902    2    1    2    0    0  0.11880553886E-01 -0.18338055379E-01 -0.83161075611E-02  0.10205507468E+01  0.10202829202E+01 0.  0.
     999903    2    3    3    0    0  0.20851343000E-01  0.10752158450E+00 -0.65731131799E-01  0.12969856544E+00  0.22482583299E-01 0.  0.
         14    1    1    2    0    0 -0.11880553886E-01  0.18338055379E-01  0.83161075611E-02  0.23379253210E-01  0.00000000000E+00 0. -1.
     999901    1    3    3    0    0 -0.89707891137E-02 -0.12585963988E+00  0.57415024238E-01  0.89085218135E+00  0.88000000000E+00 0. -1.
        -11    1    4    4    0    0  0.24490846310E-01  0.72584062860E-01 -0.42888576096E-01  0.87794867815E-01  0.51100000000E-03 0.  1.
         11    1    4    4    0    0 -0.36395033103E-02  0.34937521638E-01 -0.22842555703E-01  0.41903697624E-01  0.51100000000E-03 0. -1.
</event>
<event>
 8    1  0.1126414E+005  0.1043930E+01  0.7957747E-01            NaN
         13   -1    0    0    0    0  0.00000000000E+00  0.00000000000E+00  0.74505805969E-08  0.10566000000E+00  0.10566000000E+00 0.  1.
     999900   -1    0    0    0    0 -0.00000000000E+00 -0.00000000000E+00 -0.74505805969E-08  0.93827000000E+00  0.93827000000E+00 0. -1.
     999902    2    1    2    0    0 -0.43418487054E-02 -0.22361084212E-01  0.68332508195E-02  0.10201484304E+01  0.10198711962E+01 0.  0.
     999903    2    3    3    0    0  0.60865588375E-01  0.10971865055E+00  0.14709450272E-01  0.12787095071E+00  0.19794190627E-01 0.  0.
         14    1    1    2    0    0  0.43418487054E-02  0.22361084212E-01 -0.68332508195E-02  0.23781569630E-01  0.00000000000E+00 0. -1.
     999901    1    3    3    0    0 -0.65207437081E-01 -0.13207973476E+00 -0.78761994529E-02  0.89227747966E+00  0.88000000000E+00 0.  1.
        -11    1    4    4    0    0  0.57393429291E-01  0.93311734401E-01  0.17253830230E-01  0.11090104274E+00  0.51100000000E-03 0.  1.
         11    1    4    4    0    0  0.34721590840E-02  0.16406916147E-01 -0.25443799576E-02  0.16969907971E-01  0.51100000000E-03 0. -1.
</event>
<event>
 8    1  0.1126414E+005  0.1043930E+01  0.7957747E-01            NaN
         13   -1    0    0    0    0  0.00000000000E+00  0.00000000000E+00  0.74505805969E-08  0.10566000000E+00  0.10566000000E+00 0. -1.
     999900   -1    0    0    0    0 -0.00000000000E+00 -0.00000000000E+00 -0.74505805969E-08  0.93827000000E+00  0.93827000000E+00 0.  1.
     999902    2    1    2    0    0 -0.36006717912E-03 -0.21674097401E-01  0.83288406512E-02  0.10207079042E+01  0.10204437074E+01 0.  0.
     999903    2    3    3    0    0  0.47974581547E-01 -0.11679242893E+00 -0.37325147424E-01  0.13308860412E+00  0.19426219051E-01 0.  0.
         14    1    1    2    0    0  0.36006717912E-03  0.21674097401E-01 -0.83288406512E-02  0.23222095795E-01  0.00000000000E+00 0.  1.
     999901    1    3    3    0    0 -0.48334648726E-01  0.95118331526E-01  0.45653988075E-01  0.88761930009E+00  0.88000000000E+00 0. -1.
        -11    1    4    4    0    0  0.26172727263E-01 -0.66405416361E-01 -0.31005680649E-01  0.77822261134E-01  0.51100000000E-03 0.  1.
         11    1    4    4    0    0  0.21801854284E-01 -0.50387012566E-01 -0.63194667748E-02  0.55266342984E-01  0.51100000000E-03 0. -1.
</event>
<event>
 8    1  0.1126414E+005  0.1043930E+01  0.7957747E-01            NaN
         13   -1    0    0    0    0  0.00000000000E+00  0.00000000000E+00  0.74505805969E-08  0.10566000000E+00  0.10566000000E+00 0. -1.
     999900   -1    0    0    0    0 -0.00000000000E+00 -0.00000000000E+00 -0.74505805969E-08  0.93827000000E+00  0.93827000000E+00 0.  1.
     999902    2    1    2    0    0 -0.84418551358E-03 -0.20623374352E-01 -0.12699147792E-01  0.10196956324E+01  0.10194076114E+01 0.  0.
     999903    2    3    3    0    0 -0.46805264902E-01  0.12245102731E-01  0.11732764678E+00  0.12834849187E+00  0.19154198088E-01 0.  0.
         14    1    1    2    0    0  0.84418551358E-03  0.20623374352E-01  0.12699147792E-01  0.24234367610E-01  0.00000000000E+00 0. -1.
     999901    1    3    3    0    0  0.45961079388E-01 -0.32868477082E-01 -0.13002679457E+00  0.89134714052E+00  0.88000000000E+00 0.  1.
        -11    1    4    4    0    0 -0.34710138345E-01  0.15868898732E-01  0.74690820503E-01  0.83878456348E-01  0.51100000000E-03 0. -1.
         11    1    4    4    0    0 -0.12095126556E-01 -0.36237960010E-02  0.42636826272E-01  0.44470035523E-01  0.51100000000E-03 0.  1.
</event>
<event>
 8    1  0.1126414E+005  0.1043930E+01  0.7957747E-01            NaN
         13   -1    0    0    0    0  0.00000000000E+00  0.00000000000E+00  0.74505805969E-08  0.10566000000E+00  0.10566000000E+00 0.  1.
     999900   -1    0    0    0    0 -0.00000000000E+00 -0.00000000000E+00 -0.74505805969E-08  0.93827000000E+00  0.93827000000E+00 0. -1.
     999902    2    1    2    0    0 -0.41939752443E-02  0.21808720103E-01 -0.10173481893E-01  0.10195023633E+01  0.10192096739E+01 0.  0.
     999903    2    3    3    0    0 -0.53008038469E-02 -0.58960975747E-01  0.11134042413E+00  0.12748745412E+00  0.18758084390E-01 0.  0.
         14    1    1    2    0    0  0.41939752443E-02 -0.21808720103E-01  0.10173481893E-01  0.24427636699E-01  0.00000000000E+00 0. -1.
     999901    1    3    3    0    0  0.11068286026E-02  0.80769695850E-01 -0.12151390603E+00  0.89201490918E+00  0.88000000000E+00 0. -1.
        -11    1    4    4    0    0 -0.59276033834E-02 -0.28535382083E-01  0.72513427955E-01  0.78152817398E-01  0.51100000000E-03 0.  1.
         11    1    4    4    0    0  0.62679953650E-03 -0.30425593665E-01  0.38826996179E-01  0.49334636725E-01  0.51100000000E-03 0. -1.
</event>
<event>
 8    1  0.1126414E+005  0.1043930E+01  0.7957747E-01            NaN
         13   -1    0    0    0    0  0.00000000000E+00  0.00000000000E+00  0.74505805969E-08  0.10566000000E+00  0.10566000000E+00 0.  1.
     999900   -1    0    0    0    0 -0.00000000000E+00 -0.00000000000E+00 -0.74505805969E-08  0.93827000000E+00  0.93827000000E+00 0. -1.
     999902    2    1    2    0    0 -0.64305942040E-02 -0.68751177895E-02 -0.21302400094E-01  0.10206402590E+01  0.10203745029E+01 0.  0.
     999903    2    3    3    0    0  0.61910374687E-01  0.43221179342E-01 -0.10687630787E+00  0.13243813070E+00  0.20404618159E-01 0.  0.
         14    1    1    2    0    0  0.64305942040E-02  0.68751177895E-02  0.21302400094E-01  0.23289741007E-01  0.00000000000E+00 0.  1.
     999901    1    3    3    0    0 -0.68340968891E-01 -0.50096297132E-01  0.85573907772E-01  0.88820212829E+00  0.88000000000E+00 0.  1.
        -11    1    4    4    0    0  0.55400447892E-01  0.37588328456E-01 -0.80580594754E-01  0.10476442829E+00  0.51100000000E-03 0.  1.
         11    1    4    4    0    0  0.65099267944E-02  0.56328508862E-02 -0.26295713112E-01  0.27673702410E-01  0.51100000000E-03 0. -1.
</event>
<event>
 8    1  0.1126414E+005  0.1043930E+01  0.7957747E-01            NaN
         13   -1    0    0    0    0  0.00000000000E+00  0.00000000000E+00  0.74505805969E-08  0.10566000000E+00  0.10566000000E+00 0.  1.
     999900   -1    0    0    0    0 -0.00000000000E+00 -0.00000000000E+00 -0.74505805969E-08  0.93827000000E+00  0.93827000000E+00 0.  1.
     999902    2    1    2    0    0  0.13585623501E-01 -0.11426393806E-01  0.15339274804E-01  0.10204688621E+01  0.10201991342E+01 0.  0.
     999903    2    3    3    0    0 -0.99280348356E-01  0.40579479646E-01 -0.66334912511E-01  0.12799252550E+00  0.21874282315E-01 0.  0.
         14    1    1    2    0    0 -0.13585623501E-01  0.11426393806E-01 -0.15339274804E-01  0.23461137927E-01  0.00000000000E+00 0. -1.
     999901    1    3    3    0    0  0.11286597186E+00 -0.52005873452E-01  0.81674187315E-01  0.89247633658E+00  0.88000000000E+00 0. -1.
        -11    1    4    4    0    0 -0.64054829116E-01  0.36251446770E-01 -0.39789037187E-01  0.83669690613E-01  0.51100000000E-03 0. -1.
         11    1    4    4    0    0 -0.35225519239E-01  0.43280328761E-02 -0.26545875324E-01  0.44322834882E-01  0.51100000000E-03 0.  1.
</event>
<event>
 8    1  0.1126414E+005  0.1043930E+01  0.7957747E-01            NaN
         13   -1    0    0    0    0  0.00000000000E+00  0.00000000000E+00  0.74505805969E-08  0.10566000000E+00  0.10566000000E+00 0.  1.
     999900   -1    0    0    0    0 -0.00000000000E+00 -0.00000000000E+00 -0.74505805969E-08  0.93827000000E+00  0.93827000000E+00 0. -1.
     999902    2    1    2    0    0 -0.19863562497E-02 -0.11709699148E-01  0.20089103697E-01  0.10205925890E+01  0.10203257313E+01 0.  0.
     999903    2    3    3    0    0  0.53866541339E-01  0.11219758378E+00 -0.27418584028E-01  0.12889222378E+00  0.19274971282E-01 0.  0.
         14    1    1    2    0    0  0.19863562497E-02  0.11709699148E-01 -0.20089103697E-01  0.23337411010E-01  0.00000000000E+00 0. -1.
     999901    1    3    3    0    0 -0.55852897589E-01 -0.12390728293E+00  0.47507687725E-01  0.89170036521E+00  0.88000000000E+00 0. -1.
        -11    1    4    4    0    0  0.35380598864E-01  0.61088041850E-01 -0.23476180650E-01  0.74397095454E-01  0.51100000000E-03 0. -1.
         11    1    4    4    0    0  0.18485942475E-01  0.51109541929E-01 -0.39424033786E-02  0.54495128321E-01  0.51100000000E-03 0.  1.
</event>
<event>
 8    1  0.1126414E+005  0.1043930E+01  0.7957747E-01            NaN
         13   -1    0    0    0    0  0.00000000000E+00  0.00000000000E+00  0.74505805969E-08  0.10566000000E+00  0.10566000000E+00 0. -1.
     999900   -1    0    0    0    0 -0.00000000000E+00 -0.00000000000E+00 -0.74505805969E-08  0.93827000000E+00  0.93827000000E+00 0. -1.
     999902    2    1    2    0    0 -0.17913319538E-01  0.14070953999E-01  0.77265772987E-02  0.10198763358E+01  0.10195926449E+01 0.  0.
     999903    2    3    3    0    0  0.74199992745E-01 -0.97570238567E-01 -0.28063842011E-01  0.12733525986E+00  0.20027451103E-01 0.  0.
         14    1    1    2    0    0  0.17913319538E-01 -0.14070953999E-01 -0.77265772987E-02  0.24053664171E-01  0.00000000000E+00 0.  1.
     999901    1    3    3    0    0 -0.92113312283E-01  0.11164119257E+00  0.35790419310E-01  0.89254107597E+00  0.88000000000E+00 0.  1.
        -11    1    4    4    0    0  0.28012752641E-01 -0.22336383657E-01 -0.59002352453E-02  0.36313940055E-01  0.51100000000E-03 0. -1.
         11    1    4    4    0    0  0.46187240105E-01 -0.75233854910E-01 -0.22163606766E-01  0.91021319804E-01  0.51100000000E-03 0.  1.
</event>
<event>
 8    1  0.1126414E+005  0.1043930E+01  0.7957747E-01            NaN
         13   -1    0    0    0    0  0.00000000000E+00  0.00000000000E+00  0.74505805969E-08  0.10566000000E+00  0.10566000000E+00 0.  1.
     999900   -1    0    0    0    0 -0.00000000000E+00 -0.00000000000E+00 -0.74505805969E-08  0.93827000000E+00  0.93827000000E+00 0.  1.
     999902    2    1    2    0    0  0.15500385099E-01 -0.59916064923E-02 -0.21286465277E-01  0.10169249099E+01  0.10165662780E+01 0.  0.
     999903    2    3    3    0    0 -0.48735828898E-01 -0.19239781991E-01 -0.11676160889E+00  0.12933417743E+00  0.18673668915E-01 0.  0.
         14    1    1    2    0    0 -0.15500385099E-01  0.59916064923E-02  0.21286465277E-01  0.27005090086E-01  0.00000000000E+00 0.  1.
     999901    1    3    3    0    0  0.64236213997E-01  0.13248175499E-01  0.95475143616E-01  0.88759073248E+00  0.88000000000E+00 0. -1.
        -11    1    4    4    0    0 -0.48301463011E-01 -0.14131195851E-01 -0.10296976482E+00  0.11461132411E+00  0.51100000000E-03 0.  1.
         11    1    4    4    0    0 -0.43436588697E-03 -0.51085861394E-02 -0.13791844072E-01  0.14722853323E-01  0.51100000000E-03 0. -1.
</event>
<event>
 8    1  0.1126414E+005  0.1043930E+01  0.7957747E-01            NaN
         13   -1    0    0    0    0  0.00000000000E+00  0.00000000000E+00  0.74505805969E-08  0.10566000000E+00  0.10566000000E+00 0.  1.
     999900   -1    0    0    0    0 -0.00000000000E+00 -0.00000000000E+00 -0.74505805969E-08  0.93827000000E+00  0.93827000000E+00 0. -1.
     999902    2    1    2    0    0 -0.35413520295E-03  0.23806672883E-01  0.80855568650E-03  0.10201069681E+01  0.10198287550E+01 0.  0.
     999903    2    3    3    0    0  0.67870322832E-02 -0.64268454259E-01 -0.11072996858E+00  0.12867605847E+00  0.10950071301E-01 0.  0.
         14    1    1    2    0    0  0.35413520295E-03 -0.23806672883E-01 -0.80855568650E-03  0.23823031877E-01  0.00000000000E+00 0.  1.
     999901    1    3    3    0    0 -0.71411674861E-02  0.88075127142E-01  0.11153852426E+00  0.89143090966E+00  0.88000000000E+00 0.  1.
        -11    1    4    4    0    0  0.14391107269E-02 -0.17108759323E-01 -0.39586401253E-01  0.43152346060E-01  0.51100000000E-03 0. -1.
         11    1    4    4    0    0  0.53479215562E-02 -0.47159694936E-01 -0.71143567324E-01  0.85523712408E-01  0.51100000000E-03 0.  1.
</event>
<event>
 8    1  0.1126414E+005  0.1043930E+01  0.7957747E-01            NaN
         13   -1    0    0    0    0  0.00000000000E+00  0.00000000000E+00  0.74505805969E-08  0.10566000000E+00  0.10566000000E+00 0.  1.
     999900   -1    0    0    0    0 -0.00000000000E+00 -0.00000000000E+00 -0.74505805969E-08  0.93827000000E+00  0.93827000000E+00 0.  1.
     999902    2    1    2    0    0  0.87787993603E-02  0.20454783553E-01 -0.96335120580E-02  0.10196757211E+01  0.10193872210E+01 0.  0.
     999903    2    3    3    0    0 -0.97683867016E-01 -0.54822321127E-01  0.57782815983E-01  0.12751771770E+00  0.19346569075E-01 0.  0.
         14    1    1    2    0    0 -0.87787993603E-02 -0.20454783553E-01  0.96335120580E-02  0.24254278859E-01  0.00000000000E+00 0.  1.
     999901    1    3    3    0    0  0.10646266638E+00  0.75277104680E-01 -0.67416328041E-01  0.89215800344E+00  0.88000000000E+00 0.  1.
        -11    1    4    4    0    0 -0.48094955196E-01 -0.19068029714E-01  0.34037662593E-01  0.61931721018E-01  0.51100000000E-03 0. -1.
         11    1    4    4    0    0 -0.49588911819E-01 -0.35754291413E-01  0.23745153390E-01  0.65585996680E-01  0.51100000000E-03 0.  1.
</event>
<event>
 8    1  0.1126414E+005  0.1043930E+01  0.7957747E-01            NaN
         13   -1    0    0    0    0  0.00000000000E+00  0.00000000000E+00  0.74505805969E-08  0.10566000000E+00  0.10566000000E+00 0. -1.
     999900   -1    0    0    0    0 -0.00000000000E+00 -0.00000000000E+00 -0.74505805969E-08  0.93827000000E+00  0.93827000000E+00 0.  1.
     999902    2    1    2    0    0  0.79286427903E-02 -0.12481245647E-01 -0.17738956714E-01  0.10208363763E+01  0.10205751279E+01 0.  0.
     999903    2    3    3    0    0 -0.64432167991E-01  0.10009415103E+00 -0.48566520529E-01  0.13018512832E+00  0.20472356376E-01 0.  0.
         14    1    1    2    0    0 -0.79286427903E-02  0.12481245647E-01  0.17738956714E-01  0.23093623681E-01  0.00000000000E+00 0. -1.
     999901    1    3    3    0    0  0.72360810782E-01 -0.11257539668E+00  0.30827563815E-01  0.89065124800E+00  0.88000000000E+00 0.  1.
        -11    1    4    4    0    0 -0.18817714861E-01  0.29495782858E-01 -0.44966113501E-02  0.35278722109E-01  0.51100000000E-03 0.  1.
         11    1    4    4    0    0 -0.45614453130E-01  0.70598368177E-01 -0.44069909179E-01  0.94906406210E-01  0.51100000000E-03 0. -1.
</event>
<event>
 8    1  0.1126414E+005  0.1043930E+01  0.7957747E-01            NaN
         13   -1    0    0    0    0  0.00000000000E+00  0.00000000000E+00  0.74505805969E-08  0.10566000000E+00  0.10566000000E+00 0. -1.
     999900   -1    0    0    0    0 -0.00000000000E+00 -0.00000000000E+00 -0.74505805969E-08  0.93827000000E+00  0.93827000000E+00 0. -1.
     999902    2    1    2    0    0 -0.68071306901E-02 -0.14208104538E-01  0.17514745061E-01  0.10203721232E+01  0.10201001403E+01 0.  0.
     999903    2    3    3    0    0 -0.10050166446E+00  0.70666331583E-01  0.40964124520E-01  0.13102842761E+00  0.19901617138E-01 0.  0.
         14    1    1    2    0    0  0.68071306901E-02  0.14208104538E-01 -0.17514745061E-01  0.23557876758E-01  0.00000000000E+00 0.  1.
     999901    1    3    3    0    0  0.93694533773E-01 -0.84874436121E-01 -0.23449379459E-01  0.88934369563E+00  0.88000000000E+00 0. -1.
        -11    1    4    4    0    0 -0.23971856593E-01  0.11803897013E-01  0.16567577024E-01  0.31444039541E-01  0.51100000000E-03 0. -1.
         11    1    4    4    0    0 -0.76529807870E-01  0.58862434570E-01  0.24396547496E-01  0.99584388068E-01  0.51100000000E-03 0.  1.
</event>
<event>
 8    1  0.1126414E+005  0.1043930E+01  0.7957747E-01            NaN
         13   -1    0    0    0    0  0.00000000000E+00  0.00000000000E+00  0.74505805969E-08  0.10566000000E+00  0.10566000000E+00 0. -1.
     999900   -1    0    0    0    0 -0.00000000000E+00 -0.00000000000E+00 -0.74505805969E-08  0.93827000000E+00  0.93827000000E+00 0.  1.
     999902    2    1    2    0    0 -0.92330619271E-02 -0.93129338412E-02  0.19874621378E-01  0.10201186425E+01  0.10198407053E+01 0.  0.
     999903    2    3    3    0    0 -0.44996178083E-01  0.78752513045E-01  0.93445371980E-01  0.13194795018E+00  0.21251109619E-01 0.  0.
         14    1    1    2    0    0  0.92330619271E-02  0.93129338412E-02 -0.19874621378E-01  0.23811357463E-01  0.00000000000E+00 0.  1.
     999901    1    3    3    0    0  0.35763116156E-01 -0.88065446886E-01 -0.73570750602E-01  0.88817069235E+00  0.88000000000E+00 0. -1.
        -11    1    4    4    0    0 -0.62520754451E-02  0.30752026567E-01  0.34181407420E-01  0.46404798454E-01  0.51100000000E-03 0.  1.
         11    1    4    4    0    0 -0.38744102638E-01  0.48000486478E-01  0.59263964560E-01  0.85543151729E-01  0.51100000000E-03 0. -1.
</event>
<event>
 8    1  0.1126414E+005  0.1043930E+01  0.7957747E-01            NaN
         13   -1    0    0    0    0  0.00000000000E+00  0.00000000000E+00  0.74505805969E-08  0.10566000000E+00  0.10566000000E+00 0.  1.
     999900   -1    0    0    0    0 -0.00000000000E+00 -0.00000000000E+00 -0.74505805969E-08  0.93827000000E+00  0.93827000000E+00 0. -1.
     999902    2    1    2    0    0 -0.16781582003E-01  0.56965803282E-02 -0.16058429903E-01  0.10200146139E+01  0.10197342138E+01 0.  0.
     999903    2    3    3    0    0 -0.12854537625E+00  0.14342607602E-01  0.18693044532E-01  0.13222321695E+00  0.20097886425E-01 0.  0.
         14    1    1    2    0    0  0.16781582003E-01 -0.56965803282E-02  0.16058429903E-01  0.23915386112E-01  0.00000000000E+00 0.  1.
     999901    1    3    3    0    0  0.11176379425E+00 -0.86460272737E-02 -0.34751474434E-01  0.88779139693E+00  0.88000000000E+00 0. -1.
        -11    1    4    4    0    0 -0.98709628533E-01  0.18416701192E-01  0.18507973502E-01  0.10210568962E+00  0.51100000000E-03 0.  1.
         11    1    4    4    0    0 -0.29835747722E-01 -0.40740935900E-02  0.18507102942E-03  0.30117527338E-01  0.51100000000E-03 0. -1.
</event>
<event>
 8    1  0.1126414E+005  0.1043930E+01  0.7957747E-01            NaN
         13   -1    0    0    0    0  0.00000000000E+00  0.00000000000E+00  0.74505805969E-08  0.10566000000E+00  0.10566000000E+00 0. -1.
     999900   -1    0    0    0    0 -0.00000000000E+00 -0.00000000000E+00 -0.74505805969E-08  0.93827000000E+00  0.93827000000E+00 0.  1.
     999902    2    1    2    0    0  0.17595916115E-01  0.18560609800E-01  0.28557355592E-03  0.10183527826E+01  0.10180315298E+01 0.  0.
     999903    2    3    3    0    0  0.21147071302E-01  0.12009502867E+00 -0.44275033353E-01  0.13138745256E+00  0.20793498390E-01 0.  0.
         14    1    1    2    0    0 -0.17595916115E-01 -0.18560609800E-01 -0.28557355592E-03  0.25577217447E-01  0.00000000000E+00 0.  1.
     999901    1    3    3    0    0 -0.35511551868E-02 -0.10153441887E+00  0.44560606909E-01  0.88696532999E+00  0.88000000000E+00 0. -1.
        -11    1    4    4    0    0  0.17684291372E-01  0.65020173766E-01 -0.33127057149E-01  0.75086751123E-01  0.51100000000E-03 0.  1.
         11    1    4    4    0    0  0.34627799294E-02  0.55074854908E-01 -0.11147976204E-01  0.56300701438E-01  0.51100000000E-03 0. -1.
</event>
<event>
 8    1  0.1126414E+005  0.1043930E+01  0.7957747E-01            NaN
         13   -1    0    0    0    0  0.00000000000E+00  0.00000000000E+00  0.74505805969E-08  0.10566000000E+00  0.10566000000E+00 0. -1.
     999900   -1    0    0    0    0 -0.00000000000E+00 -0.00000000000E+00 -0.74505805969E-08  0.93827000000E+00  0.93827000000E+00 0.  1.
     999902    2    1    2    0    0 -0.20628930192E-01  0.42911693360E-02  0.14021579711E-01  0.10186204841E+01  0.10183060047E+01 0.  0.
     999903    2    3    3    0    0  0.34858027074E-01  0.26823738039E-01 -0.11734133233E+00  0.12685665121E+00  0.19723759995E-01 0.  0.
         14    1    1    2    0    0  0.20628930192E-01 -0.42911693360E-02 -0.14021579711E-01  0.25309515853E-01  0.00000000000E+00 0.  1.
     999901    1    3    3    0    0 -0.55486957266E-01 -0.22532568703E-01  0.13136291204E+00  0.89176383294E+00  0.88000000000E+00 0. -1.
        -11    1    4    4    0    0  0.29638742200E-01  0.29914629686E-01 -0.10209061793E+00  0.11043593391E+00  0.51100000000E-03 0. -1.
         11    1    4    4    0    0  0.52192848732E-02 -0.30908916475E-02 -0.15250714401E-01  0.16420717296E-01  0.51100000000E-03 0.  1.
</event>
<event>
 7    1  0.1126414E+005  0.1043930E+01  0.7957747E-01            NaN
         13   -1    0    0    0    0  0.00000000000E+00  0.00000000000E+00  0.74505805969E-08  0.10566000000E+00  0.10566000000E+00 0.  1.
     999900   -1    0    0    0    0 -0.00000000000E+00 -0.00000000000E+00 -0.74505805969E-08  0.93827000000E+00  0.93827000000E+00 0. -1.
     999903    2    1    2    0    0 -0.10701930051E+00 -0.30367228395E-01  0.12835596102E-01  0.11376418515E+00  0.20055873307E-01 0.  0.
         14    1    1    2    0    0 -0.35746542755E-01  0.13150615809E-01  0.42902271800E-02  0.38329623848E-01  0.00000000000E+00 0.  1.
     999901    1    1    2    0    0  0.14276584327E+00  0.17216612586E-01 -0.17125823282E-01  0.89183619100E+00  0.88000000000E+00 0. -1.
        -11    1    3    3    0    0 -0.20837834757E-01  0.19617022730E-02  0.37549645387E-02  0.21270272985E-01  0.51100000000E-03 0. -1.
         11    1    3    3    0    0 -0.86181465753E-01 -0.32328930668E-01  0.90806315629E-02  0.92493912168E-01  0.51100000000E-03 0.  1.
</event>
<event>
 8    1  0.1126414E+005  0.1043930E+01  0.7957747E-01            NaN
         13   -1    0    0    0    0  0.00000000000E+00  0.00000000000E+00  0.74505805969E-08  0.10566000000E+00  0.10566000000E+00 0.  1.
     999900   -1    0    0    0    0 -0.00000000000E+00 -0.00000000000E+00 -0.74505805969E-08  0.93827000000E+00  0.93827000000E+00 0.  1.
     999902    2    1    2    0    0 -0.11808095906E-01  0.20424080603E-01 -0.18680568533E-02  0.10202643322E+01  0.10199898253E+01 0.  0.
     999903    2    3    3    0    0 -0.70290222791E-01 -0.68852173244E-01 -0.82767196980E-01  0.13013227481E+00  0.20066461357E-01 0.  0.
         14    1    1    2    0    0  0.11808095906E-01 -0.20424080603E-01  0.18680568533E-02  0.23665667829E-01  0.00000000000E+00 0. -1.
     999901    1    3    3    0    0  0.58482126885E-01  0.89276253846E-01  0.80899140126E-01  0.89013205736E+00  0.88000000000E+00 0. -1.
        -11    1    4    4    0    0 -0.49492051531E-01 -0.37236240347E-01 -0.44158698252E-01  0.76067420833E-01  0.51100000000E-03 0. -1.
         11    1    4    4    0    0 -0.20798171260E-01 -0.31615932897E-01 -0.38608498728E-01  0.54064853978E-01  0.51100000000E-03 0.  1.
</event>
<event>
 8    1  0.1126414E+005  0.1043930E+01  0.7957747E-01            NaN
         13   -1    0    0    0    0  0.00000000000E+00  0.00000000000E+00  0.74505805969E-08  0.10566000000E+00  0.10566000000E+00 0. -1.
     999900   -1    0    0    0    0 -0.00000000000E+00 -0.00000000000E+00 -0.74505805969E-08  0.93827000000E+00  0.93827000000E+00 0.  1.
     999902    2    1    2    0    0 -0.80458982407E-02 -0.99631194906E-02 -0.19983466988E-01  0.10201952326E+01  0.10199191015E+01 0.  0.
     999903    2    3    3    0    0 -0.97068222463E-01  0.50910292019E-01  0.65965098230E-01  0.12945525807E+00  0.19828565569E-01 0.  0.
         14    1    1    2    0    0  0.80458982407E-02  0.99631194906E-02  0.19983466988E-01  0.23734767354E-01  0.00000000000E+00 0. -1.
     999901    1    3    3    0    0  0.89022324223E-01 -0.60873411509E-01 -0.85948565219E-01  0.89073997457E+00  0.88000000000E+00 0.  1.
        -11    1    4    4    0    0 -0.27426347020E-01  0.72848844221E-02  0.10278516970E-01  0.30185809315E-01  0.51100000000E-03 0. -1.
         11    1    4    4    0    0 -0.69641875444E-01  0.43625407597E-01  0.55686581260E-01  0.99269448758E-01  0.51100000000E-03 0.  1.
</event>
<event>
 8    1  0.1126414E+005  0.1043930E+01  0.7957747E-01            NaN
         13   -1    0    0    0    0  0.00000000000E+00  0.00000000000E+00  0.74505805969E-08  0.10566000000E+00  0.10566000000E+00 0. -1.
     999900   -1    0    0    0    0 -0.00000000000E+00 -0.00000000000E+00 -0.74505805969E-08  0.93827000000E+00  0.93827000000E+00 0.  1.
     999902    2    1    2    0    0 -0.46576895851E-02 -0.19459672104E-01  0.13027646596E-01  0.10200533904E+01  0.10197739096E+01 0.  0.
     999903    2    3    3    0    0  0.12128663900E+00 -0.34713099296E-01  0.28233260966E-01  0.13082571895E+00  0.20069968875E-01 0.  0.
         14    1    1    2    0    0  0.46576895851E-02  0.19459672104E-01 -0.13027646596E-01  0.23876609611E-01  0.00000000000E+00 0.  1.
     999901    1    3    3    0    0 -0.12594432859E+00  0.15253427192E-01 -0.15205614370E-01  0.88922767144E+00  0.88000000000E+00 0.  1.
        -11    1    4    4    0    0  0.33709576713E-01 -0.52052228262E-03  0.81292247634E-02  0.34683597303E-01  0.51100000000E-03 0. -1.
         11    1    4    4    0    0  0.87577062290E-01 -0.34192577014E-01  0.20104036203E-01  0.96142121647E-01  0.51100000000E-03 0.  1.
</event>
<event>
 8    1  0.1126414E+005  0.1043930E+01  0.7957747E-01            NaN
         13   -1    0    0    0    0  0.00000000000E+00  0.00000000000E+00  0.74505805969E-08  0.10566000000E+00  0.10566000000E+00 0. -1.
     999900   -1    0    0    0    0 -0.00000000000E+00 -0.00000000000E+00 -0.74505805969E-08  0.93827000000E+00  0.93827000000E+00 0.  1.
     999902    2    1    2    0    0 -0.32070792536E-02  0.16096520019E-01  0.15829037084E-01  0.10211277692E+01  0.10208731456E+01 0.  0.
     999903    2    3    3    0    0 -0.23839760547E-01  0.12155794234E+00  0.46739840811E-01  0.13405206955E+00  0.20992310587E-01 0.  0.
         14    1    1    2    0    0  0.32070792536E-02 -0.16096520019E-01 -0.15829037084E-01  0.22802230792E-01  0.00000000000E+00 0.  1.
     999901    1    3    3    0    0  0.20632681293E-01 -0.10546142232E+00 -0.30910803726E-01  0.88707569966E+00  0.88000000000E+00 0.  1.
        -11    1    4    4    0    0 -0.45126920834E-02  0.36889982116E-01  0.43824960802E-02  0.37425961087E-01  0.51100000000E-03 0.  1.
         11    1    4    4    0    0 -0.19327068464E-01  0.84667960221E-01  0.42357344730E-01  0.96626108465E-01  0.51100000000E-03 0. -1.
</event>
<event>
 8    1  0.1126414E+005  0.1043930E+01  0.7957747E-01            NaN
         13   -1    0    0    0    0  0.00000000000E+00  0.00000000000E+00  0.74505805969E-08  0.10566000000E+00  0.10566000000E+00 0. -1.
     999900   -1    0    0    0    0 -0.00000000000E+00 -0.00000000000E+00 -0.74505805969E-08  0.93827000000E+00  0.93827000000E+00 0. -1.
     999902    2    1    2    0    0 -0.15673546415E-01 -0.16235316660E-01  0.63674275622E-02  0.10204824053E+01  0.10202129924E+01 0.  0.
     999903    2    3    3    0    0  0.21201844525E-01  0.10897842387E+00 -0.61049807931E-01  0.12830341040E+00  0.20220558582E-01 0.  0.
         14    1    1    2    0    0  0.15673546415E-01  0.16235316660E-01 -0.63674275622E-02  0.23447594718E-01  0.00000000000E+00 0.  1.
     999901    1    3    3    0    0 -0.36875390941E-01 -0.12521374053E+00  0.67417235493E-01  0.89217899489E+00  0.88000000000E+00 0.  1.
        -11    1    4    4    0    0  0.19189553784E-01  0.47803773383E-01 -0.30901892642E-01  0.60071855423E-01  0.51100000000E-03 0. -1.
         11    1    4    4    0    0  0.20122907416E-02  0.61174650491E-01 -0.30147915289E-01  0.68231554972E-01  0.51100000000E-03 0.  1.
</event>
<event>
 8    1  0.1126414E+005  0.1043930E+01  0.7957747E-01            NaN
         13   -1    0    0    0    0  0.00000000000E+00  0.00000000000E+00  0.74505805969E-08  0.10566000000E+00  0.10566000000E+00 0.  1.
     999900   -1    0    0    0    0 -0.00000000000E+00 -0.00000000000E+00 -0.74505805969E-08  0.93827000000E+00  0.93827000000E+00 0. -1.
     999902    2    1    2    0    0  0.17688196218E-01 -0.15729002459E-01  0.83188706181E-03  0.10202452826E+01  0.10199703284E+01 0.  0.
     999903    2    3    3    0    0 -0.10965553299E+00 -0.35669123039E-01  0.54882098697E-01  0.12921472240E+00  0.19692066256E-01 0.  0.
         14    1    1    2    0    0 -0.17688196218E-01  0.15729002459E-01 -0.83188706181E-03  0.23684717433E-01  0.00000000000E+00 0. -1.
     999901    1    3    3    0    0  0.12734372921E+00  0.19940120580E-01 -0.54050211635E-01  0.89103056017E+00  0.88000000000E+00 0.  1.
        -11    1    4    4    0    0 -0.57475636673E-01 -0.16018894943E-01  0.38830293975E-01  0.71190636023E-01  0.51100000000E-03 0.  1.
         11    1    4    4    0    0 -0.52179896317E-01 -0.19650228096E-01  0.16051804722E-01  0.58024086375E-01  0.51100000000E-03 0. -1.
</event>
<event>
 8    1  0.1126414E+005  0.1043930E+01  0.7957747E-01            NaN
         13   -1    0    0    0    0  0.00000000000E+00  0.00000000000E+00  0.74505805969E-08  0.10566000000E+00  0.10566000000E+00 0.  1.
     999900   -1    0    0    0    0 -0.00000000000E+00 -0.00000000000E+00 -0.74505805969E-08  0.93827000000E+00  0.93827000000E+00 0.  1.
     999902    2    1    2    0    0 -0.86129497143E-02  0.16196934099E-03  0.21097405036E-01  0.10211416338E+01  0.10208873231E+01 0.  0.
     999903    2    3    3    0    0  0.75859338700E-01  0.10016940496E+00  0.33450578589E-01  0.13137219419E+00  0.18739350038E-01 0.  0.
         14    1    1    2    0    0  0.86129497143E-02 -0.16196934099E-03 -0.21097405036E-01  0.22788366245E-01  0.00000000000E+00 0. -1.
     999901    1    3    3    0    0 -0.84472288415E-01 -0.10000743562E+00 -0.12353173553E-01  0.88976943957E+00  0.88000000000E+00 0.  1.
        -11    1    4    4    0    0  0.23117726582E-01  0.30991757268E-01  0.19372994161E-01  0.43249188716E-01  0.51100000000E-03 0. -1.
         11    1    4    4    0    0  0.52741612118E-01  0.69177647693E-01  0.14077584428E-01  0.88123005473E-01  0.51100000000E-03 0.  1.
</event>
<event>
 8    1  0.1126414E+005  0.1043930E+01  0.7957747E-01            NaN
         13   -1    0    0    0    0  0.00000000000E+00  0.00000000000E+00  0.74505805969E-08  0.10566000000E+00  0.10566000000E+00 0.  1.
     999900   -1    0    0    0    0 -0.00000000000E+00 -0.00000000000E+00 -0.74505805969E-08  0.93827000000E+00  0.93827000000E+00 0.  1.
     999902    2    1    2    0    0  0.16091339500E-01 -0.67859398342E-02 -0.16328799649E-01  0.10200216357E+01  0.10197414022E+01 0.  0.
     999903    2    3    3    0    0 -0.97347854054E-01  0.46057656449E-01 -0.70273191931E-01  0.12953250394E+00  0.15570345692E-01 0.  0.
         14    1    1    2    0    0 -0.16091339500E-01  0.67859398342E-02  0.16328799649E-01  0.23908364317E-01  0.00000000000E+00 0.  1.
     999901    1    3    3    0    0  0.11343919355E+00 -0.52843596283E-01  0.53944392282E-01  0.89048913175E+00  0.88000000000E+00 0.  1.
        -11    1    4    4    0    0 -0.17450629958E-01  0.41712032141E-02 -0.66519214281E-02  0.19142429362E-01  0.51100000000E-03 0. -1.
         11    1    4    4    0    0 -0.79897224096E-01  0.41886453235E-01 -0.63621270503E-01  0.11039007457E+00  0.51100000000E-03 0.  1.
</event>
<event>
 8    1  0.1126414E+005  0.1043930E+01  0.7957747E-01            NaN
         13   -1    0    0    0    0  0.00000000000E+00  0.00000000000E+00  0.74505805969E-08  0.10566000000E+00  0.10566000000E+00 0. -1.
     999900   -1    0    0    0    0 -0.00000000000E+00 -0.00000000000E+00 -0.74505805969E-08  0.93827000000E+00  0.93827000000E+00 0. -1.
     999902    2    1    2    0    0 -0.21289000452E-01  0.10656769975E-01 -0.18313550900E-04  0.10201226771E+01  0.10198448352E+01 0.  0.
     999903    2    3    3    0    0  0.82181145575E-01 -0.45464903538E-01  0.84964352272E-01  0.12822707403E+00  0.20060987382E-01 0.  0.
         14    1    1    2    0    0  0.21289000452E-01 -0.10656769975E-01  0.18313550900E-04  0.23807322863E-01  0.00000000000E+00 0. -1.
     999901    1    3    3    0    0 -0.10347014603E+00  0.56121673513E-01 -0.84982665822E-01  0.89189560311E+00  0.88000000000E+00 0.  1.
        -11    1    4    4    0    0  0.38135105998E-01 -0.10401943085E-01  0.30950040334E-01  0.50206103684E-01  0.51100000000E-03 0.  1.
         11    1    4    4    0    0  0.44046039577E-01 -0.35062960453E-01  0.54014311937E-01  0.78020970343E-01  0.51100000000E-03 0. -1.
</event>
<event>
 8    1  0.1126414E+005  0.1043930E+01  0.7957747E-01            NaN
         13   -1    0    0    0    0  0.00000000000E+00  0.00000000000E+00  0.74505805969E-08  0.10566000000E+00  0.10566000000E+00 0.  1.
     999900   -1    0    0    0    0 -0.00000000000E+00 -0.00000000000E+00 -0.74505805969E-08  0.93827000000E+00  0.93827000000E+00 0. -1.
     999902    2    1    2    0    0 -0.17835012978E-01  0.11274362291E-02 -0.10065845879E-01  0.10234195136E+01  0.10232139662E+01 0.  0.
     999903    2    3    3    0    0 -0.82705470035E-02  0.47935703930E-01  0.12154838031E+00  0.13235004519E+00  0.19398248546E-01 0.  0.
         14    1    1    2    0    0  0.17835012978E-01 -0.11274362291E-02  0.10065845879E-01  0.20510486431E-01  0.00000000000E+00 0. -1.
     999901    1    3    3    0    0 -0.95644659748E-02 -0.46808267700E-01 -0.13161422619E+00  0.89106946838E+00  0.88000000000E+00 0. -1.
        -11    1    4    4    0    0 -0.14239601128E-01  0.39740020440E-01  0.98041746298E-01  0.10674493245E+00  0.51100000000E-03 0. -1.
         11    1    4    4    0    0  0.59690541241E-02  0.81956834900E-02  0.23506634016E-01  0.25605112746E-01  0.51100000000E-03 0.  1.
</event>
<event>
 8    1  0.1126414E+005  0.1043930E+01  0.7957747E-01            NaN
         13   -1    0    0    0    0  0.00000000000E+00  0.00000000000E+00  0.74505805969E-08  0.10566000000E+00  0.10566000000E+00 0. -1.
     999900   -1    0    0    0    0 -0.00000000000E+00 -0.00000000000E+00 -0.74505805969E-08  0.93827000000E+00  0.93827000000E+00 0. -1.
     999902    2    1    2    0    0  0.67538757422E-02 -0.16263122714E-01  0.10014466119E-01  0.10236718281E+01  0.10234713567E+01 0.  0.
     999903    2    3    3    0    0 -0.90661623877E-02 -0.12615231272E+00 -0.42699120743E-01  0.13513109748E+00  0.20990409480E-01 0.  0.
         14    1    1    2    0    0 -0.67538757422E-02  0.16263122714E-01 -0.10014466119E-01  0.20258171922E-01  0.00000000000E+00 0.  1.
     999901    1    3    3    0    0  0.15820038130E-01  0.10988919000E+00  0.52713586862E-01  0.88854073059E+00  0.88000000000E+00 0. -1.
        -11    1    4    4    0    0 -0.48730813675E-02 -0.10555330050E+00 -0.43051305126E-01  0.11410049151E+00  0.51100000000E-03 0.  1.
         11    1    4    4    0    0 -0.41930810202E-02 -0.20599012219E-01  0.35218438286E-03  0.21030605975E-01  0.51100000000E-03 0. -1.
</event>
<event>
 8    1  0.1290823E+005  0.1043930E+01  0.7957747E-01            NaN
         13   -1    0    0    0    0  0.00000000000E+00  0.00000000000E+00  0.74505805969E-08  0.10566000000E+00  0.10566000000E+00 0. -1.
     999900   -1    0    0    0    0 -0.00000000000E+00 -0.00000000000E+00 -0.74505805969E-08  0.93827000000E+00  0.93827000000E+00 0.  1.
     999902    2    1    2    0    0  0.23862502706E-02 -0.64063144587E-02 -0.23151265519E-01  0.10197904857E+01  0.10195047418E+01 0.  0.
     999903    2    3    3    0    0 -0.51357609425E-02 -0.27593446018E-01 -0.12866339032E+00  0.13320248461E+00  0.20021478326E-01 0.  0.
         14    1    1    2    0    0 -0.23862502706E-02  0.64063144587E-02  0.23151265519E-01  0.24139514295E-01  0.00000000000E+00 0. -1.
     999901    1    3    3    0    0  0.75220112131E-02  0.21187131559E-01  0.10551212480E+00  0.88658800109E+00  0.88000000000E+00 0. -1.
        -11    1    4    4    0    0  0.45747490719E-02 -0.93148042793E-02 -0.74425033284E-01  0.75146793732E-01  0.51100000000E-03 0. -1.
         11    1    4    4    0    0 -0.97105100144E-02 -0.18278641738E-01 -0.54238357039E-01  0.58055690883E-01  0.51100000000E-03 0.  1.
</event>
<event>
 8    1  0.1126414E+005  0.1043930E+01  0.7957747E-01            NaN
         13   -1    0    0    0    0  0.00000000000E+00  0.00000000000E+00  0.74505805969E-08  0.10566000000E+00  0.10566000000E+00 0.  1.
     999900   -1    0    0    0    0 -0.00000000000E+00 -0.00000000000E+00 -0.74505805969E-08  0.93827000000E+00  0.93827000000E+00 0.  1.
     999902    2    1    2    0    0  0.53542648406E-02  0.10576788745E-01 -0.18111087111E-01  0.10222840284E+01  0.10220548354E+01 0.  0.
     999903    2    3    3    0    0  0.87658979414E-01  0.62676029145E-01  0.73975052581E-01  0.13213333661E+00  0.19352750136E-01 0.  0.
         14    1    1    2    0    0 -0.53542648406E-02 -0.10576788745E-01  0.18111087111E-01  0.21645971645E-01  0.00000000000E+00 0.  1.
     999901    1    3    3    0    0 -0.82304714573E-01 -0.52099240401E-01 -0.92086139692E-01  0.89015069175E+00  0.88000000000E+00 0.  1.
        -11    1    4    4    0    0  0.85889684401E-01  0.56382310207E-01  0.67601757058E-01  0.12298886726E+00  0.51100000000E-03 0. -1.
         11    1    4    4    0    0  0.17692950131E-02  0.62937189384E-02  0.63732955227E-02  0.91444693525E-02  0.51100000000E-03 0.  1.
</event>
<event>
 8    1  0.1143537E+005  0.1043930E+01  0.7957747E-01            NaN
         13   -1    0    0    0    0  0.00000000000E+00  0.00000000000E+00  0.74505805969E-08  0.10566000000E+00  0.10566000000E+00 0. -1.
     999900   -1    0    0    0    0 -0.00000000000E+00 -0.00000000000E+00 -0.74505805969E-08  0.93827000000E+00  0.93827000000E+00 0.  1.
     999902    2    1    2    0    0  0.17933865426E-01  0.58579232997E-02  0.13692669545E-01  0.10206184579E+01  0.10203521983E+01 0.  0.
     999903    2    3    3    0    0 -0.78188647378E-01 -0.92110085703E-01  0.42180360222E-01  0.12952428963E+00  0.19990656525E-01 0.  0.
         14    1    1    2    0    0 -0.17933865426E-01 -0.58579232997E-02 -0.13692669545E-01  0.23311542072E-01  0.00000000000E+00 0.  1.
     999901    1    3    3    0    0  0.96122512805E-01  0.97968009003E-01 -0.28487690678E-01  0.89109416830E+00  0.88000000000E+00 0. -1.
        -11    1    4    4    0    0 -0.46328899032E-01 -0.39187917789E-01  0.21609342607E-01  0.64414940775E-01  0.51100000000E-03 0.  1.
         11    1    4    4    0    0 -0.31859748346E-01 -0.52922167915E-01  0.20571017616E-01  0.65109348854E-01  0.51100000000E-03 0. -1.
</event>
<event>
 8    1  0.1126414E+005  0.1043930E+01  0.7957747E-01            NaN
         13   -1    0    0    0    0  0.00000000000E+00  0.00000000000E+00  0.74505805969E-08  0.10566000000E+00  0.10566000000E+00 0. -1.
     999900   -1    0    0    0    0 -0.00000000000E+00 -0.00000000000E+00 -0.74505805969E-08  0.93827000000E+00  0.93827000000E+00 0.  1.
     999902    2    1    2    0    0 -0.14796543795E-01  0.13852910866E-01 -0.11635746786E-01  0.10205584050E+01  0.10202907559E+01 0.  0.
     999903    2    3    3    0    0 -0.45327344363E-02 -0.54679710524E-02  0.12785212698E+00  0.12930338587E+00  0.17965378823E-01 0.  0.
         14    1    1    2    0    0  0.14796543795E-01 -0.13852910866E-01  0.11635746786E-01  0.23371594961E-01  0.00000000000E+00 0. -1.
     999901    1    3    3    0    0 -0.10263809359E-01  0.19320881919E-01 -0.13948787377E+00  0.89125501917E+00  0.88000000000E+00 0.  1.
        -11    1    4    4    0    0  0.16941736071E-02  0.59515223920E-02  0.35594786157E-01  0.36132267650E-01  0.51100000000E-03 0. -1.
         11    1    4    4    0    0 -0.62269080434E-02 -0.11419493444E-01  0.92257340823E-01  0.93171118223E-01  0.51100000000E-03 0.  1.
</event>
<event>
 8    1  0.1126414E+005  0.1043930E+01  0.7957747E-01            NaN
         13   -1    0    0    0    0  0.00000000000E+00  0.00000000000E+00  0.74505805969E-08  0.10566000000E+00  0.10566000000E+00 0.  1.
     999900   -1    0    0    0    0 -0.00000000000E+00 -0.00000000000E+00 -0.74505805969E-08  0.93827000000E+00  0.93827000000E+00 0.  1.
     999902    2    1    2    0    0  0.10438814433E-01 -0.20812455059E-01 -0.55821728711E-02  0.10199865711E+01  0.10197055053E+01 0.  0.
     999903    2    3    3    0    0  0.46381745684E-01  0.92600271633E-01  0.73625606879E-01  0.12845518455E+00  0.18812969175E-01 0.  0.
         14    1    1    2    0    0 -0.10438814433E-01  0.20812455059E-01  0.55821728711E-02  0.23943428875E-01  0.00000000000E+00 0. -1.
     999901    1    3    3    0    0 -0.35942931252E-01 -0.11341272669E+00 -0.79207779750E-01  0.89153138658E+00  0.88000000000E+00 0.  1.
        -11    1    4    4    0    0  0.18807219292E-01  0.53292601781E-01  0.47278785586E-01  0.73684174620E-01  0.51100000000E-03 0. -1.
         11    1    4    4    0    0  0.27574526392E-01  0.39307669852E-01  0.26346821293E-01  0.54771009925E-01  0.51100000000E-03 0.  1.
</event>
<event>
 8    1  0.1126414E+005  0.1043930E+01  0.7957747E-01            NaN
         13   -1    0    0    0    0  0.00000000000E+00  0.00000000000E+00  0.74505805969E-08  0.10566000000E+00  0.10566000000E+00 0.  1.
     999900   -1    0    0    0    0 -0.00000000000E+00 -0.00000000000E+00 -0.74505805969E-08  0.93827000000E+00  0.93827000000E+00 0.  1.
     999902    2    1    2    0    0 -0.91771467391E-02 -0.21538276210E-01  0.74218965587E-02  0.10193698308E+01  0.10190739178E+01 0.  0.
     999903    2    3    3    0    0 -0.12002878493E+00  0.44795680998E-01 -0.70085382460E-02  0.12982134023E+00  0.19771153766E-01 0.  0.
         14    1    1    2    0    0  0.91771467391E-02  0.21538276210E-01 -0.74218965587E-02  0.24560169236E-01  0.00000000000E+00 0.  1.
     999901    1    3    3    0    0  0.11085163819E+00 -0.66333957208E-01  0.14430434805E-01  0.88954849054E+00  0.88000000000E+00 0. -1.
        -11    1    4    4    0    0 -0.71328140292E-01  0.22816444097E-01  0.49944430118E-02  0.75056640617E-01  0.51100000000E-03 0.  1.
         11    1    4    4    0    0 -0.48700644641E-01  0.21979236901E-01 -0.12002981258E-01  0.54764699609E-01  0.51100000000E-03 0. -1.
</event>
<event>
 8    1  0.1126414E+005  0.1043930E+01  0.7957747E-01            NaN
         13   -1    0    0    0    0  0.00000000000E+00  0.00000000000E+00  0.74505805969E-08  0.10566000000E+00  0.10566000000E+00 0.  1.
     999900   -1    0    0    0    0 -0.00000000000E+00 -0.00000000000E+00 -0.74505805969E-08  0.93827000000E+00  0.93827000000E+00 0. -1.
     999902    2    1    2    0    0  0.23553972273E-01  0.20736119001E-02 -0.72861716734E-02  0.10191877735E+01  0.10188874029E+01 0.  0.
     999903    2    3    3    0    0 -0.15669923928E-01 -0.10913098567E+00 -0.64917798031E-01  0.12945389139E+00  0.19719811019E-01 0.  0.
         14    1    1    2    0    0 -0.23553972273E-01 -0.20736119001E-02  0.72861716734E-02  0.24742226533E-01  0.00000000000E+00 0.  1.
     999901    1    3    3    0    0  0.39223896201E-01  0.11120459757E+00  0.57631626358E-01  0.88973388207E+00  0.88000000000E+00 0.  1.
        -11    1    4    4    0    0 -0.95653982923E-02 -0.48385878525E-01 -0.40023939451E-01  0.63520602448E-01  0.51100000000E-03 0. -1.
         11    1    4    4    0    0 -0.61045256356E-02 -0.60745107144E-01 -0.24893858580E-01  0.65933288946E-01  0.51100000000E-03 0.  1.
</event>
<event>
 8    1  0.1126414E+005  0.1043930E+01  0.7957747E-01            NaN
         13   -1    0    0    0    0  0.00000000000E+00  0.00000000000E+00  0.74505805969E-08  0.10566000000E+00  0.10566000000E+00 0. -1.
     999900   -1    0    0    0    0 -0.00000000000E+00 -0.00000000000E+00 -0.74505805969E-08  0.93827000000E+00  0.93827000000E+00 0. -1.
     999902    2    1    2    0    0  0.22154093187E-01 -0.34733082778E-02  0.45913487626E-02  0.10210400852E+01  0.10207834772E+01 0.  0.
     999903    2    3    3    0    0  0.12111213861E+00  0.21284121499E-02 -0.52587910720E-01  0.13363175658E+00  0.20476272975E-01 0.  0.
         14    1    1    2    0    0 -0.22154093187E-01  0.34733082778E-02 -0.45913487626E-02  0.22889914784E-01  0.00000000000E+00 0.  1.
     999901    1    3    3    0    0 -0.98958045422E-01 -0.56017204277E-02  0.57179259483E-01  0.88740832864E+00  0.88000000000E+00 0.  1.
        -11    1    4    4    0    0  0.37166573849E-01  0.42653930958E-02 -0.25954444034E-01  0.45535064248E-01  0.51100000000E-03 0. -1.
         11    1    4    4    0    0  0.83945564760E-01 -0.21369809459E-02 -0.26633466686E-01  0.88096692328E-01  0.51100000000E-03 0.  1.
</event>
<event>
 8    1  0.1126414E+005  0.1043930E+01  0.7957747E-01            NaN
         13   -1    0    0    0    0  0.00000000000E+00  0.00000000000E+00  0.74505805969E-08  0.10566000000E+00  0.10566000000E+00 0. -1.
     999900   -1    0    0    0    0 -0.00000000000E+00 -0.00000000000E+00 -0.74505805969E-08  0.93827000000E+00  0.93827000000E+00 0. -1.
     999902    2    1    2    0    0  0.16652549184E-01 -0.56154134784E-02 -0.16012418482E-01  0.10201552695E+01  0.10198781967E+01 0.  0.
     999903    2    3    3    0    0  0.47780568675E-01  0.21474821745E-01 -0.12051777339E+00  0.13301142345E+00  0.20575576625E-01 0.  0.
         14    1    1    2    0    0 -0.16652549184E-01  0.56154134784E-02  0.16012418482E-01  0.23774730462E-01  0.00000000000E+00 0.  1.
     999901    1    3    3    0    0 -0.31128019491E-01 -0.27090235223E-01  0.10450535491E+00  0.88714384609E+00  0.88000000000E+00 0.  1.
        -11    1    4    4    0    0  0.48616157036E-01  0.17190584408E-01 -0.10663603772E+00  0.11845063351E+00  0.51100000000E-03 0. -1.
         11    1    4    4    0    0 -0.83558836178E-03  0.42842373365E-02 -0.13881735670E-01  0.14560789940E-01  0.51100000000E-03 0.  1.
</event>
<event>
 8    1  0.1126414E+005  0.1043930E+01  0.7957747E-01            NaN
         13   -1    0    0    0    0  0.00000000000E+00  0.00000000000E+00  0.74505805969E-08  0.10566000000E+00  0.10566000000E+00 0.  1.
     999900   -1    0    0    0    0 -0.00000000000E+00 -0.00000000000E+00 -0.74505805969E-08  0.93827000000E+00  0.93827000000E+00 0.  1.
     999902    2    1    2    0    0  0.17645904952E-01 -0.47011068701E-03 -0.15853588388E-01  0.10202037439E+01  0.10199278130E+01 0.  0.
     999903    2    3    3    0    0  0.11118643833E+00  0.35853480063E-01  0.56813025740E-01  0.13152513410E+00  0.20572916823E-01 0.  0.
         14    1    1    2    0    0 -0.17645904952E-01  0.47011068701E-03  0.15853588388E-01  0.23726256139E-01  0.00000000000E+00 0.  1.
     999901    1    3    3    0    0 -0.93540533377E-01 -0.36323590750E-01 -0.72666614127E-01  0.88867860976E+00  0.88000000000E+00 0.  1.
        -11    1    4    4    0    0  0.75518599582E-01  0.17673772903E-01  0.29135080661E-01  0.82852490473E-01  0.51100000000E-03 0. -1.
         11    1    4    4    0    0  0.35667838747E-01  0.18179707160E-01  0.27677945079E-01  0.48672643631E-01  0.51100000000E-03 0.  1.
</event>
<event>
 8    1  0.1126414E+005  0.1043930E+01  0.7957747E-01            NaN
         13   -1    0    0    0    0  0.00000000000E+00  0.00000000000E+00  0.74505805969E-08  0.10566000000E+00  0.10566000000E+00 0.  1.
     999900   -1    0    0    0    0 -0.00000000000E+00 -0.00000000000E+00 -0.74505805969E-08  0.93827000000E+00  0.93827000000E+00 0.  1.
     999902    2    1    2    0    0 -0.23841446861E-01 -0.27386152126E-02 -0.45872077193E-02  0.10194972949E+01  0.10192044826E+01 0.  0.
     999903    2    3    3    0    0  0.27521593043E-01  0.70340324667E-01  0.10206803023E+00  0.12856854745E+00  0.20169016886E-01 0.  0.
         14    1    1    2    0    0  0.23841446861E-01  0.27386152126E-02  0.45872077193E-02  0.24432705056E-01  0.00000000000E+00 0.  1.
     999901    1    3    3    0    0 -0.51363039904E-01 -0.73078939880E-01 -0.10665523795E+00  0.89092874749E+00  0.88000000000E+00 0.  1.
        -11    1    4    4    0    0  0.16562102810E-01  0.37990700601E-01  0.71918993722E-01  0.83007224749E-01  0.51100000000E-03 0.  1.
         11    1    4    4    0    0  0.10959490234E-01  0.32349624067E-01  0.30149036505E-01  0.45561322705E-01  0.51100000000E-03 0. -1.
</event>
<event>
 8    1  0.1126414E+005  0.1043930E+01  0.7957747E-01            NaN
         13   -1    0    0    0    0  0.00000000000E+00  0.00000000000E+00  0.74505805969E-08  0.10566000000E+00  0.10566000000E+00 0.  1.
     999900   -1    0    0    0    0 -0.00000000000E+00 -0.00000000000E+00 -0.74505805969E-08  0.93827000000E+00  0.93827000000E+00 0.  1.
     999902    2    1    2    0    0 -0.66737114613E-04 -0.22575486359E-01 -0.73857292271E-02  0.10201769784E+01  0.10199004173E+01 0.  0.
     999903    2    3    3    0    0  0.63277215794E-02 -0.13111279989E+00 -0.12148396509E-01  0.13347301399E+00  0.20901090190E-01 0.  0.
         14    1    1    2    0    0  0.66737114613E-04  0.22575486359E-01  0.73857292271E-02  0.23753021585E-01  0.00000000000E+00 0. -1.
     999901    1    3    3    0    0 -0.63944586940E-02  0.10853731353E+00  0.47626672822E-02  0.88670396443E+00  0.88000000000E+00 0.  1.
        -11    1    4    4    0    0 -0.22658881173E-02 -0.35950764372E-01 -0.11841301055E-01  0.37921883386E-01  0.51100000000E-03 0. -1.
         11    1    4    4    0    0  0.85936096967E-02 -0.95162035514E-01 -0.30709545474E-03  0.95551130602E-01  0.51100000000E-03 0.  1.
</event>
<event>
 8    1  0.1126414E+005  0.1043930E+01  0.7957747E-01            NaN
         13   -1    0    0    0    0  0.00000000000E+00  0.00000000000E+00  0.74505805969E-08  0.10566000000E+00  0.10566000000E+00 0. -1.
     999900   -1    0    0    0    0 -0.00000000000E+00 -0.00000000000E+00 -0.74505805969E-08  0.93827000000E+00  0.93827000000E+00 0. -1.
     999902    2    1    2    0    0 -0.23629326720E-01  0.13269068852E-03 -0.55973545163E-02  0.10196464034E+01  0.10193571969E+01 0.  0.
     999903    2    3    3    0    0 -0.34077159444E-01  0.11991125049E+00  0.33763001431E-01  0.13059899281E+00  0.19395769277E-01 0.  0.
         14    1    1    2    0    0  0.23629326720E-01 -0.13269068852E-03  0.55973545163E-02  0.24283596637E-01  0.00000000000E+00 0.  1.
     999901    1    3    3    0    0  0.10447832724E-01 -0.11977855980E+00 -0.39360355947E-01  0.88904741056E+00  0.88000000000E+00 0. -1.
        -11    1    4    4    0    0 -0.34869211329E-01  0.96119529720E-01  0.29392504219E-01  0.10639081877E+00  0.51100000000E-03 0.  1.
         11    1    4    4    0    0  0.79205188443E-03  0.23791720773E-01  0.43704972121E-02  0.24208174041E-01  0.51100000000E-03 0. -1.
</event>
<event>
 8    1  0.1126414E+005  0.1043930E+01  0.7957747E-01            NaN
         13   -1    0    0    0    0  0.00000000000E+00  0.00000000000E+00  0.74505805969E-08  0.10566000000E+00  0.10566000000E+00 0. -1.
     999900   -1    0    0    0    0 -0.00000000000E+00 -0.00000000000E+00 -0.74505805969E-08  0.93827000000E+00  0.93827000000E+00 0.  1.
     999902    2    1    2    0    0 -0.19314518102E-01  0.13798093001E-01  0.82290848610E-02  0.10188071853E+01  0.10184973859E+01 0.  0.
     999903    2    3    3    0    0  0.19973595614E-01 -0.69855115857E-01 -0.10229865760E+00  0.12709097649E+00  0.20209384571E-01 0.  0.
         14    1    1    2    0    0  0.19314518102E-01 -0.13798093001E-01 -0.82290848610E-02  0.25122814683E-01  0.00000000000E+00 0.  1.
     999901    1    3    3    0    0 -0.39288113715E-01  0.83653208858E-01  0.11052774246E+00  0.89171620883E+00  0.88000000000E+00 0. -1.
        -11    1    4    4    0    0  0.93142599390E-02 -0.20986035085E-01 -0.48314518417E-01  0.53495073770E-01  0.51100000000E-03 0.  1.
         11    1    4    4    0    0  0.10659335675E-01 -0.48869080772E-01 -0.53984139185E-01  0.73595902719E-01  0.51100000000E-03 0. -1.
</event>
<event>
 8    1  0.1126414E+005  0.1043930E+01  0.7957747E-01            NaN
         13   -1    0    0    0    0  0.00000000000E+00  0.00000000000E+00  0.74505805969E-08  0.10566000000E+00  0.10566000000E+00 0.  1.
     999900   -1    0    0    0    0 -0.00000000000E+00 -0.00000000000E+00 -0.74505805969E-08  0.93827000000E+00  0.93827000000E+00 0.  1.
     999902    2    1    2    0    0  0.29176341485E-01 -0.24675387471E-02  0.14504153251E-01  0.10112540438E+01  0.10107259881E+01 0.  0.
     999903    2    3    3    0    0 -0.89668356521E-01 -0.19294717165E-01  0.76164529374E-01  0.12096801218E+00  0.20482289024E-01 0.  0.
         14    1    1    2    0    0 -0.29176341485E-01  0.24675387471E-02 -0.14504153251E-01  0.32675956167E-01  0.00000000000E+00 0. -1.
     999901    1    3    3    0    0  0.11884469801E+00  0.16827178418E-01 -0.61660376123E-01  0.89028603166E+00  0.88000000000E+00 0.  1.
        -11    1    4    4    0    0 -0.24760899180E-01 -0.94034646199E-02  0.33316654764E-01  0.42565101676E-01  0.51100000000E-03 0.  1.
         11    1    4    4    0    0 -0.64907457341E-01 -0.98912525448E-02  0.42847874610E-01  0.78402910501E-01  0.51100000000E-03 0. -1.
</event>
<event>
 8    1  0.1126414E+005  0.1043930E+01  0.7957747E-01            NaN
         13   -1    0    0    0    0  0.00000000000E+00  0.00000000000E+00  0.74505805969E-08  0.10566000000E+00  0.10566000000E+00 0. -1.
     999900   -1    0    0    0    0 -0.00000000000E+00 -0.00000000000E+00 -0.74505805969E-08  0.93827000000E+00  0.93827000000E+00 0.  1.
     999902    2    1    2    0    0  0.79524492502E-02 -0.20993706926E-01 -0.89046609489E-02  0.10197790131E+01  0.10194929943E+01 0.  0.
     999903    2    3    3    0    0 -0.25423142898E-01  0.12263774592E+00  0.10757111623E-01  0.12729343360E+00  0.20038709232E-01 0.  0.
         14    1    1    2    0    0 -0.79524492502E-02  0.20993706926E-01  0.89046609489E-02  0.24150986857E-01  0.00000000000E+00 0. -1.
     999901    1    3    3    0    0  0.33375592148E-01 -0.14363145284E+00 -0.19661772571E-01  0.89248557955E+00  0.88000000000E+00 0. -1.
        -11    1    4    4    0    0 -0.19103967274E-01  0.60063694338E-01 -0.22385457549E-02  0.63070445942E-01  0.51100000000E-03 0. -1.
         11    1    4    4    0    0 -0.63191756240E-02  0.62574051580E-01  0.12995657377E-01  0.64222987655E-01  0.51100000000E-03 0.  1.
</event>
<event>
 8    1  0.1346362E+005  0.1043930E+01  0.7957747E-01            NaN
         13   -1    0    0    0    0  0.00000000000E+00  0.00000000000E+00  0.74505805969E-08  0.10566000000E+00  0.10566000000E+00 0.  1.
     999900   -1    0    0    0    0 -0.00000000000E+00 -0.00000000000E+00 -0.74505805969E-08  0.93827000000E+00  0.93827000000E+00 0. -1.
     999902    2    1    2    0    0  0.12027869083E-02  0.23060429880E-02 -0.23378365574E-01  0.10204074043E+01  0.10201362450E+01 0.  0.
     999903    2    3    3    0    0 -0.19428470799E-01 -0.12272296531E+00  0.31045877807E-01  0.12966619612E+00  0.20275211363E-01 0.  0.
         14    1    1    2    0    0 -0.12027869083E-02 -0.23060429880E-02  0.23378365574E-01  0.23522595680E-01  0.00000000000E+00 0.  1.
     999901    1    3    3    0    0  0.20631257707E-01  0.12502900830E+00 -0.54424243381E-01  0.89074120820E+00  0.88000000000E+00 0.  1.
        -11    1    4    4    0    0 -0.16092714109E-01 -0.51855945246E-01  0.19999270740E-01  0.57864034217E-01  0.51100000000E-03 0.  1.
         11    1    4    4    0    0 -0.33357566894E-02 -0.70867020067E-01  0.11046607067E-01  0.71802161907E-01  0.51100000000E-03 0. -1.
</event>
<event>
 8    1  0.1192277E+005  0.1043930E+01  0.7957747E-01            NaN
         13   -1    0    0    0    0  0.00000000000E+00  0.00000000000E+00  0.74505805969E-08  0.10566000000E+00  0.10566000000E+00 0.  1.
     999900   -1    0    0    0    0 -0.00000000000E+00 -0.00000000000E+00 -0.74505805969E-08  0.93827000000E+00  0.93827000000E+00 0. -1.
     999902    2    1    2    0    0 -0.30209836492E-01 -0.10547999010E-01 -0.36244193174E-02  0.10117270355E+01  0.10112144004E+01 0.  0.
     999903    2    3    3    0    0 -0.95896170042E-01  0.56248565029E-01 -0.54369901742E-01  0.12530073891E+00  0.19601338226E-01 0.  0.
         14    1    1    2    0    0  0.30209836492E-01  0.10547999010E-01  0.36244193174E-02  0.32202964450E-01  0.00000000000E+00 0. -1.
     999901    1    3    3    0    0  0.65686333550E-01 -0.66796564038E-01  0.50745482424E-01  0.88642629664E+00  0.88000000000E+00 0.  1.
        -11    1    4    4    0    0 -0.54778471505E-01  0.20849412772E-01 -0.29318384376E-01  0.65537834392E-01  0.51100000000E-03 0.  1.
         11    1    4    4    0    0 -0.41117698537E-01  0.35399152257E-01 -0.25051517366E-01  0.59762904521E-01  0.51100000000E-03 0. -1.
</event>
<event>
 8    1  0.1126414E+005  0.1043930E+01  0.7957747E-01            NaN
         13   -1    0    0    0    0  0.00000000000E+00  0.00000000000E+00  0.74505805969E-08  0.10566000000E+00  0.10566000000E+00 0. -1.
     999900   -1    0    0    0    0 -0.00000000000E+00 -0.00000000000E+00 -0.74505805969E-08  0.93827000000E+00  0.93827000000E+00 0. -1.
     999902    2    1    2    0    0 -0.20438244260E-01  0.38913633506E-02 -0.76466081334E-02  0.10217639189E+01  0.10215234558E+01 0.  0.
     999903    2    3    3    0    0  0.11962358434E+00 -0.38161464488E-01  0.22930965486E-01  0.12917177002E+00  0.19834759649E-01 0.  0.
         14    1    1    2    0    0  0.20438244260E-01 -0.38913633506E-02  0.76466081334E-02  0.22166081140E-01  0.00000000000E+00 0. -1.
     999901    1    3    3    0    0 -0.14006182860E+00  0.42052827839E-01 -0.30577573619E-01  0.89259214884E+00  0.88000000000E+00 0. -1.
        -11    1    4    4    0    0  0.92597075996E-01 -0.25623373885E-01  0.25076992091E-01  0.99296991020E-01  0.51100000000E-03 0.  1.
         11    1    4    4    0    0  0.27026508343E-01 -0.12538090603E-01 -0.21460266058E-02  0.29874779002E-01  0.51100000000E-03 0. -1.
</event>
<event>
 8    1  0.1126414E+005  0.1043930E+01  0.7957747E-01            NaN
         13   -1    0    0    0    0  0.00000000000E+00  0.00000000000E+00  0.74505805969E-08  0.10566000000E+00  0.10566000000E+00 0.  1.
     999900   -1    0    0    0    0 -0.00000000000E+00 -0.00000000000E+00 -0.74505805969E-08  0.93827000000E+00  0.93827000000E+00 0. -1.
     999902    2    1    2    0    0  0.76350392422E-02 -0.53787584169E-02  0.21287052936E-01  0.10206842802E+01  0.10204195394E+01 0.  0.
     999903    2    3    3    0    0  0.59019724322E-02 -0.85283303214E-01 -0.95149166659E-01  0.12942386201E+00  0.19725543229E-01 0.  0.
         14    1    1    2    0    0 -0.76350392422E-02  0.53787584169E-02 -0.21287052936E-01  0.23245719800E-01  0.00000000000E+00 0. -1.
     999901    1    3    3    0    0  0.17330668100E-02  0.79904544797E-01  0.11643621960E+00  0.89126041819E+00  0.88000000000E+00 0.  1.
        -11    1    4    4    0    0 -0.52552731405E-02 -0.41291501820E-01 -0.53808816513E-01  0.68031285993E-01  0.51100000000E-03 0.  1.
         11    1    4    4    0    0  0.11157245573E-01 -0.43991801394E-01 -0.41340350147E-01  0.61392576016E-01  0.51100000000E-03 0. -1.
</event>
<event>
 8    1  0.1126414E+005  0.1043930E+01  0.7957747E-01            NaN
         13   -1    0    0    0    0  0.00000000000E+00  0.00000000000E+00  0.74505805969E-08  0.10566000000E+00  0.10566000000E+00 0.  1.
     999900   -1    0    0    0    0 -0.00000000000E+00 -0.00000000000E+00 -0.74505805969E-08  0.93827000000E+00  0.93827000000E+00 0.  1.
     999902    2    1    2    0    0 -0.64728371069E-02 -0.15626166549E-02 -0.24739265399E-01  0.10183102685E+01  0.10179879332E+01 0.  0.
     999903    2    3    3    0    0  0.47236328720E-02 -0.12666584426E+00 -0.17236438060E-01  0.12936006125E+00  0.19245306970E-01 0.  0.
         14    1    1    2    0    0  0.64728371069E-02  0.15626166549E-02  0.24739265399E-01  0.25619731527E-01  0.00000000000E+00 0.  1.
     999901    1    3    3    0    0 -0.11196469979E-01  0.12510322761E+00 -0.75028273397E-02  0.88895020722E+00  0.88000000000E+00 0.  1.
        -11    1    4    4    0    0  0.66355870314E-02 -0.18885309828E-01  0.91163536103E-03  0.20044404271E-01  0.51100000000E-03 0.  1.
         11    1    4    4    0    0 -0.19119541595E-02 -0.10778053443E+00 -0.18148073421E-01  0.10931565698E+00  0.51100000000E-03 0. -1.
</event>
<event>
 8    1  0.1126414E+005  0.1043930E+01  0.7957747E-01            NaN
         13   -1    0    0    0    0  0.00000000000E+00  0.00000000000E+00  0.74505805969E-08  0.10566000000E+00  0.10566000000E+00 0. -1.
     999900   -1    0    0    0    0 -0.00000000000E+00 -0.00000000000E+00 -0.74505805969E-08  0.93827000000E+00  0.93827000000E+00 0. -1.
     999902    2    1    2    0    0 -0.66883452817E-02  0.18602873803E-01  0.76724914611E-02  0.10227246233E+01  0.10225047614E+01 0.  0.
     999903    2    3    3    0    0 -0.13223033989E-01 -0.59974973966E-02  0.13142160699E+00  0.13370171919E+00  0.19841681559E-01 0.  0.
         14    1    1    2    0    0  0.66883452817E-02 -0.18602873803E-01 -0.76724914611E-02  0.21205376713E-01  0.00000000000E+00 0. -1.
     999901    1    3    3    0    0  0.65346887078E-02  0.24600371200E-01 -0.12374911553E+00  0.88902290410E+00  0.88000000000E+00 0. -1.
        -11    1    4    4    0    0 -0.13898638544E-01 -0.11624790155E-01  0.83590189031E-01  0.85532968631E-01  0.51100000000E-03 0. -1.
         11    1    4    4    0    0  0.67560455408E-03  0.56272927587E-02  0.47831417958E-01  0.48168750556E-01  0.51100000000E-03 0.  1.
</event>
<event>
 8    1  0.1126414E+005  0.1043930E+01  0.7957747E-01            NaN
         13   -1    0    0    0    0  0.00000000000E+00  0.00000000000E+00  0.74505805969E-08  0.10566000000E+00  0.10566000000E+00 0. -1.
     999900   -1    0    0    0    0 -0.00000000000E+00 -0.00000000000E+00 -0.74505805969E-08  0.93827000000E+00  0.93827000000E+00 0.  1.
     999902    2    1    2    0    0 -0.15666442457E-02 -0.15432250231E-01 -0.17779814664E-01  0.10203348621E+01  0.10200620081E+01 0.  0.
     999903    2    3    3    0    0  0.36842637922E-01 -0.74358199339E-02  0.12130739255E+00  0.12854763019E+00  0.19908248318E-01 0.  0.
         14    1    1    2    0    0  0.15666442457E-02  0.15432250231E-01  0.17779814664E-01  0.23595137865E-01  0.00000000000E+00 0. -1.
     999901    1    3    3    0    0 -0.38409282168E-01 -0.79964302973E-02 -0.13908720722E+00  0.89178723195E+00  0.88000000000E+00 0.  1.
        -11    1    4    4    0    0  0.26417017861E-01 -0.14072393703E-01  0.79525925744E-01  0.84973672886E-01  0.51100000000E-03 0.  1.
         11    1    4    4    0    0  0.10425620062E-01  0.66365737695E-02  0.41781466810E-01  0.43573957301E-01  0.51100000000E-03 0. -1.
</event>
<event>
 8    1  0.1126414E+005  0.1043930E+01  0.7957747E-01            NaN
         13   -1    0    0    0    0  0.00000000000E+00  0.00000000000E+00  0.74505805969E-08  0.10566000000E+00  0.10566000000E+00 0.  1.
     999900   -1    0    0    0    0 -0.00000000000E+00 -0.00000000000E+00 -0.74505805969E-08  0.93827000000E+00  0.93827000000E+00 0.  1.
     999902    2    1    2    0    0 -0.16055057264E-01  0.43755940672E-02  0.16635386597E-01  0.10204003002E+01  0.10201289751E+01 0.  0.
     999903    2    3    3    0    0 -0.98472935852E-01  0.81604298167E-01  0.30915850947E-01  0.13306670387E+00  0.19869002606E-01 0.  0.
         14    1    1    2    0    0  0.16055057264E-01 -0.43755940672E-02 -0.16635386597E-01  0.23529699837E-01  0.00000000000E+00 0. -1.
     999901    1    3    3    0    0  0.82417878588E-01 -0.77228704100E-01 -0.14280464350E-01  0.88733359629E+00  0.88000000000E+00 0. -1.
        -11    1    4    4    0    0 -0.70224243993E-01  0.60017642329E-01  0.13119585563E-01  0.93305661572E-01  0.51100000000E-03 0. -1.
         11    1    4    4    0    0 -0.28248691859E-01  0.21586655838E-01  0.17796265384E-01  0.39761042298E-01  0.51100000000E-03 0.  1.
</event>
<event>
 8    1  0.1126414E+005  0.1043930E+01  0.7957747E-01            NaN
         13   -1    0    0    0    0  0.00000000000E+00  0.00000000000E+00  0.74505805969E-08  0.10566000000E+00  0.10566000000E+00 0. -1.
     999900   -1    0    0    0    0 -0.00000000000E+00 -0.00000000000E+00 -0.74505805969E-08  0.93827000000E+00  0.93827000000E+00 0.  1.
     999902    2    1    2    0    0 -0.15450624717E-01 -0.15859163144E-01 -0.54293739002E-02  0.10211327861E+01  0.10208782758E+01 0.  0.
     999903    2    3    3    0    0 -0.11019212024E+00 -0.30408259483E-01  0.65053732586E-01  0.13312631346E+00  0.20583041681E-01 0.  0.
         14    1    1    2    0    0  0.15450624717E-01  0.15859163144E-01  0.54293739002E-02  0.22797213881E-01  0.00000000000E+00 0. -1.
     999901    1    3    3    0    0  0.94741495524E-01  0.14549096338E-01 -0.70483106486E-01  0.88800647266E+00  0.88000000000E+00 0.  1.
        -11    1    4    4    0    0 -0.51538000258E-01 -0.19068975041E-01  0.41685517354E-01  0.68976334767E-01  0.51100000000E-03 0.  1.
         11    1    4    4    0    0 -0.58654119983E-01 -0.11339284442E-01  0.23368215231E-01  0.64149978696E-01  0.51100000000E-03 0. -1.
</event>
<event>
 8    1  0.1126414E+005  0.1043930E+01  0.7957747E-01            NaN
         13   -1    0    0    0    0  0.00000000000E+00  0.00000000000E+00  0.74505805969E-08  0.10566000000E+00  0.10566000000E+00 0.  1.
     999900   -1    0    0    0    0 -0.00000000000E+00 -0.00000000000E+00 -0.74505805969E-08  0.93827000000E+00  0.93827000000E+00 0. -1.
     999902    2    1    2    0    0 -0.20654850488E-01  0.92163523835E-02  0.75713146810E-02  0.10200786100E+01  0.10197997263E+01 0.  0.
     999903    2    3    3    0    0  0.72803290200E-01  0.11009920255E-01  0.10371071061E+00  0.12992108212E+00  0.26496012470E-01 0.  0.
         14    1    1    2    0    0  0.20654850488E-01 -0.92163523835E-02 -0.75713146810E-02  0.23851390021E-01  0.00000000000E+00 0.  1.
     999901    1    3    3    0    0 -0.93458140688E-01 -0.17935678710E-02 -0.96139395931E-01  0.89015752785E+00  0.88000000000E+00 0. -1.
        -11    1    4    4    0    0  0.23100914440E-01  0.11366847980E-01  0.52931371617E-01  0.58862965464E-01  0.51100000000E-03 0.  1.
         11    1    4    4    0    0  0.49702375760E-01 -0.35692772517E-03  0.50779338994E-01  0.71058116660E-01  0.51100000000E-03 0. -1.
</event>
<event>
 8    1  0.1382218E+005  0.1043930E+01  0.7957747E-01            NaN
         13   -1    0    0    0    0  0.00000000000E+00  0.00000000000E+00  0.74505805969E-08  0.10566000000E+00  0.10566000000E+00 0. -1.
     999900   -1    0    0    0    0 -0.00000000000E+00 -0.00000000000E+00 -0.74505805969E-08  0.93827000000E+00  0.93827000000E+00 0. -1.
     999902    2    1    2    0    0  0.52303151049E-02  0.17676831070E-01  0.13794932997E-01  0.10209055189E+01  0.10206458503E+01 0.  0.
     999903    2    3    3    0    0 -0.12055720507E+00  0.14885138276E-01  0.44379062805E-01  0.13143057111E+00  0.23428332664E-01 0.  0.
         14    1    1    2    0    0 -0.52303151049E-02 -0.17676831070E-01 -0.13794932997E-01  0.23024481084E-01  0.00000000000E+00 0.  1.
     999901    1    3    3    0    0  0.12578752017E+00  0.27916927936E-02 -0.30584129808E-01  0.88947494781E+00  0.88000000000E+00 0. -1.
        -11    1    4    4    0    0 -0.79009638214E-01  0.13543224033E-01  0.40113859355E-01  0.89639972564E-01  0.51100000000E-03 0. -1.
         11    1    4    4    0    0 -0.41547566854E-01  0.13419142430E-02  0.42652034499E-02  0.41790598546E-01  0.51100000000E-03 0.  1.
</event>
<event>
 8    1  0.1126414E+005  0.1043930E+01  0.7957747E-01            NaN
         13   -1    0    0    0    0  0.00000000000E+00  0.00000000000E+00  0.74505805969E-08  0.10566000000E+00  0.10566000000E+00 0. -1.
     999900   -1    0    0    0    0 -0.00000000000E+00 -0.00000000000E+00 -0.74505805969E-08  0.93827000000E+00  0.93827000000E+00 0.  1.
     999902    2    1    2    0    0 -0.66583590248E-02 -0.50195432317E-02 -0.21565588950E-01  0.10208084908E+01  0.10205466039E+01 0.  0.
     999903    2    3    3    0    0  0.54599513230E-01 -0.67418215447E-01 -0.99049473329E-01  0.13308675879E+00  0.19364002169E-01 0.  0.
         14    1    1    2    0    0  0.66583590248E-02  0.50195432317E-02  0.21565588950E-01  0.23121509162E-01  0.00000000000E+00 0.  1.
     999901    1    3    3    0    0 -0.61257872255E-01  0.62398672216E-01  0.77483884379E-01  0.88772173205E+00  0.88000000000E+00 0.  1.
        -11    1    4    4    0    0  0.20956627137E-01 -0.26006961224E-01 -0.24568910787E-01  0.41466067469E-01  0.51100000000E-03 0.  1.
         11    1    4    4    0    0  0.33642886093E-01 -0.41411254224E-01 -0.74480562542E-01  0.91620691324E-01  0.51100000000E-03 0. -1.
</event>
<event>
 8    1  0.1126414E+005  0.1043930E+01  0.7957747E-01            NaN
         13   -1    0    0    0    0  0.00000000000E+00  0.00000000000E+00  0.74505805969E-08  0.10566000000E+00  0.10566000000E+00 0.  1.
     999900   -1    0    0    0    0 -0.00000000000E+00 -0.00000000000E+00 -0.74505805969E-08  0.93827000000E+00  0.93827000000E+00 0.  1.
     999902    2    1    2    0    0 -0.65961255288E-02 -0.94100712434E-02  0.20277556839E-01  0.10206225414E+01  0.10203563762E+01 0.  0.
     999903    2    3    3    0    0 -0.89171984685E-01 -0.38827723658E-01 -0.83862271098E-01  0.13015677874E+00  0.21181868700E-01 0.  0.
         14    1    1    2    0    0  0.65961255288E-02  0.94100712434E-02 -0.20277556839E-01  0.23307458552E-01  0.00000000000E+00 0. -1.
     999901    1    3    3    0    0  0.82575859156E-01  0.29417652415E-01  0.10413982794E+00  0.89046576271E+00  0.88000000000E+00 0. -1.
        -11    1    4    4    0    0 -0.36839069750E-01 -0.88271905077E-02 -0.42930139076E-01  0.57256391035E-01  0.51100000000E-03 0. -1.
         11    1    4    4    0    0 -0.52332914936E-01 -0.30000533150E-01 -0.40932132023E-01  0.72900387707E-01  0.51100000000E-03 0.  1.
</event>
<event>
 8    1  0.1165433E+005  0.1043930E+01  0.7957747E-01            NaN
         13   -1    0    0    0    0  0.00000000000E+00  0.00000000000E+00  0.74505805969E-08  0.10566000000E+00  0.10566000000E+00 0. -1.
     999900   -1    0    0    0    0 -0.00000000000E+00 -0.00000000000E+00 -0.74505805969E-08  0.93827000000E+00  0.93827000000E+00 0. -1.
     999902    2    1    2    0    0  0.51195096373E-02  0.16703227254E-01 -0.18963564018E-01  0.10181458200E+01  0.10178192800E+01 0.  0.
     999903    2    3    3    0    0 -0.51455513160E-01 -0.10477169304E-01  0.11322842294E+00  0.12606161510E+00  0.17703506115E-01 0.  0.
         14    1    1    2    0    0 -0.51195096373E-02 -0.16703227254E-01  0.18963564018E-01  0.25784180032E-01  0.00000000000E+00 0. -1.
     999901    1    3    3    0    0  0.56575022797E-01  0.27180396558E-01 -0.13219198696E+00  0.89208420487E+00  0.88000000000E+00 0. -1.
        -11    1    4    4    0    0 -0.25533171584E-01  0.19303896531E-02  0.65730223870E-01  0.70543551841E-01  0.51100000000E-03 0.  1.
         11    1    4    4    0    0 -0.25922341576E-01 -0.12407558957E-01  0.47498199070E-01  0.55518063258E-01  0.51100000000E-03 0. -1.
</event>
<event>
 8    1  0.1126414E+005  0.1043930E+01  0.7957747E-01            NaN
         13   -1    0    0    0    0  0.00000000000E+00  0.00000000000E+00  0.74505805969E-08  0.10566000000E+00  0.10566000000E+00 0.  1.
     999900   -1    0    0    0    0 -0.00000000000E+00 -0.00000000000E+00 -0.74505805969E-08  0.93827000000E+00  0.93827000000E+00 0.  1.
     999902    2    1    2    0    0  0.19043809177E-01 -0.33872703446E-02 -0.13313436705E-01  0.10204483505E+01  0.10201781453E+01 0.  0.
     999903    2    3    3    0    0 -0.96146408322E-01  0.46472885064E-01 -0.70916109168E-01  0.12967739832E+00  0.19577339322E-01 0.  0.
         14    1    1    2    0    0 -0.19043809177E-01  0.33872703446E-02  0.13313436705E-01  0.23481649543E-01  0.00000000000E+00 0.  1.
     999901    1    3    3    0    0  0.11519021750E+00 -0.49860155409E-01  0.57602672463E-01  0.89077095214E+00  0.88000000000E+00 0. -1.
        -11    1    4    4    0    0 -0.91195746860E-02  0.81746883787E-04 -0.19650966288E-02  0.93432355620E-02  0.51100000000E-03 0.  1.
         11    1    4    4    0    0 -0.87026833636E-01  0.46391138180E-01 -0.68951012539E-01  0.12033416275E+00  0.51100000000E-03 0. -1.
</event>
<event>
 8    1  0.1126414E+005  0.1043930E+01  0.7957747E-01            NaN
         13   -1    0    0    0    0  0.00000000000E+00  0.00000000000E+00  0.74505805969E-08  0.10566000000E+00  0.10566000000E+00 0.  1.
     999900   -1    0    0    0    0 -0.00000000000E+00 -0.00000000000E+00 -0.74505805969E-08  0.93827000000E+00  0.93827000000E+00 0.  1.
     999902    2    1    2    0    0  0.50594056358E-02  0.17693489270E-02  0.23116223316E-01  0.10202005255E+01  0.10199245189E+01 0.  0.
     999903    2    3    3    0    0 -0.77308983544E-01  0.69016298180E-01 -0.73061949421E-01  0.12859694504E+00  0.21428893354E-01 0.  0.
         14    1    1    2    0    0 -0.50594056358E-02 -0.17693489270E-02 -0.23116223316E-01  0.23729474529E-01  0.00000000000E+00 0. -1.
     999901    1    3    3    0    0  0.82368389179E-01 -0.67246949253E-01  0.96178172737E-01  0.89160358043E+00  0.88000000000E+00 0. -1.
        -11    1    4    4    0    0 -0.32786542429E-01  0.19996176318E-01 -0.36339340051E-01  0.52873558497E-01  0.51100000000E-03 0. -1.
         11    1    4    4    0    0 -0.44522441114E-01  0.49020121862E-01 -0.36722609370E-01  0.75723386547E-01  0.51100000000E-03 0.  1.
</event>
<event>
 8    1  0.1126414E+005  0.1043930E+01  0.7957747E-01            NaN
         13   -1    0    0    0    0  0.00000000000E+00  0.00000000000E+00  0.74505805969E-08  0.10566000000E+00  0.10566000000E+00 0. -1.
     999900   -1    0    0    0    0 -0.00000000000E+00 -0.00000000000E+00 -0.74505805969E-08  0.93827000000E+00  0.93827000000E+00 0. -1.
     999902    2    1    2    0    0  0.68813076653E-02  0.16540278589E-01  0.16612334262E-01  0.10194984045E+01  0.10192056190E+01 0.  0.
     999903    2    3    3    0    0 -0.75001559038E-01 -0.10125977137E+00  0.10081078764E-01  0.12785704555E+00  0.19157786679E-01 0.  0.
         14    1    1    2    0    0 -0.68813076653E-02 -0.16540278589E-01 -0.16612334262E-01  0.24431595539E-01  0.00000000000E+00 0.  1.
     999901    1    3    3    0    0  0.81882866703E-01  0.11780004996E+00  0.65312554979E-02  0.89164135892E+00  0.88000000000E+00 0. -1.
        -11    1    4    4    0    0 -0.17192588127E-01 -0.37968754619E-01  0.15191857345E-02  0.41710675613E-01  0.51100000000E-03 0. -1.
         11    1    4    4    0    0 -0.57808970911E-01 -0.63291016751E-01  0.85618930293E-02  0.86146369932E-01  0.51100000000E-03 0.  1.
</event>
<event>
 8    1  0.1126414E+005  0.1043930E+01  0.7957747E-01            NaN
         13   -1    0    0    0    0  0.00000000000E+00  0.00000000000E+00  0.74505805969E-08  0.10566000000E+00  0.10566000000E+00 0.  1.
     999900   -1    0    0    0    0 -0.00000000000E+00 -0.00000000000E+00 -0.74505805969E-08  0.93827000000E+00  0.93827000000E+00 0.  1.
     999902    2    1    2    0    0 -0.11179363582E-01 -0.59875295656E-02 -0.20784379729E-01  0.10195821229E+01  0.10192913647E+01 0.  0.
     999903    2    3    3    0    0  0.12327108657E+00 -0.12290388092E-01 -0.30724377197E-01  0.12929258955E+00  0.20634241852E-01 0.  0.
         14    1    1    2    0    0  0.11179363582E-01  0.59875295656E-02  0.20784379729E-01  0.24347877137E-01  0.00000000000E+00 0.  1.
     999901    1    3    3    0    0 -0.13445045015E+00  0.63028585264E-02  0.99399974680E-02  0.89028953331E+00  0.88000000000E+00 0. -1.
        -11    1    4    4    0    0  0.26053300360E-01  0.51680871044E-02 -0.32191984928E-02  0.26760193271E-01  0.51100000000E-03 0. -1.
         11    1    4    4    0    0  0.97217786205E-01 -0.17458475196E-01 -0.27505178704E-01  0.10253239628E+00  0.51100000000E-03 0.  1.
</event>
<event>
 8    1  0.1126414E+005  0.1043930E+01  0.7957747E-01            NaN
         13   -1    0    0    0    0  0.00000000000E+00  0.00000000000E+00  0.74505805969E-08  0.10566000000E+00  0.10566000000E+00 0. -1.
     999900   -1    0    0    0    0 -0.00000000000E+00 -0.00000000000E+00 -0.74505805969E-08  0.93827000000E+00  0.93827000000E+00 0. -1.
     999902    2    1    2    0    0  0.49560726170E-02 -0.72784093215E-02 -0.22303439498E-01  0.10199512321E+01  0.10196693261E+01 0.  0.
     999903    2    3    3    0    0 -0.12489677969E-02 -0.12965103811E+00 -0.37948163177E-02  0.13126898743E+00  0.20154275659E-01 0.  0.
         14    1    1    2    0    0 -0.49560726170E-02  0.72784093215E-02  0.22303439498E-01  0.23978767931E-01  0.00000000000E+00 0.  1.
     999901    1    3    3    0    0  0.62050404139E-02  0.12237262879E+00 -0.18508623181E-01  0.88868224464E+00  0.88000000000E+00 0. -1.
        -11    1    4    4    0    0 -0.11409010756E-02 -0.28543790921E-02 -0.32046158749E-02  0.44698791003E-02  0.51100000000E-03 0. -1.
         11    1    4    4    0    0 -0.10806672124E-03 -0.12679665902E+00 -0.59020044281E-03  0.12679910833E+00  0.51100000000E-03 0.  1.
</event>
<event>
 8    1  0.1126414E+005  0.1043930E+01  0.7957747E-01            NaN
         13   -1    0    0    0    0  0.00000000000E+00  0.00000000000E+00  0.74505805969E-08  0.10566000000E+00  0.10566000000E+00 0.  1.
     999900   -1    0    0    0    0 -0.00000000000E+00 -0.00000000000E+00 -0.74505805969E-08  0.93827000000E+00  0.93827000000E+00 0. -1.
     999902    2    1    2    0    0 -0.21794250955E-01 -0.25256019548E-02  0.75492002752E-02  0.10207274470E+01  0.10204636998E+01 0.  0.
     999903    2    3    3    0    0 -0.82483998187E-01  0.70445594884E-01 -0.73412985979E-01  0.13192886658E+00  0.15797706541E-01 0.  0.
         14    1    1    2    0    0  0.21794250955E-01  0.25256019548E-02 -0.75492002752E-02  0.23202552978E-01  0.00000000000E+00 0. -1.
     999901    1    3    3    0    0  0.60689747232E-01 -0.72971196839E-01  0.80962186254E-01  0.88879858044E+00  0.88000000000E+00 0.  1.
        -11    1    4    4    0    0 -0.87339148530E-02  0.11056551477E-01 -0.44436350618E-02  0.14782950070E-01  0.51100000000E-03 0.  1.
         11    1    4    4    0    0 -0.73750083334E-01  0.59389043407E-01 -0.68969350917E-01  0.11714591651E+00  0.51100000000E-03 0. -1.
</event>
<event>
 8    1  0.1126414E+005  0.1043930E+01  0.7957747E-01            NaN
         13   -1    0    0    0    0  0.00000000000E+00  0.00000000000E+00  0.74505805969E-08  0.10566000000E+00  0.10566000000E+00 0. -1.
     999900   -1    0    0    0    0 -0.00000000000E+00 -0.00000000000E+00 -0.74505805969E-08  0.93827000000E+00  0.93827000000E+00 0.  1.
     999902    2    1    2    0    0  0.57174174887E-03  0.24200547910E-01  0.18730214174E-02  0.10196503456E+01  0.10193612342E+01 0.  0.
     999903    2    3    3    0    0 -0.87000985038E-02 -0.89653272792E-01 -0.88321302420E-01  0.12769537166E+00  0.19800364804E-01 0.  0.
         14    1    1    2    0    0 -0.57174174887E-03 -0.24200547910E-01 -0.18730214174E-02  0.24279654384E-01  0.00000000000E+00 0. -1.
     999901    1    3    3    0    0  0.92718402527E-02  0.11385382070E+00  0.90194323837E-01  0.89195497395E+00  0.88000000000E+00 0. -1.
        -11    1    4    4    0    0 -0.54641143334E-02 -0.67108588931E-01 -0.53112598965E-01  0.85759130963E-01  0.51100000000E-03 0.  1.
         11    1    4    4    0    0 -0.32359841705E-02 -0.22544683861E-01 -0.35208703455E-01  0.41936240699E-01  0.51100000000E-03 0. -1.
</event>
<event>
 8    1  0.1126414E+005  0.1043930E+01  0.7957747E-01            NaN
         13   -1    0    0    0    0  0.00000000000E+00  0.00000000000E+00  0.74505805969E-08  0.10566000000E+00  0.10566000000E+00 0.  1.
     999900   -1    0    0    0    0 -0.00000000000E+00 -0.00000000000E+00 -0.74505805969E-08  0.93827000000E+00  0.93827000000E+00 0. -1.
     999902    2    1    2    0    0 -0.85562340402E-02  0.19524848766E-01  0.77801162449E-02  0.10212372904E+01  0.10209851342E+01 0.  0.
     999903    2    3    3    0    0  0.88603661657E-03  0.20983047256E-01  0.12945650297E+00  0.13281372818E+00  0.20962511767E-01 0.  0.
         14    1    1    2    0    0  0.85562340402E-02 -0.19524848766E-01 -0.77801162449E-02  0.22692709601E-01  0.00000000000E+00 0. -1.
     999901    1    3    3    0    0 -0.94422706568E-02 -0.14581984904E-02 -0.12167638672E+00  0.88842356222E+00  0.88000000000E+00 0. -1.
        -11    1    4    4    0    0 -0.42037343455E-02  0.11919996531E-01  0.11021130285E+00  0.11093489125E+00  0.51100000000E-03 0.  1.
         11    1    4    4    0    0  0.50897709621E-02  0.90630507247E-02  0.19245200121E-01  0.21878836934E-01  0.51100000000E-03 0. -1.
</event>
<event>
 7    1  0.1126414E+005  0.1043930E+01  0.7957747E-01            NaN
         13   -1    0    0    0    0  0.00000000000E+00  0.00000000000E+00  0.74505805969E-08  0.10566000000E+00  0.10566000000E+00 0.  1.
     999900   -1    0    0    0    0 -0.00000000000E+00 -0.00000000000E+00 -0.74505805969E-08  0.93827000000E+00  0.93827000000E+00 0. -1.
     999903    2    1    2    0    0  0.19112840592E-01 -0.47223719609E-01  0.93270495257E-01  0.10804854208E+00  0.19486451462E-01 0.  0.
         14    1    1    2    0    0  0.98476379658E-02 -0.44662328045E-01 -0.11182860989E-03  0.45735238335E-01  0.00000000000E+00 0.  1.
     999901    1    1    2    0    0 -0.28960478558E-01  0.91886047654E-01 -0.93158666648E-01  0.89014621959E+00  0.88000000000E+00 0. -1.
        -11    1    3    3    0    0  0.13064827815E-01 -0.44897862114E-01  0.88105243476E-01  0.99746191893E-01  0.51100000000E-03 0. -1.
         11    1    3    3    0    0  0.60480127770E-02 -0.23258574944E-02  0.51652517815E-02  0.83023501854E-02  0.51100000000E-03 0.  1.
</event>
<event>
 8    1  0.1126414E+005  0.1043930E+01  0.7957747E-01            NaN
         13   -1    0    0    0    0  0.00000000000E+00  0.00000000000E+00  0.74505805969E-08  0.10566000000E+00  0.10566000000E+00 0. -1.
     999900   -1    0    0    0    0 -0.00000000000E+00 -0.00000000000E+00 -0.74505805969E-08  0.93827000000E+00  0.93827000000E+00 0.  1.
     999902    2    1    2    0    0  0.95342526632E-02 -0.20075146988E-01 -0.68818149872E-02  0.10206647281E+01  0.10203995366E+01 0.  0.
     999903    2    3    3    0    0  0.26020603379E-01 -0.77449230159E-01 -0.10383107002E+00  0.13333009940E+00  0.17904447852E-01 0.  0.
         14    1    1    2    0    0 -0.95342526632E-02  0.20075146988E-01  0.68818149872E-02  0.23265271930E-01  0.00000000000E+00 0. -1.
     999901    1    3    3    0    0 -0.16486350716E-01  0.57374083171E-01  0.96949255033E-01  0.88733462867E+00  0.88000000000E+00 0. -1.
        -11    1    4    4    0    0  0.70656779792E-02 -0.39072033446E-01 -0.39119339273E-01  0.55741648963E-01  0.51100000000E-03 0.  1.
         11    1    4    4    0    0  0.18954925400E-01 -0.38377196713E-01 -0.64711730747E-01  0.77588450441E-01  0.51100000000E-03 0. -1.
</event>
<event>
 8    1  0.1126414E+005  0.1043930E+01  0.7957747E-01            NaN
         13   -1    0    0    0    0  0.00000000000E+00  0.00000000000E+00  0.74505805969E-08  0.10566000000E+00  0.10566000000E+00 0. -1.
     999900   -1    0    0    0    0 -0.00000000000E+00 -0.00000000000E+00 -0.74505805969E-08  0.93827000000E+00  0.93827000000E+00 0. -1.
     999902    2    1    2    0    0  0.97564519295E-03  0.23203260159E-01 -0.25871168093E-02  0.10205625795E+01  0.10202950271E+01 0.  0.
     999903    2    3    3    0    0 -0.71026870269E-01 -0.42997716710E-01 -0.97586409811E-01  0.13006171079E+00  0.22345498245E-01 0.  0.
         14    1    1    2    0    0 -0.97564519295E-03 -0.23203260159E-01  0.25871168093E-02  0.23367420460E-01  0.00000000000E+00 0. -1.
     999901    1    3    3    0    0  0.72002515462E-01  0.66200976869E-01  0.94999293002E-01  0.89050086875E+00  0.88000000000E+00 0.  1.
        -11    1    4    4    0    0 -0.29828738717E-01 -0.31022923827E-01 -0.50752351942E-01  0.66545005860E-01  0.51100000000E-03 0.  1.
         11    1    4    4    0    0 -0.41198131552E-01 -0.11974792883E-01 -0.46834057869E-01  0.63516704932E-01  0.51100000000E-03 0. -1.
</event>
<event>
 8    1  0.1126414E+005  0.1043930E+01  0.7957747E-01            NaN
         13   -1    0    0    0    0  0.00000000000E+00  0.00000000000E+00  0.74505805969E-08  0.10566000000E+00  0.10566000000E+00 0.  1.
     999900   -1    0    0    0    0 -0.00000000000E+00 -0.00000000000E+00 -0.74505805969E-08  0.93827000000E+00  0.93827000000E+00 0. -1.
     999902    2    1    2    0    0 -0.19486843569E-01 -0.13417434027E-01  0.40607995308E-02  0.10199246943E+01  0.10196421565E+01 0.  0.
     999903    2    3    3    0    0 -0.10837641297E+00  0.22540079321E-01  0.69306522419E-01  0.13231481229E+00  0.21220589970E-01 0.  0.
         14    1    1    2    0    0  0.19486843569E-01  0.13417434027E-01 -0.40607995308E-02  0.24005305684E-01  0.00000000000E+00 0.  1.
     999901    1    3    3    0    0  0.88889569397E-01 -0.35957513348E-01 -0.65245722888E-01  0.88760988203E+00  0.88000000000E+00 0. -1.
        -11    1    4    4    0    0 -0.49026113138E-01  0.20456423551E-01  0.36634014112E-01  0.64531675516E-01  0.51100000000E-03 0. -1.
         11    1    4    4    0    0 -0.59350299827E-01  0.20836557696E-02  0.32672508307E-01  0.67783136775E-01  0.51100000000E-03 0.  1.
</event>
<event>
 7    1  0.1126414E+005  0.1043930E+01  0.7957747E-01            NaN
         13   -1    0    0    0    0  0.00000000000E+00  0.00000000000E+00  0.74505805969E-08  0.10566000000E+00  0.10566000000E+00 0. -1.
     999900   -1    0    0    0    0 -0.00000000000E+00 -0.00000000000E+00 -0.74505805969E-08  0.93827000000E+00  0.93827000000E+00 0. -1.
     999903    2    1    2    0    0 -0.78265755584E-01 -0.53842035349E-01  0.20397888932E-01  0.99265767396E-01  0.20325487352E-01 0.  0.
         14    1    1    2    0    0 -0.29320248639E-01  0.28470674094E-01  0.38030913239E-01  0.55826576336E-01  0.00000000000E+00 0. -1.
     999901    1    1    2    0    0  0.10758600422E+00  0.25371361255E-01 -0.58428802171E-01  0.88883765627E+00  0.88000000000E+00 0. -1.
        -11    1    3    3    0    0 -0.17145150699E-01 -0.17914485884E-01 -0.20771990469E-02  0.24888970928E-01  0.51100000000E-03 0.  1.
         11    1    3    3    0    0 -0.61120604886E-01 -0.35927549465E-01  0.22475087979E-01  0.74376796468E-01  0.51100000000E-03 0. -1.
</event>
<event>
 8    1  0.1126414E+005  0.1043930E+01  0.7957747E-01            NaN
         13   -1    0    0    0    0  0.00000000000E+00  0.00000000000E+00  0.74505805969E-08  0.10566000000E+00  0.10566000000E+00 0. -1.
     999900   -1    0    0    0    0 -0.00000000000E+00 -0.00000000000E+00 -0.74505805969E-08  0.93827000000E+00  0.93827000000E+00 0. -1.
     999902    2    1    2    0    0 -0.30492121156E-02  0.16557033707E-01 -0.15436571037E-01  0.10210887920E+01  0.10208332872E+01 0.  0.
     999903    2    3    3    0    0 -0.48742565409E-01  0.94602010746E-01 -0.79204577221E-01  0.13415854690E+00  0.19994312539E-01 0.  0.
         14    1    1    2    0    0  0.30492121156E-02 -0.16557033707E-01  0.15436571037E-01  0.22841208047E-01  0.00000000000E+00 0. -1.
     999901    1    3    3    0    0  0.45693353294E-01 -0.78044977039E-01  0.63768006184E-01  0.88693024505E+00  0.88000000000E+00 0.  1.
        -11    1    4    4    0    0 -0.27551555375E-01  0.34301613728E-01 -0.26927771393E-01  0.51585413647E-01  0.51100000000E-03 0.  1.
         11    1    4    4    0    0 -0.21191010035E-01  0.60300397018E-01 -0.52276805828E-01  0.82573133254E-01  0.51100000000E-03 0. -1.
</event>
<event>
 8    1  0.1126414E+005  0.1043930E+01  0.7957747E-01            NaN
         13   -1    0    0    0    0  0.00000000000E+00  0.00000000000E+00  0.74505805969E-08  0.10566000000E+00  0.10566000000E+00 0.  1.
     999900   -1    0    0    0    0 -0.00000000000E+00 -0.00000000000E+00 -0.74505805969E-08  0.93827000000E+00  0.93827000000E+00 0. -1.
     999902    2    1    2    0    0  0.11145590645E-01 -0.15504444601E-01 -0.14720006610E-01  0.10198200314E+01  0.10195349949E+01 0.  0.
     999903    2    3    3    0    0  0.38431383894E-01 -0.12528617314E+00 -0.27006093454E-02  0.13249765007E+00  0.19358138707E-01 0.  0.
         14    1    1    2    0    0 -0.11145590645E-01  0.15504444601E-01  0.14720006610E-01  0.24109968640E-01  0.00000000000E+00 0.  1.
     999901    1    3    3    0    0 -0.27285793249E-01  0.10978172854E+00 -0.12019397264E-01  0.88732238129E+00  0.88000000000E+00 0.  1.
        -11    1    4    4    0    0  0.31465020468E-01 -0.10619382703E+00  0.47114291692E-02  0.11085862663E+00  0.51100000000E-03 0.  1.
         11    1    4    4    0    0  0.69663634263E-02 -0.19092346110E-01 -0.74120385147E-02  0.21639023438E-01  0.51100000000E-03 0. -1.
</event>
<event>
 8    1  0.1126414E+005  0.1043930E+01  0.7957747E-01            NaN
         13   -1    0    0    0    0  0.00000000000E+00  0.00000000000E+00  0.74505805969E-08  0.10566000000E+00  0.10566000000E+00 0. -1.
     999900   -1    0    0    0    0 -0.00000000000E+00 -0.00000000000E+00 -0.74505805969E-08  0.93827000000E+00  0.93827000000E+00 0.  1.
     999902    2    1    2    0    0  0.11018871392E-01  0.10836361976E-02 -0.21773972924E-01  0.10195026446E+01  0.10192099620E+01 0.  0.
     999903    2    3    3    0    0 -0.98905490697E-01  0.39702275692E-01 -0.72546986281E-01  0.13037235968E+00  0.19373181623E-01 0.  0.
         14    1    1    2    0    0 -0.11018871392E-01 -0.10836361976E-02  0.21773972924E-01  0.24427355384E-01  0.00000000000E+00 0. -1.
     999901    1    3    3    0    0  0.10992436209E+00 -0.38618639494E-01  0.50773013357E-01  0.88913028493E+00  0.88000000000E+00 0. -1.
        -11    1    4    4    0    0 -0.22979823386E-01  0.18455559344E-01 -0.19473252061E-01  0.35329146896E-01  0.51100000000E-03 0. -1.
         11    1    4    4    0    0 -0.75925667310E-01  0.21246716348E-01 -0.53073734221E-01  0.95043212789E-01  0.51100000000E-03 0.  1.
</event>
<event>
 8    1  0.1126414E+005  0.1043930E+01  0.7957747E-01            NaN
         13   -1    0    0    0    0  0.00000000000E+00  0.00000000000E+00  0.74505805969E-08  0.10566000000E+00  0.10566000000E+00 0. -1.
     999900   -1    0    0    0    0 -0.00000000000E+00 -0.00000000000E+00 -0.74505805969E-08  0.93827000000E+00  0.93827000000E+00 0.  1.
     999902    2    1    2    0    0  0.81556675443E-02  0.13869131260E-01  0.17178015405E-01  0.10203938166E+01  0.10201223402E+01 0.  0.
     999903    2    3    3    0    0 -0.75807854979E-01  0.88312862105E-01  0.59600386343E-01  0.13225452589E+00  0.19825767987E-01 0.  0.
         14    1    1    2    0    0 -0.81556675443E-02 -0.13869131260E-01 -0.17178015405E-01  0.23536183384E-01  0.00000000000E+00 0.  1.
     999901    1    3    3    0    0  0.83963522523E-01 -0.74443730845E-01 -0.42422370938E-01  0.88813929073E+00  0.88000000000E+00 0. -1.
        -11    1    4    4    0    0 -0.18325340437E-01  0.12164835545E-01  0.16811661257E-01  0.27689247032E-01  0.51100000000E-03 0. -1.
         11    1    4    4    0    0 -0.57482514541E-01  0.76148026560E-01  0.42788725087E-01  0.10456527886E+00  0.51100000000E-03 0.  1.
</event>
<event>
 8    1  0.1126414E+005  0.1043930E+01  0.7957747E-01            NaN
         13   -1    0    0    0    0  0.00000000000E+00  0.00000000000E+00  0.74505805969E-08  0.10566000000E+00  0.10566000000E+00 0. -1.
     999900   -1    0    0    0    0 -0.00000000000E+00 -0.00000000000E+00 -0.74505805969E-08  0.93827000000E+00  0.93827000000E+00 0.  1.
     999902    2    1    2    0    0  0.28983218958E-02  0.21255734180E-01  0.21097994186E-02  0.10223740783E+01  0.10221468086E+01 0.  0.
     999903    2    3    3    0    0  0.34433845930E-01  0.11813861202E+00  0.52227653301E-01  0.13507898617E+00  0.19395446362E-01 0.  0.
         14    1    1    2    0    0 -0.28983218958E-02 -0.21255734180E-01 -0.21097994186E-02  0.21555921668E-01  0.00000000000E+00 0.  1.
     999901    1    3    3    0    0 -0.31535524034E-01 -0.96882877842E-01 -0.50117853883E-01  0.88729509216E+00  0.88000000000E+00 0.  1.
        -11    1    4    4    0    0  0.26475454620E-01  0.92446802679E-01  0.49166081880E-01  0.10800428580E+00  0.51100000000E-03 0. -1.
         11    1    4    4    0    0  0.79583913101E-02  0.25691809344E-01  0.30615714212E-02  0.27074700371E-01  0.51100000000E-03 0.  1.
</event>
<event>
 8    1  0.1126414E+005  0.1043930E+01  0.7957747E-01            NaN
         13   -1    0    0    0    0  0.00000000000E+00  0.00000000000E+00  0.74505805969E-08  0.10566000000E+00  0.10566000000E+00 0.  1.
     999900   -1    0    0    0    0 -0.00000000000E+00 -0.00000000000E+00 -0.74505805969E-08  0.93827000000E+00  0.93827000000E+00 0.  1.
     999902    2    1    2    0    0  0.12712087831E-01  0.15921557984E-01 -0.11597470437E-01  0.10204865680E+01  0.10202172518E+01 0.  0.
     999903    2    3    3    0    0  0.65162073363E-01 -0.65789955605E-01  0.88091380718E-01  0.12955130685E+00  0.21190462135E-01 0.  0.
         14    1    1    2    0    0 -0.12712087831E-01 -0.15921557984E-01  0.11597470437E-01  0.23443432048E-01  0.00000000000E+00 0.  1.
     999901    1    3    3    0    0 -0.52449985533E-01  0.81711513589E-01 -0.99688851155E-01  0.89093526110E+00  0.88000000000E+00 0.  1.
        -11    1    4    4    0    0  0.26083179907E-01 -0.40939695952E-01  0.48502122314E-01  0.68622940543E-01  0.51100000000E-03 0. -1.
         11    1    4    4    0    0  0.39078893457E-01 -0.24850259653E-01  0.39589258404E-01  0.60928366305E-01  0.51100000000E-03 0.  1.
</event>
<event>
 8    1  0.1126414E+005  0.1043930E+01  0.7957747E-01            NaN
         13   -1    0    0    0    0  0.00000000000E+00  0.00000000000E+00  0.74505805969E-08  0.10566000000E+00  0.10566000000E+00 0.  1.
     999900   -1    0    0    0    0 -0.00000000000E+00 -0.00000000000E+00 -0.74505805969E-08  0.93827000000E+00  0.93827000000E+00 0. -1.
     999902    2    1    2    0    0  0.12949161389E-01  0.28387552202E-02 -0.19763563565E-01  0.10201321481E+01  0.10198545297E+01 0.  0.
     999903    2    3    3    0    0 -0.36349977525E-01 -0.12005711246E+00 -0.28948491922E-01  0.13017812549E+00  0.19320922694E-01 0.  0.
         14    1    1    2    0    0 -0.12949161389E-01 -0.28387552202E-02  0.19763563565E-01  0.23797851934E-01  0.00000000000E+00 0.  1.
     999901    1    3    3    0    0  0.49299138914E-01  0.12289586768E+00  0.91849283575E-02  0.88995402258E+00  0.88000000000E+00 0. -1.
        -11    1    4    4    0    0 -0.69059882866E-02 -0.66553504555E-02 -0.39076842553E-02  0.10369063658E-01  0.51100000000E-03 0. -1.
         11    1    4    4    0    0 -0.29443989238E-01 -0.11340176200E+00 -0.25040807667E-01  0.11980906183E+00  0.51100000000E-03 0.  1.
</event>
<event>
 8    1  0.1126414E+005  0.1043930E+01  0.7957747E-01            NaN
         13   -1    0    0    0    0  0.00000000000E+00  0.00000000000E+00  0.74505805969E-08  0.10566000000E+00  0.10566000000E+00 0. -1.
     999900   -1    0    0    0    0 -0.00000000000E+00 -0.00000000000E+00 -0.74505805969E-08  0.93827000000E+00  0.93827000000E+00 0.  1.
     999902    2    1    2    0    0 -0.22615395479E-01  0.66481898338E-02 -0.48545610823E-02  0.10198629831E+01  0.10195789734E+01 0.  0.
     999903    2    3    3    0    0 -0.10100366008E-01 -0.12280426195E+00 -0.35368378560E-01  0.12978115745E+00  0.20231719676E-01 0.  0.
         14    1    1    2    0    0  0.22615395479E-01 -0.66481898338E-02  0.48545610823E-02  0.24067016933E-01  0.00000000000E+00 0. -1.
     999901    1    3    3    0    0 -0.12515029471E-01  0.12945245178E+00  0.30513817477E-01  0.89008182562E+00  0.88000000000E+00 0. -1.
        -11    1    4    4    0    0 -0.68358953284E-03 -0.88975886946E-01 -0.31758854789E-01  0.94477837248E-01  0.51100000000E-03 0.  1.
         11    1    4    4    0    0 -0.94167764754E-02 -0.33828375003E-01 -0.36095237706E-02  0.35303320203E-01  0.51100000000E-03 0. -1.
</event>
<event>
 8    1  0.1126414E+005  0.1043930E+01  0.7957747E-01            NaN
         13   -1    0    0    0    0  0.00000000000E+00  0.00000000000E+00  0.74505805969E-08  0.10566000000E+00  0.10566000000E+00 0. -1.
     999900   -1    0    0    0    0 -0.00000000000E+00 -0.00000000000E+00 -0.74505805969E-08  0.93827000000E+00  0.93827000000E+00 0. -1.
     999902    2    1    2    0    0 -0.72561132864E-04  0.21331569224E-01 -0.91249622132E-02  0.10207285766E+01  0.10204648554E+01 0.  0.
     999903    2    3    3    0    0  0.42972255067E-01  0.58936343393E-01  0.10683290607E+00  0.13128313005E+00  0.22402748448E-01 0.  0.
         14    1    1    2    0    0  0.72561132864E-04 -0.21331569224E-01  0.91249622132E-02  0.23201423363E-01  0.00000000000E+00 0. -1.
     999901    1    3    3    0    0 -0.43044816200E-01 -0.37604774169E-01 -0.11595786828E+00  0.88944544659E+00  0.88000000000E+00 0. -1.
        -11    1    4    4    0    0  0.26973245894E-01  0.39995924934E-01  0.51066747666E-01  0.70251717727E-01  0.51100000000E-03 0. -1.
         11    1    4    4    0    0  0.15999009173E-01  0.18940418459E-01  0.55766158402E-01  0.61031412321E-01  0.51100000000E-03 0.  1.
</event>
<event>
 8    1  0.1126414E+005  0.1043930E+01  0.7957747E-01            NaN
         13   -1    0    0    0    0  0.00000000000E+00  0.00000000000E+00  0.74505805969E-08  0.10566000000E+00  0.10566000000E+00 0.  1.
     999900   -1    0    0    0    0 -0.00000000000E+00 -0.00000000000E+00 -0.74505805969E-08  0.93827000000E+00  0.93827000000E+00 0. -1.
     999902    2    1    2    0    0 -0.37356432120E-03 -0.21885067176E-01  0.10066947690E-01  0.10198376952E+01  0.10195530812E+01 0.  0.
     999903    2    3    3    0    0 -0.12289873170E+00 -0.30655419292E-01  0.26971578491E-01  0.13114477732E+00  0.20679303317E-01 0.  0.
         14    1    1    2    0    0  0.37356432120E-03  0.21885067176E-01 -0.10066947690E-01  0.24092304817E-01  0.00000000000E+00 0.  1.
     999901    1    3    3    0    0  0.12252516738E+00  0.87703521160E-02 -0.16904630801E-01  0.88869291786E+00  0.88000000000E+00 0. -1.
        -11    1    4    4    0    0 -0.88937817971E-01 -0.28730488235E-01  0.12984186725E-01  0.94362209839E-01  0.51100000000E-03 0.  1.
         11    1    4    4    0    0 -0.33960913732E-01 -0.19249310576E-02  0.13987391766E-01  0.36782567481E-01  0.51100000000E-03 0. -1.
</event>
<event>
 8    1  0.1126414E+005  0.1043930E+01  0.7957747E-01            NaN
         13   -1    0    0    0    0  0.00000000000E+00  0.00000000000E+00  0.74505805969E-08  0.10566000000E+00  0.10566000000E+00 0. -1.
     999900   -1    0    0    0    0 -0.00000000000E+00 -0.00000000000E+00 -0.74505805969E-08  0.93827000000E+00  0.93827000000E+00 0.  1.
     999902    2    1    2    0    0 -0.13507698383E-02 -0.22983582805E-01 -0.53564797134E-02  0.10202918627E+01  0.10200180016E+01 0.  0.
     999903    2    3    3    0    0 -0.49970424657E-01  0.30564655922E-01  0.11451275251E+00  0.12922513262E+00  0.12438765326E-01 0.  0.
         14    1    1    2    0    0  0.13507698383E-02  0.22983582805E-01  0.53564797134E-02  0.23638137250E-01  0.00000000000E+00 0. -1.
     999901    1    3    3    0    0  0.48619654818E-01 -0.53548238728E-01 -0.11986923222E+00  0.89106673013E+00  0.88000000000E+00 0.  1.
        -11    1    4    4    0    0 -0.18293808149E-01  0.11831253753E-01  0.30318903626E-01  0.37338171086E-01  0.51100000000E-03 0. -1.
         11    1    4    4    0    0 -0.31676616508E-01  0.18733402169E-01  0.84193848881E-01  0.91886961538E-01  0.51100000000E-03 0.  1.
</event>
<event>
 8    1  0.1126414E+005  0.1043930E+01  0.7957747E-01            NaN
         13   -1    0    0    0    0  0.00000000000E+00  0.00000000000E+00  0.74505805969E-08  0.10566000000E+00  0.10566000000E+00 0.  1.
     999900   -1    0    0    0    0 -0.00000000000E+00 -0.00000000000E+00 -0.74505805969E-08  0.93827000000E+00  0.93827000000E+00 0.  1.
     999902    2    1    2    0    0  0.47686883227E-02  0.69551310976E-02  0.22869204363E-01  0.10195555309E+01  0.10192641296E+01 0.  0.
     999903    2    3    3    0    0  0.80768471155E-01  0.93859574486E-02  0.10338119340E+00  0.13261468940E+00  0.16951181825E-01 0.  0.
         14    1    1    2    0    0 -0.47686883227E-02 -0.69551310976E-02 -0.22869204363E-01  0.24374469124E-01  0.00000000000E+00 0. -1.
     999901    1    3    3    0    0 -0.75999782832E-01 -0.24308263511E-02 -0.80511989034E-01  0.88694084148E+00  0.88000000000E+00 0.  1.
        -11    1    4    4    0    0  0.47081247594E-01  0.12165597446E-01  0.68830945579E-01  0.84276959049E-01  0.51100000000E-03 0. -1.
         11    1    4    4    0    0  0.33687223561E-01 -0.27796399970E-02  0.34550247818E-01  0.48337730347E-01  0.51100000000E-03 0.  1.
</event>
<event>
 8    1  0.1324187E+005  0.1043930E+01  0.7957747E-01            NaN
         13   -1    0    0    0    0  0.00000000000E+00  0.00000000000E+00  0.74505805969E-08  0.10566000000E+00  0.10566000000E+00 0. -1.
     999900   -1    0    0    0    0 -0.00000000000E+00 -0.00000000000E+00 -0.74505805969E-08  0.93827000000E+00  0.93827000000E+00 0. -1.
     999902    2    1    2    0    0  0.81729446248E-02  0.33582874182E-02  0.21509164277E-01  0.10206766289E+01  0.10204117118E+01 0.  0.
     999903    2    3    3    0    0  0.98296451051E-02  0.11525625309E+00 -0.56377377854E-01  0.13017664980E+00  0.19670425033E-01 0.  0.
         14    1    1    2    0    0 -0.81729446248E-02 -0.33582874182E-02 -0.21509164277E-01  0.23253371070E-01  0.00000000000E+00 0.  1.
     999901    1    3    3    0    0 -0.16567004803E-02 -0.11189796567E+00  0.77886542131E-01  0.89049997913E+00  0.88000000000E+00 0. -1.
        -11    1    4    4    0    0  0.20190957862E-02  0.44424088298E-01 -0.11414249954E-01  0.45914296161E-01  0.51100000000E-03 0. -1.
         11    1    4    4    0    0  0.78105493190E-02  0.70832164793E-01 -0.44963127900E-01  0.84262353644E-01  0.51100000000E-03 0.  1.
</event>
<event>
 8    1  0.1126414E+005  0.1043930E+01  0.7957747E-01            NaN
         13   -1    0    0    0    0  0.00000000000E+00  0.00000000000E+00  0.74505805969E-08  0.10566000000E+00  0.10566000000E+00 0.  1.
     999900   -1    0    0    0    0 -0.00000000000E+00 -0.00000000000E+00 -0.74505805969E-08  0.93827000000E+00  0.93827000000E+00 0.  1.
     999902    2    1    2    0    0 -0.15096982482E-01 -0.15753814615E-01 -0.11107630624E-01  0.10194456986E+01  0.10191516332E+01 0.  0.
     999903    2    3    3    0    0  0.77235608305E-01 -0.10272696687E+00 -0.77636904939E-02  0.13034456915E+00  0.20279617924E-01 0.  0.
         14    1    1    2    0    0  0.15096982482E-01  0.15753814615E-01  0.11107630624E-01  0.24484301359E-01  0.00000000000E+00 0.  1.
     999901    1    3    3    0    0 -0.92332590786E-01  0.86973152255E-01 -0.33439401306E-02  0.88910112950E+00  0.88000000000E+00 0. -1.
        -11    1    4    4    0    0  0.59390899193E-01 -0.80038434605E-01 -0.14451819090E-01  0.10071020860E+00  0.51100000000E-03 0.  1.
         11    1    4    4    0    0  0.17844709112E-01 -0.22688532265E-01  0.66881285958E-02  0.29634360542E-01  0.51100000000E-03 0. -1.
</event>
<event>
 8    1  0.1126414E+005  0.1043930E+01  0.7957747E-01            NaN
         13   -1    0    0    0    0  0.00000000000E+00  0.00000000000E+00  0.74505805969E-08  0.10566000000E+00  0.10566000000E+00 0.  1.
     999900   -1    0    0    0    0 -0.00000000000E+00 -0.00000000000E+00 -0.74505805969E-08  0.93827000000E+00  0.93827000000E+00 0. -1.
     999902    2    1    2    0    0 -0.14472097241E-01 -0.33855918237E-02 -0.15231302690E-01  0.10226486370E+01  0.10224271799E+01 0.  0.
     999903    2    3    3    0    0  0.22570626579E-01 -0.12568258735E+00  0.28394667466E-01  0.13234984231E+00  0.20116601938E-01 0.  0.
         14    1    1    2    0    0  0.14472097241E-01  0.33855918237E-02  0.15231302690E-01  0.21281363025E-01  0.00000000000E+00 0.  1.
     999901    1    3    3    0    0 -0.37042723820E-01  0.12229699552E+00 -0.43625970156E-01  0.89029879466E+00  0.88000000000E+00 0.  1.
        -11    1    4    4    0    0  0.54872440104E-02 -0.74478329900E-01  0.22771539960E-01  0.78076472927E-01  0.51100000000E-03 0.  1.
         11    1    4    4    0    0  0.17083382568E-01 -0.51204257448E-01  0.56231275065E-02  0.54273369388E-01  0.51100000000E-03 0. -1.
</event>
<event>
 8    1  0.1126414E+005  0.1043930E+01  0.7957747E-01            NaN
         13   -1    0    0    0    0  0.00000000000E+00  0.00000000000E+00  0.74505805969E-08  0.10566000000E+00  0.10566000000E+00 0.  1.
     999900   -1    0    0    0    0 -0.00000000000E+00 -0.00000000000E+00 -0.74505805969E-08  0.93827000000E+00  0.93827000000E+00 0. -1.
     999902    2    1    2    0    0 -0.18453861826E-02 -0.67905042059E-02 -0.22662380702E-01  0.10202002740E+01  0.10199242615E+01 0.  0.
     999903    2    3    3    0    0  0.95688025153E-02 -0.42066607411E-01  0.11896685364E+00  0.12810525260E+00  0.19916878208E-01 0.  0.
         14    1    1    2    0    0  0.18453861826E-02  0.67905042059E-02  0.22662380702E-01  0.23729726012E-01  0.00000000000E+00 0.  1.
     999901    1    3    3    0    0 -0.11414188698E-01  0.35276103205E-01 -0.14162923435E+00  0.89209502139E+00  0.88000000000E+00 0. -1.
        -11    1    4    4    0    0  0.14812511670E-02 -0.38527548848E-01  0.93124962029E-01  0.10079229038E+00  0.51100000000E-03 0. -1.
         11    1    4    4    0    0  0.80875513484E-02 -0.35390585630E-02  0.25841891614E-01  0.27312962226E-01  0.51100000000E-03 0.  1.
</event>
<event>
 8    1  0.1126414E+005  0.1043930E+01  0.7957747E-01            NaN
         13   -1    0    0    0    0  0.00000000000E+00  0.00000000000E+00  0.74505805969E-08  0.10566000000E+00  0.10566000000E+00 0.  1.
     999900   -1    0    0    0    0 -0.00000000000E+00 -0.00000000000E+00 -0.74505805969E-08  0.93827000000E+00  0.93827000000E+00 0.  1.
     999902    2    1    2    0    0  0.41211170467E-02 -0.43506657879E-02 -0.27235232774E-01  0.10160432683E+01  0.10156605010E+01 0.  0.
     999903    2    3    3    0    0 -0.67372148200E-01 -0.42981884700E-01  0.92902409377E-01  0.12417068152E+00  0.20026275649E-01 0.  0.
         14    1    1    2    0    0 -0.41211170467E-02  0.43506657879E-02  0.27235232774E-01  0.27886731662E-01  0.00000000000E+00 0.  1.
     999901    1    3    3    0    0  0.71493265247E-01  0.38631218913E-01 -0.12013764215E+00  0.89187258681E+00  0.88000000000E+00 0.  1.
        -11    1    4    4    0    0 -0.21787378790E-01 -0.21988355108E-01  0.25343596506E-01  0.40009206937E-01  0.51100000000E-03 0.  1.
         11    1    4    4    0    0 -0.45584769410E-01 -0.20993529592E-01  0.67558812871E-01  0.84161474586E-01  0.51100000000E-03 0. -1.
</event>
<event>
 8    1  0.1126414E+005  0.1043930E+01  0.7957747E-01            NaN
         13   -1    0    0    0    0  0.00000000000E+00  0.00000000000E+00  0.74505805969E-08  0.10566000000E+00  0.10566000000E+00 0.  1.
     999900   -1    0    0    0    0 -0.00000000000E+00 -0.00000000000E+00 -0.74505805969E-08  0.93827000000E+00  0.93827000000E+00 0.  1.
     999902    2    1    2    0    0  0.18990161523E-01  0.47703617718E-02 -0.11808581157E-01  0.10210646293E+01  0.10208085776E+01 0.  0.
     999903    2    3    3    0    0 -0.32415792478E-01  0.73312566802E-02 -0.12623014989E+00  0.13216563302E+00  0.20716488168E-01 0.  0.
         14    1    1    2    0    0 -0.18990161523E-01 -0.47703617718E-02  0.11808581157E-01  0.22865370652E-01  0.00000000000E+00 0. -1.
     999901    1    3    3    0    0  0.51405954001E-01 -0.25608949084E-02  0.11442156874E+00  0.88889899633E+00  0.88000000000E+00 0. -1.
        -11    1    4    4    0    0 -0.10626897406E-01 -0.16125493758E-02 -0.75125501222E-01  0.75892248081E-01  0.51100000000E-03 0. -1.
         11    1    4    4    0    0 -0.21788895072E-01  0.89438060560E-02 -0.51104648671E-01  0.56273384935E-01  0.51100000000E-03 0.  1.
</event>
<event>
 8    1  0.1126414E+005  0.1043930E+01  0.7957747E-01            NaN
         13   -1    0    0    0    0  0.00000000000E+00  0.00000000000E+00  0.74505805969E-08  0.10566000000E+00  0.10566000000E+00 0.  1.
     999900   -1    0    0    0    0 -0.00000000000E+00 -0.00000000000E+00 -0.74505805969E-08  0.93827000000E+00  0.93827000000E+00 0. -1.
     999902    2    1    2    0    0 -0.57440359739E-02  0.84634081171E-02 -0.21475424020E-01  0.10201430905E+01  0.10198657304E+01 0.  0.
     999903    2    3    3    0    0 -0.48592592171E-01 -0.69981840802E-01 -0.98892858290E-01  0.13223368355E+00  0.21148323517E-01 0.  0.
         14    1    1    2    0    0  0.57440359739E-02 -0.84634081171E-02  0.21475424020E-01  0.23786909489E-01  0.00000000000E+00 0.  1.
     999901    1    3    3    0    0  0.42848556198E-01  0.78445248919E-01  0.77417434270E-01  0.88790940696E+00  0.88000000000E+00 0.  1.
        -11    1    4    4    0    0 -0.13972000915E-01 -0.30881740207E-01 -0.26812965378E-01  0.43221463663E-01  0.51100000000E-03 0.  1.
         11    1    4    4    0    0 -0.34620591256E-01 -0.39100100595E-01 -0.72079892912E-01  0.89012219884E-01  0.51100000000E-03 0. -1.
</event>
<event>
 8    1  0.1126414E+005  0.1043930E+01  0.7957747E-01            NaN
         13   -1    0    0    0    0  0.00000000000E+00  0.00000000000E+00  0.74505805969E-08  0.10566000000E+00  0.10566000000E+00 0. -1.
     999900   -1    0    0    0    0 -0.00000000000E+00 -0.00000000000E+00 -0.74505805969E-08  0.93827000000E+00  0.93827000000E+00 0.  1.
     999902    2    1    2    0    0  0.41153391122E-02  0.61701884710E-03  0.24926713688E-01  0.10186583205E+01  0.10183447924E+01 0.  0.
     999903    2    3    3    0    0  0.54049436620E-01 -0.23460717730E-01 -0.11031040978E+00  0.12660325997E+00  0.19704112608E-01 0.  0.
         14    1    1    2    0    0 -0.41153391122E-02 -0.61701884710E-03 -0.24926713688E-01  0.25271679476E-01  0.00000000000E+00 0.  1.
     999901    1    3    3    0    0 -0.49934097508E-01  0.24077736577E-01  0.13523712347E+00  0.89205506055E+00  0.88000000000E+00 0. -1.
        -11    1    4    4    0    0  0.13704974893E-01 -0.65649661858E-03 -0.40890805316E-01  0.43134399324E-01  0.51100000000E-03 0.  1.
         11    1    4    4    0    0  0.40344461727E-01 -0.22804221111E-01 -0.69419604466E-01  0.83468860647E-01  0.51100000000E-03 0. -1.
</event>
<event>
 8    1  0.1126414E+005  0.1043930E+01  0.7957747E-01            NaN
         13   -1    0    0    0    0  0.00000000000E+00  0.00000000000E+00  0.74505805969E-08  0.10566000000E+00  0.10566000000E+00 0. -1.
     999900   -1    0    0    0    0 -0.00000000000E+00 -0.00000000000E+00 -0.74505805969E-08  0.93827000000E+00  0.93827000000E+00 0.  1.
     999902    2    1    2    0    0 -0.21968312072E-01 -0.77611601635E-02  0.36693389525E-02  0.10203438517E+01  0.10200712080E+01 0.  0.
     999903    2    3    3    0    0  0.12378745980E+00 -0.23322949085E-01 -0.12512362003E-01  0.12807216565E+00  0.19458295267E-01 0.  0.
         14    1    1    2    0    0  0.21968312072E-01  0.77611601635E-02 -0.36693389525E-02  0.23586148281E-01  0.00000000000E+00 0. -1.
     999901    1    3    3    0    0 -0.14575577187E+00  0.15561788922E-01  0.16181700956E-01  0.89227168607E+00  0.88000000000E+00 0.  1.
        -11    1    4    4    0    0  0.66595226338E-01 -0.10676284753E-01  0.28750897190E-02  0.67508773423E-01  0.51100000000E-03 0.  1.
         11    1    4    4    0    0  0.57192233461E-01 -0.12646664332E-01 -0.15387451722E-01  0.60563392231E-01  0.51100000000E-03 0. -1.
</event>
<event>
 8    1  0.1126414E+005  0.1043930E+01  0.7957747E-01            NaN
         13   -1    0    0    0    0  0.00000000000E+00  0.00000000000E+00  0.74505805969E-08  0.10566000000E+00  0.10566000000E+00 0.  1.
     999900   -1    0    0    0    0 -0.00000000000E+00 -0.00000000000E+00 -0.74505805969E-08  0.93827000000E+00  0.93827000000E+00 0.  1.
     999902    2    1    2    0    0 -0.73498982873E-02  0.21416610866E-01 -0.85788190388E-02  0.10197166078E+01  0.10194290911E+01 0.  0.
     999903    2    3    3    0    0 -0.99763419757E-01  0.65959357379E-01 -0.53624692091E-01  0.13261264213E+00  0.20177425614E-01 0.  0.
         14    1    1    2    0    0  0.73498982873E-02 -0.21416610866E-01  0.85788190388E-02  0.24213392202E-01  0.00000000000E+00 0. -1.
     999901    1    3    3    0    0  0.92413521470E-01 -0.44542746512E-01  0.45045873053E-01  0.88710396566E+00  0.88000000000E+00 0.  1.
        -11    1    4    4    0    0 -0.44594617960E-01  0.20848862815E-01 -0.14539055629E-01  0.51332253908E-01  0.51100000000E-03 0.  1.
         11    1    4    4    0    0 -0.55168801797E-01  0.45110494563E-01 -0.39085636462E-01  0.81280388226E-01  0.51100000000E-03 0. -1.
</event>
<event>
 8    1  0.1126414E+005  0.1043930E+01  0.7957747E-01            NaN
         13   -1    0    0    0    0  0.00000000000E+00  0.00000000000E+00  0.74505805969E-08  0.10566000000E+00  0.10566000000E+00 0.  1.
     999900   -1    0    0    0    0 -0.00000000000E+00 -0.00000000000E+00 -0.74505805969E-08  0.93827000000E+00  0.93827000000E+00 0. -1.
     999902    2    1    2    0    0 -0.78682883999E-02 -0.18998147714E-01 -0.29725356463E-02  0.10231531969E+01  0.10229422216E+01 0.  0.
     999903    2    3    3    0    0 -0.12272828055E-01  0.12458076424E+00 -0.33080092506E-01  0.13099807087E+00  0.19879962842E-01 0.  0.
         14    1    1    2    0    0  0.78682883999E-02  0.18998147714E-01  0.29725356463E-02  0.20776803100E-01  0.00000000000E+00 0. -1.
     999901    1    3    3    0    0  0.44045396551E-02 -0.14357891196E+00  0.30107556860E-01  0.89215512603E+00  0.88000000000E+00 0.  1.
        -11    1    4    4    0    0 -0.17738207304E-01  0.92398370986E-01 -0.23581503715E-01  0.96997172112E-01  0.51100000000E-03 0. -1.
         11    1    4    4    0    0  0.54653792489E-02  0.32182393257E-01 -0.94985887906E-02  0.34000898754E-01  0.51100000000E-03 0.  1.
</event>
<event>
 8    1  0.1126414E+005  0.1043930E+01  0.7957747E-01            NaN
         13   -1    0    0    0    0  0.00000000000E+00  0.00000000000E+00  0.74505805969E-08  0.10566000000E+00  0.10566000000E+00 0. -1.
     999900   -1    0    0    0    0 -0.00000000000E+00 -0.00000000000E+00 -0.74505805969E-08  0.93827000000E+00  0.93827000000E+00 0.  1.
     999902    2    1    2    0    0  0.51270645499E-02  0.24578455910E-01  0.11952607747E-01  0.10161225888E+01  0.10157420260E+01 0.  0.
     999903    2    3    3    0    0 -0.73652299930E-01  0.10167461945E+00 -0.19570705425E-01  0.12868598488E+00  0.20363709577E-01 0.  0.
         14    1    1    2    0    0 -0.51270645499E-02 -0.24578455910E-01 -0.11952607747E-01  0.27807411202E-01  0.00000000000E+00 0. -1.
     999901    1    3    3    0    0  0.78779364480E-01 -0.77096163543E-01  0.31523313171E-01  0.88743660392E+00  0.88000000000E+00 0. -1.
        -11    1    4    4    0    0 -0.32298979410E-01  0.61818349887E-01 -0.11222784208E-01  0.70646616763E-01  0.51100000000E-03 0.  1.
         11    1    4    4    0    0 -0.41353320520E-01  0.39856269566E-01 -0.83479212161E-02  0.58039368117E-01  0.51100000000E-03 0. -1.
</event>
<event>
 8    1  0.1126414E+005  0.1043930E+01  0.7957747E-01            NaN
         13   -1    0    0    0    0  0.00000000000E+00  0.00000000000E+00  0.74505805969E-08  0.10566000000E+00  0.10566000000E+00 0.  1.
     999900   -1    0    0    0    0 -0.00000000000E+00 -0.00000000000E+00 -0.74505805969E-08  0.93827000000E+00  0.93827000000E+00 0. -1.
     999902    2    1    2    0    0 -0.20696486109E-02 -0.13008755476E-01 -0.16962828198E-01  0.10224532986E+01  0.10222277139E+01 0.  0.
     999903    2    3    3    0    0 -0.87412435658E-01 -0.94162836129E-01 -0.36071975847E-01  0.13440232275E+00  0.15975709796E-01 0.  0.
         14    1    1    2    0    0  0.20696486109E-02  0.13008755476E-01  0.16962828198E-01  0.21476701443E-01  0.00000000000E+00 0.  1.
     999901    1    3    3    0    0  0.85342787047E-01  0.81154080653E-01  0.19109147649E-01  0.88805097581E+00  0.88000000000E+00 0. -1.
        -11    1    4    4    0    0 -0.40039141480E-01 -0.39836604123E-01 -0.23756244447E-01  0.61275673393E-01  0.51100000000E-03 0. -1.
         11    1    4    4    0    0 -0.47373294178E-01 -0.54326232006E-01 -0.12315731400E-01  0.73126649357E-01  0.51100000000E-03 0.  1.
</event>
<event>
 8    1  0.1126414E+005  0.1043930E+01  0.7957747E-01            NaN
         13   -1    0    0    0    0  0.00000000000E+00  0.00000000000E+00  0.74505805969E-08  0.10566000000E+00  0.10566000000E+00 0. -1.
     999900   -1    0    0    0    0 -0.00000000000E+00 -0.00000000000E+00 -0.74505805969E-08  0.93827000000E+00  0.93827000000E+00 0.  1.
     999902    2    1    2    0    0 -0.11378620468E-01  0.19906401785E-01  0.43895295341E-02  0.10205846406E+01  0.10203175990E+01 0.  0.
     999903    2    3    3    0    0  0.23301042458E-02 -0.71513213301E-01 -0.10548516563E+00  0.12894686449E+00  0.19509090985E-01 0.  0.
         14    1    1    2    0    0  0.11378620468E-01 -0.19906401785E-01 -0.43895295341E-02  0.23345359396E-01  0.00000000000E+00 0.  1.
     999901    1    3    3    0    0 -0.13708724714E-01  0.91419615087E-01  0.10987469517E+00  0.89163777611E+00  0.88000000000E+00 0. -1.
        -11    1    4    4    0    0 -0.77806381871E-03 -0.68721605861E-01 -0.92109992757E-01  0.11492509031E+00  0.51100000000E-03 0.  1.
         11    1    4    4    0    0  0.31081680645E-02 -0.27916074404E-02 -0.13375172874E-01  0.14021774183E-01  0.51100000000E-03 0. -1.
</event>
<event>
 8    1  0.1126414E+005  0.1043930E+01  0.7957747E-01            NaN
         13   -1    0    0    0    0  0.00000000000E+00  0.00000000000E+00  0.74505805969E-08  0.10566000000E+00  0.10566000000E+00 0. -1.
     999900   -1    0    0    0    0 -0.00000000000E+00 -0.00000000000E+00 -0.74505805969E-08  0.93827000000E+00  0.93827000000E+00 0. -1.
     999902    2    1    2    0    0 -0.22175062920E-01  0.20557592684E-02 -0.58715711480E-02  0.10208988274E+01  0.10206390062E+01 0.  0.
     999903    2    3    3    0    0  0.36463287244E-01 -0.61302381001E-01  0.10619166800E+00  0.12960152597E+00  0.20792593576E-01 0.  0.
         14    1    1    2    0    0  0.22175062920E-01 -0.20557592684E-02  0.58715711480E-02  0.23031172559E-01  0.00000000000E+00 0. -1.
     999901    1    3    3    0    0 -0.58638350164E-01  0.63358140269E-01 -0.11206323915E+00  0.89129730147E+00  0.88000000000E+00 0. -1.
        -11    1    4    4    0    0  0.16545737435E-01 -0.20949452195E-01  0.56915943608E-01  0.62867533213E-01  0.51100000000E-03 0.  1.
         11    1    4    4    0    0  0.19917549809E-01 -0.40352928806E-01  0.49275724391E-01  0.66733992754E-01  0.51100000000E-03 0. -1.
</event>
<event>
 8    1  0.1159649E+005  0.1043930E+01  0.7957747E-01            NaN
         13   -1    0    0    0    0  0.00000000000E+00  0.00000000000E+00  0.74505805969E-08  0.10566000000E+00  0.10566000000E+00 0. -1.
     999900   -1    0    0    0    0 -0.00000000000E+00 -0.00000000000E+00 -0.74505805969E-08  0.93827000000E+00  0.93827000000E+00 0. -1.
     999902    2    1    2    0    0  0.84672880140E-02 -0.15827352019E-01  0.15946894607E-01  0.10199195130E+01  0.10196368518E+01 0.  0.
     999903    2    3    3    0    0 -0.11556169054E+00 -0.20445443234E-01 -0.49504505227E-01  0.12880313450E+00  0.19158051832E-01 0.  0.
         14    1    1    2    0    0 -0.84672880140E-02  0.15827352019E-01 -0.15946894607E-01  0.24010486997E-01  0.00000000000E+00 0.  1.
     999901    1    3    3    0    0  0.12402897856E+00  0.46180912157E-02  0.65451399834E-01  0.89111637850E+00  0.88000000000E+00 0.  1.
        -11    1    4    4    0    0 -0.62450967463E-01 -0.11498662978E-01 -0.16417242267E-01  0.65590620915E-01  0.51100000000E-03 0. -1.
         11    1    4    4    0    0 -0.53110723081E-01 -0.89467802564E-02 -0.33087262960E-01  0.63212513589E-01  0.51100000000E-03 0.  1.
</event>
<event>
 8    1  0.1126414E+005  0.1043930E+01  0.7957747E-01            NaN
         13   -1    0    0    0    0  0.00000000000E+00  0.00000000000E+00  0.74505805969E-08  0.10566000000E+00  0.10566000000E+00 0. -1.
     999900   -1    0    0    0    0 -0.00000000000E+00 -0.00000000000E+00 -0.74505805969E-08  0.93827000000E+00  0.93827000000E+00 0.  1.
     999902    2    1    2    0    0  0.85374645404E-02  0.93313242060E-02  0.22880244566E-01  0.10177867886E+01  0.10174509715E+01 0.  0.
     999903    2    3    3    0    0  0.50432824322E-01 -0.11570456010E+00  0.40506556484E-03  0.12767762268E+00  0.19245681563E-01 0.  0.
         14    1    1    2    0    0 -0.85374645404E-02 -0.93313242060E-02 -0.22880244566E-01  0.26143211425E-01  0.00000000000E+00 0.  1.
     999901    1    3    3    0    0 -0.41895359782E-01  0.12503588430E+00  0.22475179002E-01  0.89010916589E+00  0.88000000000E+00 0.  1.
        -11    1    4    4    0    0  0.19413803286E-01 -0.65023156634E-01  0.52099045996E-02  0.68061082004E-01  0.51100000000E-03 0. -1.
         11    1    4    4    0    0  0.31019021036E-01 -0.50681403465E-01 -0.48048390348E-02  0.59616540678E-01  0.51100000000E-03 0.  1.
</event>
<event>
 8    1  0.1126414E+005  0.1043930E+01  0.7957747E-01            NaN
         13   -1    0    0    0    0  0.00000000000E+00  0.00000000000E+00  0.74505805969E-08  0.10566000000E+00  0.10566000000E+00 0.  1.
     999900   -1    0    0    0    0 -0.00000000000E+00 -0.00000000000E+00 -0.74505805969E-08  0.93827000000E+00  0.93827000000E+00 0.  1.
     999902    2    1    2    0    0 -0.31275426113E-03  0.10527392466E-01 -0.21332824022E-01  0.10201389683E+01  0.10198615109E+01 0.  0.
     999903    2    3    3    0    0  0.64985457348E-02 -0.13447694720E-01 -0.13067063884E+00  0.13302231514E+00  0.19926085449E-01 0.  0.
         14    1    1    2    0    0  0.31275426113E-03 -0.10527392466E-01  0.21332824022E-01  0.23791031674E-01  0.00000000000E+00 0. -1.
     999901    1    3    3    0    0 -0.68112999960E-02  0.23975087186E-01  0.10933781481E+00  0.88711665319E+00  0.88000000000E+00 0. -1.
        -11    1    4    4    0    0  0.78919127907E-02  0.28052522135E-02 -0.52472494916E-01  0.53139209358E-01  0.51100000000E-03 0.  1.
         11    1    4    4    0    0 -0.13933670559E-02 -0.16252946933E-01 -0.78198143920E-01  0.79883105781E-01  0.51100000000E-03 0. -1.
</event>
<event>
 8    1  0.1126414E+005  0.1043930E+01  0.7957747E-01            NaN
         13   -1    0    0    0    0  0.00000000000E+00  0.00000000000E+00  0.74505805969E-08  0.10566000000E+00  0.10566000000E+00 0.  1.
     999900   -1    0    0    0    0 -0.00000000000E+00 -0.00000000000E+00 -0.74505805969E-08  0.93827000000E+00  0.93827000000E+00 0. -1.
     999902    2    1    2    0    0  0.89759797615E-02 -0.16443271734E-01  0.15607334763E-01  0.10195468440E+01  0.10192552324E+01 0.  0.
     999903    2    3    3    0    0  0.12510721281E+00 -0.24715519307E-01  0.26180907356E-01  0.13181563817E+00  0.20670049919E-01 0.  0.
         14    1    1    2    0    0 -0.89759797615E-02  0.16443271734E-01 -0.15607334763E-01  0.24383155998E-01  0.00000000000E+00 0. -1.
     999901    1    3    3    0    0 -0.11613123305E+00  0.82722475730E-02 -0.10573572593E-01  0.88773120583E+00  0.88000000000E+00 0. -1.
        -11    1    4    4    0    0  0.31368236547E-01 -0.15370043112E-01  0.54701299748E-02  0.35360824824E-01  0.51100000000E-03 0.  1.
         11    1    4    4    0    0  0.93738976267E-01 -0.93454761954E-02  0.20710777382E-01  0.96454813346E-01  0.51100000000E-03 0. -1.
</event>
<event>
 8    1  0.1126414E+005  0.1043930E+01  0.7957747E-01            NaN
         13   -1    0    0    0    0  0.00000000000E+00  0.00000000000E+00  0.74505805969E-08  0.10566000000E+00  0.10566000000E+00 0. -1.
     999900   -1    0    0    0    0 -0.00000000000E+00 -0.00000000000E+00 -0.74505805969E-08  0.93827000000E+00  0.93827000000E+00 0.  1.
     999902    2    1    2    0    0 -0.39418639935E-02 -0.18839394240E-01  0.13075803649E-01  0.10206611859E+01  0.10203959128E+01 0.  0.
     999903    2    3    3    0    0  0.12380489280E+00  0.33006542318E-01  0.81808064788E-02  0.12991363696E+00  0.19837947370E-01 0.  0.
         14    1    1    2    0    0  0.39418639935E-02  0.18839394240E-01 -0.13075803649E-01  0.23268814068E-01  0.00000000000E+00 0.  1.
     999901    1    3    3    0    0 -0.12774675679E+00 -0.51845936558E-01  0.48949971699E-02  0.89074754898E+00  0.88000000000E+00 0.  1.
        -11    1    4    4    0    0  0.66864508950E-01  0.27637887860E-01  0.19421698017E-02  0.72379199685E-01  0.51100000000E-03 0. -1.
         11    1    4    4    0    0  0.56940383849E-01  0.53686544578E-02  0.62386366772E-02  0.57534437271E-01  0.51100000000E-03 0.  1.
</event>
<event>
 8    1  0.1126414E+005  0.1043930E+01  0.7957747E-01            NaN
         13   -1    0    0    0    0  0.00000000000E+00  0.00000000000E+00  0.74505805969E-08  0.10566000000E+00  0.10566000000E+00 0.  1.
     999900   -1    0    0    0    0 -0.00000000000E+00 -0.00000000000E+00 -0.74505805969E-08  0.93827000000E+00  0.93827000000E+00 0. -1.
     999902    2    1    2    0    0 -0.69657967314E-02  0.31691387257E-01 -0.14675180190E-01  0.10083178214E+01  0.10076887425E+01 0.  0.
     999903    2    3    3    0    0 -0.75937549405E-02 -0.20883614659E-01  0.11361590795E+00  0.11746254222E+00  0.19876715297E-01 0.  0.
         14    1    1    2    0    0  0.69657967314E-02 -0.31691387257E-01  0.14675180190E-01  0.35612178591E-01  0.00000000000E+00 0.  1.
     999901    1    3    3    0    0  0.62795820910E-03  0.52575001916E-01 -0.12829108814E+00  0.89085527919E+00  0.88000000000E+00 0. -1.
        -11    1    4    4    0    0 -0.78195651102E-02 -0.38547732339E-02  0.14767365221E-01  0.17156371171E-01  0.51100000000E-03 0. -1.
         11    1    4    4    0    0  0.22581016970E-03 -0.17028841425E-01  0.98848542729E-01  0.10030617105E+00  0.51100000000E-03 0.  1.
</event>
<event>
 8    1  0.1126414E+005  0.1043930E+01  0.7957747E-01            NaN
         13   -1    0    0    0    0  0.00000000000E+00  0.00000000000E+00  0.74505805969E-08  0.10566000000E+00  0.10566000000E+00 0. -1.
     999900   -1    0    0    0    0 -0.00000000000E+00 -0.00000000000E+00 -0.74505805969E-08  0.93827000000E+00  0.93827000000E+00 0. -1.
     999902    2    1    2    0    0  0.14065395773E-01  0.33933568477E-02 -0.20050905867E-01  0.10192037173E+01  0.10189037385E+01 0.  0.
     999903    2    3    3    0    0 -0.70560882872E-01  0.52501317250E-01 -0.94805090734E-01  0.13063104896E+00  0.18472661362E-01 0.  0.
         14    1    1    2    0    0 -0.14065395773E-01 -0.33933568477E-02  0.20050905867E-01  0.24726282677E-01  0.00000000000E+00 0. -1.
     999901    1    3    3    0    0  0.84626278645E-01 -0.49107960402E-01  0.74754184868E-01  0.88857266837E+00  0.88000000000E+00 0.  1.
        -11    1    4    4    0    0 -0.63616739246E-01  0.44127913793E-01 -0.73760430139E-01  0.10693560896E+00  0.51100000000E-03 0. -1.
         11    1    4    4    0    0 -0.69441436262E-02  0.83734034561E-02 -0.21044660595E-01  0.23695439998E-01  0.51100000000E-03 0.  1.
</event>
<event>
 8    1  0.1126414E+005  0.1043930E+01  0.7957747E-01            NaN
         13   -1    0    0    0    0  0.00000000000E+00  0.00000000000E+00  0.74505805969E-08  0.10566000000E+00  0.10566000000E+00 0.  1.
     999900   -1    0    0    0    0 -0.00000000000E+00 -0.00000000000E+00 -0.74505805969E-08  0.93827000000E+00  0.93827000000E+00 0.  1.
     999902    2    1    2    0    0  0.22349275425E-01  0.30714334201E-03  0.62019723437E-02  0.10207341187E+01  0.10204705249E+01 0.  0.
     999903    2    3    3    0    0 -0.88261470430E-01 -0.18217147113E-01 -0.89779713774E-01  0.12843911673E+00  0.17727326101E-01 0.  0.
         14    1    1    2    0    0 -0.22349275425E-01 -0.30714334201E-03 -0.62019723437E-02  0.23195881315E-01  0.00000000000E+00 0.  1.
     999901    1    3    3    0    0  0.11061074585E+00  0.18524290455E-01  0.95981686118E-01  0.89229500195E+00  0.88000000000E+00 0. -1.
        -11    1    4    4    0    0 -0.38598892152E-01 -0.16588366079E-01 -0.44692884583E-01  0.61341367916E-01  0.51100000000E-03 0. -1.
         11    1    4    4    0    0 -0.49662578279E-01 -0.16287810342E-02 -0.45086829191E-01  0.67097748818E-01  0.51100000000E-03 0.  1.
</event>
<event>
 8    1  0.1126414E+005  0.1043930E+01  0.7957747E-01            NaN
         13   -1    0    0    0    0  0.00000000000E+00  0.00000000000E+00  0.74505805969E-08  0.10566000000E+00  0.10566000000E+00 0.  1.
     999900   -1    0    0    0    0 -0.00000000000E+00 -0.00000000000E+00 -0.74505805969E-08  0.93827000000E+00  0.93827000000E+00 0. -1.
     999902    2    1    2    0    0 -0.18884492791E-01  0.82771327465E-02 -0.28301819890E-02  0.10231178659E+01  0.10229061651E+01 0.  0.
     999903    2    3    3    0    0 -0.68084599602E-01 -0.91584040513E-01 -0.67020108602E-01  0.13378482870E+00  0.19584081619E-01 0.  0.
         14    1    1    2    0    0  0.18884492791E-01 -0.82771327465E-02  0.28301819890E-02  0.20812134070E-01  0.00000000000E+00 0.  1.
     999901    1    3    3    0    0  0.49200106812E-01  0.99861173259E-01  0.64189926613E-01  0.88933303723E+00  0.88000000000E+00 0.  1.
        -11    1    4    4    0    0 -0.44778334288E-01 -0.45452249785E-01 -0.32275870334E-01  0.71505238682E-01  0.51100000000E-03 0.  1.
         11    1    4    4    0    0 -0.23306265314E-01 -0.46131790728E-01 -0.34744238268E-01  0.62279590015E-01  0.51100000000E-03 0. -1.
</event>
<event>
 8    1  0.1126414E+005  0.1043930E+01  0.7957747E-01            NaN
         13   -1    0    0    0    0  0.00000000000E+00  0.00000000000E+00  0.74505805969E-08  0.10566000000E+00  0.10566000000E+00 0.  1.
     999900   -1    0    0    0    0 -0.00000000000E+00 -0.00000000000E+00 -0.74505805969E-08  0.93827000000E+00  0.93827000000E+00 0.  1.
     999902    2    1    2    0    0  0.17765928053E-01 -0.62167248513E-02  0.16042431477E-01  0.10191987349E+01  0.10188986337E+01 0.  0.
     999903    2    3    3    0    0 -0.58882652303E-01  0.60838368019E-01 -0.92071555693E-01  0.12675264430E+00  0.20508235003E-01 0.  0.
         14    1    1    2    0    0 -0.17765928053E-01  0.62167248513E-02 -0.16042431477E-01  0.24731265135E-01  0.00000000000E+00 0. -1.
     999901    1    3    3    0    0  0.76648580356E-01 -0.67055092870E-01  0.10811398717E+00  0.89244609057E+00  0.88000000000E+00 0. -1.
        -11    1    4    4    0    0  0.25667944238E-03  0.12924164333E-02 -0.74066456079E-02  0.75402748448E-02  0.51100000000E-03 0. -1.
         11    1    4    4    0    0 -0.59139331745E-01  0.59545951586E-01 -0.84664910085E-01  0.11921236945E+00  0.51100000000E-03 0.  1.
</event>
<event>
 8    1  0.1126414E+005  0.1043930E+01  0.7957747E-01            NaN
         13   -1    0    0    0    0  0.00000000000E+00  0.00000000000E+00  0.74505805969E-08  0.10566000000E+00  0.10566000000E+00 0. -1.
     999900   -1    0    0    0    0 -0.00000000000E+00 -0.00000000000E+00 -0.74505805969E-08  0.93827000000E+00  0.93827000000E+00 0.  1.
     999902    2    1    2    0    0 -0.21987508628E-01 -0.44651815518E-02  0.66423720493E-02  0.10205310793E+01  0.10202627967E+01 0.  0.
     999903    2    3    3    0    0  0.28446500337E-01 -0.16097125115E-01  0.12530960600E+00  0.13105887416E+00  0.20139769642E-01 0.  0.
         14    1    1    2    0    0  0.21987508628E-01  0.44651815518E-02 -0.66423720493E-02  0.23398920667E-01  0.00000000000E+00 0.  1.
     999901    1    3    3    0    0 -0.50434008964E-01  0.11631943563E-01 -0.11866723395E+00  0.88947220518E+00  0.88000000000E+00 0.  1.
        -11    1    4    4    0    0  0.84524025968E-02 -0.74308079623E-02  0.15825234171E-01  0.19425734843E-01  0.51100000000E-03 0. -1.
         11    1    4    4    0    0  0.19994097740E-01 -0.86663171524E-02  0.10948437183E+00  0.11163313931E+00  0.51100000000E-03 0.  1.
</event>
<event>
 8    1  0.1267811E+005  0.1043930E+01  0.7957747E-01            NaN
         13   -1    0    0    0    0  0.00000000000E+00  0.00000000000E+00  0.74505805969E-08  0.10566000000E+00  0.10566000000E+00 0. -1.
     999900   -1    0    0    0    0 -0.00000000000E+00 -0.00000000000E+00 -0.74505805969E-08  0.93827000000E+00  0.93827000000E+00 0.  1.
     999902    2    1    2    0    0  0.12749553057E-01 -0.19155227571E-01  0.68268384879E-03  0.10209095764E+01  0.10206500004E+01 0.  0.
     999903    2    3    3    0    0  0.11749901597E+00 -0.54222320066E-01 -0.26467114190E-01  0.13358817886E+00  0.19980356653E-01 0.  0.
         14    1    1    2    0    0 -0.12749553057E-01  0.19155227571E-01 -0.68268384879E-03  0.23020423621E-01  0.00000000000E+00 0.  1.
     999901    1    3    3    0    0 -0.10474946291E+00  0.35067092495E-01  0.27149798038E-01  0.88732139752E+00  0.88000000000E+00 0.  1.
        -11    1    4    4    0    0  0.50257741584E-01 -0.25380548696E-01 -0.16602360708E-02  0.56329657783E-01  0.51100000000E-03 0.  1.
         11    1    4    4    0    0  0.67241274383E-01 -0.28841771370E-01 -0.24806878119E-01  0.77258521080E-01  0.51100000000E-03 0. -1.
</event>
<event>
 8    1  0.1126414E+005  0.1043930E+01  0.7957747E-01            NaN
         13   -1    0    0    0    0  0.00000000000E+00  0.00000000000E+00  0.74505805969E-08  0.10566000000E+00  0.10566000000E+00 0. -1.
     999900   -1    0    0    0    0 -0.00000000000E+00 -0.00000000000E+00 -0.74505805969E-08  0.93827000000E+00  0.93827000000E+00 0.  1.
     999902    2    1    2    0    0  0.15145771628E-01  0.91590491576E-02  0.15415448138E-01  0.10204583443E+01  0.10201883717E+01 0.  0.
     999903    2    3    3    0    0 -0.18799912836E-01 -0.12571173771E+00 -0.11729838984E-01  0.12912265824E+00  0.19447211275E-01 0.  0.
         14    1    1    2    0    0 -0.15145771628E-01 -0.91590491576E-02 -0.15415448138E-01  0.23471655693E-01  0.00000000000E+00 0.  1.
     999901    1    3    3    0    0  0.33945684464E-01  0.13487078687E+00  0.27145287123E-01  0.89133568607E+00  0.88000000000E+00 0.  1.
        -11    1    4    4    0    0 -0.40500877494E-02 -0.86042610331E-01 -0.10523701552E-01  0.86779856066E-01  0.51100000000E-03 0. -1.
         11    1    4    4    0    0 -0.14749825086E-01 -0.39669127383E-01 -0.12061374322E-02  0.42342802173E-01  0.51100000000E-03 0.  1.
</event>
<event>
 8    1  0.1126414E+005  0.1043930E+01  0.7957747E-01            NaN
         13   -1    0    0    0    0  0.00000000000E+00  0.00000000000E+00  0.74505805969E-08  0.10566000000E+00  0.10566000000E+00 0.  1.
     999900   -1    0    0    0    0 -0.00000000000E+00 -0.00000000000E+00 -0.74505805969E-08  0.93827000000E+00  0.93827000000E+00 0. -1.
     999902    2    1    2    0    0 -0.66221272542E-04 -0.22481593807E-01  0.23775380866E-03  0.10214470515E+01  0.10211995868E+01 0.  0.
     999903    2    3    3    0    0  0.11309049837E+00 -0.48641784834E-01  0.45546412945E-01  0.13266042168E+00  0.19204887258E-01 0.  0.
         14    1    1    2    0    0  0.66221272542E-04  0.22481593807E-01 -0.23775380866E-03  0.22482948477E-01  0.00000000000E+00 0. -1.
     999901    1    3    3    0    0 -0.11315671964E+00  0.26160191028E-01 -0.45308659137E-01  0.88878662984E+00  0.88000000000E+00 0. -1.
        -11    1    4    4    0    0  0.72324375613E-01 -0.40923518323E-01  0.30723268880E-01  0.88598702200E-01  0.51100000000E-03 0.  1.
         11    1    4    4    0    0  0.40766122757E-01 -0.77182665116E-02  0.14823144065E-01  0.44061719480E-01  0.51100000000E-03 0. -1.
</event>
<event>
 8    1  0.1126414E+005  0.1043930E+01  0.7957747E-01            NaN
         13   -1    0    0    0    0  0.00000000000E+00  0.00000000000E+00  0.74505805969E-08  0.10566000000E+00  0.10566000000E+00 0. -1.
     999900   -1    0    0    0    0 -0.00000000000E+00 -0.00000000000E+00 -0.74505805969E-08  0.93827000000E+00  0.93827000000E+00 0. -1.
     999902    2    1    2    0    0  0.18255563617E-01 -0.26595239954E-03  0.15429209288E-01  0.10200260917E+01  0.10197459639E+01 0.  0.
     999903    2    3    3    0    0 -0.38930095485E-01 -0.10603677003E+00 -0.59042316295E-01  0.12873283265E+00  0.18077559440E-01 0.  0.
         14    1    1    2    0    0 -0.18255563617E-01  0.26595239954E-03 -0.15429209288E-01  0.23903908319E-01  0.00000000000E+00 0.  1.
     999901    1    3    3    0    0  0.57185659103E-01  0.10577081763E+00  0.74471525583E-01  0.89129325903E+00  0.88000000000E+00 0.  1.
        -11    1    4    4    0    0 -0.25275582462E-01 -0.78021306621E-01 -0.50866900624E-01  0.96508455877E-01  0.51100000000E-03 0.  1.
         11    1    4    4    0    0 -0.13654513023E-01 -0.28015463412E-01 -0.81754156716E-02  0.32224376774E-01  0.51100000000E-03 0. -1.
</event>
<event>
 8    1  0.1126414E+005  0.1043930E+01  0.7957747E-01            NaN
         13   -1    0    0    0    0  0.00000000000E+00  0.00000000000E+00  0.74505805969E-08  0.10566000000E+00  0.10566000000E+00 0.  1.
     999900   -1    0    0    0    0 -0.00000000000E+00 -0.00000000000E+00 -0.74505805969E-08  0.93827000000E+00  0.93827000000E+00 0. -1.
     999902    2    1    2    0    0 -0.14441470100E-01  0.86475635427E-02 -0.18604357660E-01  0.10188409877E+01  0.10185320317E+01 0.  0.
     999903    2    3    3    0    0 -0.10181974476E+00  0.20605863869E-01  0.75212439774E-01  0.12947067377E+00  0.17716721506E-01 0.  0.
         14    1    1    2    0    0  0.14441470100E-01 -0.86475635427E-02  0.18604357660E-01  0.25089012292E-01  0.00000000000E+00 0. -1.
     999901    1    3    3    0    0  0.87378274662E-01 -0.11958300327E-01 -0.93816797434E-01  0.88937031394E+00  0.88000000000E+00 0. -1.
        -11    1    4    4    0    0 -0.19182505656E-01  0.92036880292E-02  0.21503625373E-01  0.30254642979E-01  0.51100000000E-03 0. -1.
         11    1    4    4    0    0 -0.82637239106E-01  0.11402175840E-01  0.53708814401E-01  0.99216030793E-01  0.51100000000E-03 0.  1.
</event>
<event>
 8    1  0.1126414E+005  0.1043930E+01  0.7957747E-01            NaN
         13   -1    0    0    0    0  0.00000000000E+00  0.00000000000E+00  0.74505805969E-08  0.10566000000E+00  0.10566000000E+00 0.  1.
     999900   -1    0    0    0    0 -0.00000000000E+00 -0.00000000000E+00 -0.74505805969E-08  0.93827000000E+00  0.93827000000E+00 0. -1.
     999902    2    1    2    0    0  0.96984036655E-03  0.22988878905E-01 -0.36720281616E-02  0.10206295078E+01  0.10203635035E+01 0.  0.
     999903    2    3    3    0    0  0.10448514772E+00 -0.68021628495E-01  0.27912656580E-01  0.12934059643E+00  0.20144116992E-01 0.  0.
         14    1    1    2    0    0 -0.96984036655E-03 -0.22988878905E-01  0.36720281616E-02  0.23300492151E-01  0.00000000000E+00 0. -1.
     999901    1    3    3    0    0 -0.10351530735E+00  0.91010507401E-01 -0.31584684741E-01  0.89128891142E+00  0.88000000000E+00 0. -1.
        -11    1    4    4    0    0  0.24069045962E-01 -0.82235286822E-02  0.10969774507E-01  0.27704556868E-01  0.51100000000E-03 0. -1.
         11    1    4    4    0    0  0.80416101759E-01 -0.59798099813E-01  0.16942882072E-01  0.10163603956E+00  0.51100000000E-03 0.  1.
</event>
<event>
 8    1  0.1126414E+005  0.1043930E+01  0.7957747E-01            NaN
         13   -1    0    0    0    0  0.00000000000E+00  0.00000000000E+00  0.74505805969E-08  0.10566000000E+00  0.10566000000E+00 0. -1.
     999900   -1    0    0    0    0 -0.00000000000E+00 -0.00000000000E+00 -0.74505805969E-08  0.93827000000E+00  0.93827000000E+00 0.  1.
     999902    2    1    2    0    0  0.82499367848E-02 -0.99796004096E-02  0.18613804581E-01  0.10212556179E+01  0.10210038734E+01 0.  0.
     999903    2    3    3    0    0 -0.23515644776E-02  0.11309999271E+00  0.63557598281E-01  0.13149108578E+00  0.21288474245E-01 0.  0.
         14    1    1    2    0    0 -0.82499367848E-02  0.99796004096E-02 -0.18613804581E-01  0.22674382071E-01  0.00000000000E+00 0. -1.
     999901    1    3    3    0    0  0.10601501262E-01 -0.12307959312E+00 -0.44943793700E-01  0.88976453214E+00  0.88000000000E+00 0.  1.
        -11    1    4    4    0    0  0.28624165809E-02  0.90333680260E-01  0.58278384961E-01  0.10754068296E+00  0.51100000000E-03 0.  1.
         11    1    4    4    0    0 -0.52139810585E-02  0.22766312448E-01  0.52792133205E-02  0.23950402820E-01  0.51100000000E-03 0. -1.
</event>
<event>
 8    1  0.1126414E+005  0.1043930E+01  0.7957747E-01            NaN
         13   -1    0    0    0    0  0.00000000000E+00  0.00000000000E+00  0.74505805969E-08  0.10566000000E+00  0.10566000000E+00 0. -1.
     999900   -1    0    0    0    0 -0.00000000000E+00 -0.00000000000E+00 -0.74505805969E-08  0.93827000000E+00  0.93827000000E+00 0. -1.
     999902    2    1    2    0    0  0.24721193823E-02  0.20566765358E-01 -0.11095218941E-01  0.10204309129E+01  0.10201603016E+01 0.  0.
     999903    2    3    3    0    0 -0.46860075451E-01 -0.29742266877E-01 -0.11724622963E+00  0.13125562014E+00  0.20022246262E-01 0.  0.
         14    1    1    2    0    0 -0.24721193823E-02 -0.20566765358E-01  0.11095218941E-01  0.23499087107E-01  0.00000000000E+00 0. -1.
     999901    1    3    3    0    0  0.49332194833E-01  0.50309032235E-01  0.10615101069E+00  0.88917529275E+00  0.88000000000E+00 0.  1.
        -11    1    4    4    0    0 -0.39422221005E-01 -0.29040958675E-01 -0.84487082887E-01  0.97651508362E-01  0.51100000000E-03 0. -1.
         11    1    4    4    0    0 -0.74378544459E-02 -0.70130820229E-03 -0.32759146745E-01  0.33604111778E-01  0.51100000000E-03 0.  1.
</event>
<event>
 8    1  0.1126414E+005  0.1043930E+01  0.7957747E-01            NaN
         13   -1    0    0    0    0  0.00000000000E+00  0.00000000000E+00  0.74505805969E-08  0.10566000000E+00  0.10566000000E+00 0. -1.
     999900   -1    0    0    0    0 -0.00000000000E+00 -0.00000000000E+00 -0.74505805969E-08  0.93827000000E+00  0.93827000000E+00 0. -1.
     999902    2    1    2    0    0 -0.40703975154E-02  0.13396961357E-01  0.19691970514E-01  0.10197676240E+01  0.10194813322E+01 0.  0.
     999903    2    3    3    0    0 -0.11184528038E+00  0.46532104830E-02 -0.61693313534E-01  0.12942193667E+00  0.20321260892E-01 0.  0.
         14    1    1    2    0    0  0.40703975154E-02 -0.13396961357E-01 -0.19691970514E-01  0.24162375965E-01  0.00000000000E+00 0.  1.
     999901    1    3    3    0    0  0.10777488287E+00  0.87437508743E-02  0.81385284048E-01  0.89034568737E+00  0.88000000000E+00 0.  1.
        -11    1    4    4    0    0 -0.24624167478E-01 -0.27169367813E-02 -0.22667753660E-01  0.33583024677E-01  0.51100000000E-03 0. -1.
         11    1    4    4    0    0 -0.87221112903E-01  0.73701472643E-02 -0.39025559874E-01  0.95838911989E-01  0.51100000000E-03 0.  1.
</event>
<event>
 8    1  0.1126414E+005  0.1043930E+01  0.7957747E-01            NaN
         13   -1    0    0    0    0  0.00000000000E+00  0.00000000000E+00  0.74505805969E-08  0.10566000000E+00  0.10566000000E+00 0. -1.
     999900   -1    0    0    0    0 -0.00000000000E+00 -0.00000000000E+00 -0.74505805969E-08  0.93827000000E+00  0.93827000000E+00 0. -1.
     999902    2    1    2    0    0 -0.11592105925E-02  0.18031093021E-01 -0.14917628679E-01  0.10204992567E+01  0.10202302354E+01 0.  0.
     999903    2    3    3    0    0 -0.86903001427E-01  0.33945917649E-02  0.93753912376E-01  0.12955833351E+00  0.20782463417E-01 0.  0.
         14    1    1    2    0    0  0.11592105925E-02 -0.18031093021E-01  0.14917628679E-01  0.23430743269E-01  0.00000000000E+00 0. -1.
     999901    1    3    3    0    0  0.85743790834E-01  0.14636501256E-01 -0.10867154106E+00  0.89094092322E+00  0.88000000000E+00 0.  1.
        -11    1    4    4    0    0 -0.63501366546E-01 -0.50277423396E-02  0.59063076390E-01  0.86870074593E-01  0.51100000000E-03 0.  1.
         11    1    4    4    0    0 -0.23401634881E-01  0.84223341044E-02  0.34690835986E-01  0.42688258916E-01  0.51100000000E-03 0. -1.
</event>
<event>
 8    1  0.1126414E+005  0.1043930E+01  0.7957747E-01            NaN
         13   -1    0    0    0    0  0.00000000000E+00  0.00000000000E+00  0.74505805969E-08  0.10566000000E+00  0.10566000000E+00 0.  1.
     999900   -1    0    0    0    0 -0.00000000000E+00 -0.00000000000E+00 -0.74505805969E-08  0.93827000000E+00  0.93827000000E+00 0. -1.
     999902    2    1    2    0    0  0.19063574638E-01  0.12721031919E-01 -0.54091253006E-02  0.10203821091E+01  0.10201103594E+01 0.  0.
     999903    2    3    3    0    0 -0.77734943612E-01 -0.14863934903E-01 -0.10112807828E+00  0.12948761391E+00  0.16628166484E-01 0.  0.
         14    1    1    2    0    0 -0.19063574638E-01 -0.12721031919E-01  0.54091253006E-02  0.23547890937E-01  0.00000000000E+00 0. -1.
     999901    1    3    3    0    0  0.96798518250E-01  0.27584966822E-01  0.95718952981E-01  0.89089449515E+00  0.88000000000E+00 0.  1.
        -11    1    4    4    0    0 -0.63261605494E-01 -0.15595461968E-01 -0.73054079529E-01  0.97889778938E-01  0.51100000000E-03 0.  1.
         11    1    4    4    0    0 -0.14473338118E-01  0.73152706416E-03 -0.28073998752E-01  0.31597834974E-01  0.51100000000E-03 0. -1.
</event>
<event>
 8    1  0.1126414E+005  0.1043930E+01  0.7957747E-01            NaN
         13   -1    0    0    0    0  0.00000000000E+00  0.00000000000E+00  0.74505805969E-08  0.10566000000E+00  0.10566000000E+00 0.  1.
     999900   -1    0    0    0    0 -0.00000000000E+00 -0.00000000000E+00 -0.74505805969E-08  0.93827000000E+00  0.93827000000E+00 0.  1.
     999902    2    1    2    0    0  0.11346820892E-01  0.19908091402E-01 -0.75695655841E-02  0.10197974334E+01  0.10195118559E+01 0.  0.
     999903    2    3    3    0    0 -0.65183543006E-01 -0.10702521802E+00  0.87568059469E-02  0.12725303000E+00  0.20331267123E-01 0.  0.
         14    1    1    2    0    0 -0.11346820892E-01 -0.19908091402E-01  0.75695655841E-02  0.24132566601E-01  0.00000000000E+00 0.  1.
     999901    1    3    3    0    0  0.76530363898E-01  0.12693330942E+00 -0.16326371531E-01  0.89254440340E+00  0.88000000000E+00 0.  1.
        -11    1    4    4    0    0 -0.16430069383E-01 -0.17114021072E-01 -0.43876698480E-02  0.24131922113E-01  0.51100000000E-03 0. -1.
         11    1    4    4    0    0 -0.48753473623E-01 -0.89911196944E-01  0.13144475795E-01  0.10312110788E+00  0.51100000000E-03 0.  1.
</event>
<event>
 8    1  0.1126414E+005  0.1043930E+01  0.7957747E-01            NaN
         13   -1    0    0    0    0  0.00000000000E+00  0.00000000000E+00  0.74505805969E-08  0.10566000000E+00  0.10566000000E+00 0. -1.
     999900   -1    0    0    0    0 -0.00000000000E+00 -0.00000000000E+00 -0.74505805969E-08  0.93827000000E+00  0.93827000000E+00 0.  1.
     999902    2    1    2    0    0  0.71097656229E-02  0.22803368833E-01 -0.78913141850E-03  0.10200309388E+01  0.10197509260E+01 0.  0.
     999903    2    3    3    0    0  0.24003331252E-01  0.12225753462E+00 -0.43062375788E-01  0.13325951908E+00  0.19510677472E-01 0.  0.
         14    1    1    2    0    0 -0.71097656229E-02 -0.22803368833E-01  0.78913141850E-03  0.23899061190E-01  0.00000000000E+00 0. -1.
     999901    1    3    3    0    0 -0.16893565629E-01 -0.99454165788E-01  0.42273244369E-01  0.88677141973E+00  0.88000000000E+00 0.  1.
        -11    1    4    4    0    0 -0.28162802521E-02  0.20066634050E-01 -0.43031073029E-02  0.20721464475E-01  0.51100000000E-03 0. -1.
         11    1    4    4    0    0  0.26819611504E-01  0.10219090057E+00 -0.38759268485E-01  0.11253805461E+00  0.51100000000E-03 0.  1.
</event>
<event>
 8    1  0.1126414E+005  0.1043930E+01  0.7957747E-01            NaN
         13   -1    0    0    0    0  0.00000000000E+00  0.00000000000E+00  0.74505805969E-08  0.10566000000E+00  0.10566000000E+00 0.  1.
     999900   -1    0    0    0    0 -0.00000000000E+00 -0.00000000000E+00 -0.74505805969E-08  0.93827000000E+00  0.93827000000E+00 0. -1.
     999902    2    1    2    0    0 -0.80696725196E-02  0.14728285258E-01 -0.16846048622E-01  0.10201427901E+01  0.10198654229E+01 0.  0.
     999903    2    3    3    0    0 -0.11738477650E+00  0.20295393699E-01 -0.54629911229E-01  0.13255707314E+00  0.19896272997E-01 0.  0.
         14    1    1    2    0    0  0.80696725196E-02 -0.14728285258E-01  0.16846048622E-01  0.23787209912E-01  0.00000000000E+00 0.  1.
     999901    1    3    3    0    0  0.10931510398E+00 -0.55671084405E-02  0.37783862607E-01  0.88758571695E+00  0.88000000000E+00 0. -1.
        -11    1    4    4    0    0 -0.60632708464E-01  0.19200218662E-01 -0.23412501227E-01  0.67774479467E-01  0.51100000000E-03 0. -1.
         11    1    4    4    0    0 -0.56752068037E-01  0.10951750371E-02 -0.31217410002E-01  0.64782593674E-01  0.51100000000E-03 0.  1.
</event>
<event>
 8    1  0.1126414E+005  0.1043930E+01  0.7957747E-01            NaN
         13   -1    0    0    0    0  0.00000000000E+00  0.00000000000E+00  0.74505805969E-08  0.10566000000E+00  0.10566000000E+00 0.  1.
     999900   -1    0    0    0    0 -0.00000000000E+00 -0.00000000000E+00 -0.74505805969E-08  0.93827000000E+00  0.93827000000E+00 0. -1.
     999902    2    1    2    0    0 -0.13100693460E-01 -0.17029860293E-01 -0.91754714851E-02  0.10205669183E+01  0.10202994664E+01 0.  0.
     999903    2    3    3    0    0 -0.76405830598E-01 -0.45857838744E-01  0.94943916554E-01  0.13170278935E+00  0.19760696023E-01 0.  0.
         14    1    1    2    0    0  0.13100693460E-01  0.17029860293E-01  0.91754714851E-02  0.23363081725E-01  0.00000000000E+00 0.  1.
     999901    1    3    3    0    0  0.63305137139E-01  0.28827978451E-01 -0.10411938804E+00  0.88886412893E+00  0.88000000000E+00 0. -1.
        -11    1    4    4    0    0 -0.28796738652E-01 -0.72819246892E-02  0.36028611669E-01  0.46696901010E-01  0.51100000000E-03 0.  1.
         11    1    4    4    0    0 -0.47609091946E-01 -0.38575914055E-01  0.58915304885E-01  0.85005888336E-01  0.51100000000E-03 0. -1.
</event>
<event>
 8    1  0.1126414E+005  0.1043930E+01  0.7957747E-01            NaN
         13   -1    0    0    0    0  0.00000000000E+00  0.00000000000E+00  0.74505805969E-08  0.10566000000E+00  0.10566000000E+00 0.  1.
     999900   -1    0    0    0    0 -0.00000000000E+00 -0.00000000000E+00 -0.74505805969E-08  0.93827000000E+00  0.93827000000E+00 0.  1.
     999902    2    1    2    0    0 -0.15051200938E-01 -0.19345544215E-01 -0.15137198002E-01  0.10151216072E+01  0.10147127446E+01 0.  0.
     999903    2    3    3    0    0 -0.23915358923E-01  0.91833995274E-01 -0.80093618010E-01  0.12570674351E+00  0.19538951832E-01 0.  0.
         14    1    1    2    0    0  0.15051200938E-01  0.19345544215E-01  0.15137198002E-01  0.28808392770E-01  0.00000000000E+00 0.  1.
     999901    1    3    3    0    0  0.88641579852E-02 -0.11117953949E+00  0.64956420008E-01  0.88941486372E+00  0.88000000000E+00 0. -1.
        -11    1    4    4    0    0 -0.14709579661E-01  0.57965826660E-01 -0.62277981116E-01  0.86343597603E-01  0.51100000000E-03 0.  1.
         11    1    4    4    0    0 -0.92057792618E-02  0.33868168615E-01 -0.17815636893E-01  0.39363145911E-01  0.51100000000E-03 0. -1.
</event>
<event>
 8    1  0.1126414E+005  0.1043930E+01  0.7957747E-01            NaN
         13   -1    0    0    0    0  0.00000000000E+00  0.00000000000E+00  0.74505805969E-08  0.10566000000E+00  0.10566000000E+00 0.  1.
     999900   -1    0    0    0    0 -0.00000000000E+00 -0.00000000000E+00 -0.74505805969E-08  0.93827000000E+00  0.93827000000E+00 0. -1.
     999902    2    1    2    0    0  0.56817177279E-02  0.63182921892E-03 -0.23043166865E-01  0.10201882927E+01  0.10199119982E+01 0.  0.
     999903    2    3    3    0    0 -0.12822127406E+00 -0.16891453675E-02  0.13044070841E-03  0.12975445790E+00  0.19815498904E-01 0.  0.
         14    1    1    2    0    0 -0.56817177279E-02 -0.63182921892E-03  0.23043166865E-01  0.23741707261E-01  0.00000000000E+00 0.  1.
     999901    1    3    3    0    0  0.13390299179E+00  0.23209745865E-02 -0.23173607573E-01  0.89043383484E+00  0.88000000000E+00 0. -1.
        -11    1    4    4    0    0 -0.69008760112E-01 -0.96831678655E-02  0.45807586802E-02  0.69837075992E-01  0.51100000000E-03 0. -1.
         11    1    4    4    0    0 -0.59212513950E-01  0.79940224980E-02 -0.44503179718E-02  0.59917381911E-01  0.51100000000E-03 0.  1.
</event>
<event>
 8    1  0.1126414E+005  0.1043930E+01  0.7957747E-01            NaN
         13   -1    0    0    0    0  0.00000000000E+00  0.00000000000E+00  0.74505805969E-08  0.10566000000E+00  0.10566000000E+00 0. -1.
     999900   -1    0    0    0    0 -0.00000000000E+00 -0.00000000000E+00 -0.74505805969E-08  0.93827000000E+00  0.93827000000E+00 0.  1.
     999902    2    1    2    0    0 -0.14578423143E-01 -0.13032603935E-02  0.19498486840E-01  0.10195492720E+01  0.10192577192E+01 0.  0.
     999903    2    3    3    0    0 -0.99321881856E-01  0.83053795848E-01 -0.12694033722E-01  0.13087952169E+00  0.14336718067E-01 0.  0.
         14    1    1    2    0    0  0.14578423143E-01  0.13032603935E-02 -0.19498486840E-01  0.24380728005E-01  0.00000000000E+00 0.  1.
     999901    1    3    3    0    0  0.84743458713E-01 -0.84357056241E-01  0.32192520562E-01  0.88866975031E+00  0.88000000000E+00 0.  1.
        -11    1    4    4    0    0 -0.33167804378E-01  0.33920006762E-01  0.36371054650E-03  0.47445373982E-01  0.51100000000E-03 0.  1.
         11    1    4    4    0    0 -0.66154077478E-01  0.49133789086E-01 -0.13057744269E-01  0.83434147705E-01  0.51100000000E-03 0. -1.
</event>
<event>
 8    1  0.1126414E+005  0.1043930E+01  0.7957747E-01            NaN
         13   -1    0    0    0    0  0.00000000000E+00  0.00000000000E+00  0.74505805969E-08  0.10566000000E+00  0.10566000000E+00 0. -1.
     999900   -1    0    0    0    0 -0.00000000000E+00 -0.00000000000E+00 -0.74505805969E-08  0.93827000000E+00  0.93827000000E+00 0.  1.
     999902    2    1    2    0    0  0.68153278959E-02 -0.49196272021E-02  0.22155948868E-01  0.10202332176E+01  0.10199579799E+01 0.  0.
     999903    2    3    3    0    0 -0.99457383154E-01  0.80150236496E-01  0.10656161978E-01  0.12969236175E+00  0.19766725448E-01 0.  0.
         14    1    1    2    0    0 -0.68153278959E-02  0.49196272021E-02 -0.22155948868E-01  0.23696782405E-01  0.00000000000E+00 0.  1.
     999901    1    3    3    0    0  0.10627271105E+00 -0.85069863699E-01  0.11499786890E-01  0.89054085584E+00  0.88000000000E+00 0.  1.
        -11    1    4    4    0    0 -0.37317842910E-01  0.35682343529E-01  0.12990725879E-01  0.53243507764E-01  0.51100000000E-03 0. -1.
         11    1    4    4    0    0 -0.62139540244E-01  0.44467892968E-01 -0.23345639015E-02  0.76448853990E-01  0.51100000000E-03 0.  1.
</event>
<event>
 8    1  0.1126414E+005  0.1043930E+01  0.7957747E-01            NaN
         13   -1    0    0    0    0  0.00000000000E+00  0.00000000000E+00  0.74505805969E-08  0.10566000000E+00  0.10566000000E+00 0. -1.
     999900   -1    0    0    0    0 -0.00000000000E+00 -0.00000000000E+00 -0.74505805969E-08  0.93827000000E+00  0.93827000000E+00 0. -1.
     999902    2    1    2    0    0 -0.62918383386E-02  0.22514868234E-01 -0.47706928994E-02  0.10200707034E+01  0.10197916326E+01 0.  0.
     999903    2    3    3    0    0  0.29284189559E-01  0.12796922453E+00  0.76896290913E-02  0.13297345137E+00  0.19726180274E-01 0.  0.
         14    1    1    2    0    0  0.62918383386E-02 -0.22514868234E-01  0.47706928994E-02  0.23859296553E-01  0.00000000000E+00 0. -1.
     999901    1    3    3    0    0 -0.35576027898E-01 -0.10545435630E+00 -0.12460321991E-01  0.88709725208E+00  0.88000000000E+00 0. -1.
        -11    1    4    4    0    0  0.26168115243E-01  0.76281569501E-01  0.17484214400E-03  0.80647007332E-01  0.51100000000E-03 0.  1.
         11    1    4    4    0    0  0.31160743163E-02  0.51687655029E-01  0.75147869473E-02  0.52326444035E-01  0.51100000000E-03 0. -1.
</event>
<event>
 8    1  0.1126414E+005  0.1043930E+01  0.7957747E-01            NaN
         13   -1    0    0    0    0  0.00000000000E+00  0.00000000000E+00  0.74505805969E-08  0.10566000000E+00  0.10566000000E+00 0.  1.
     999900   -1    0    0    0    0 -0.00000000000E+00 -0.00000000000E+00 -0.74505805969E-08  0.93827000000E+00  0.93827000000E+00 0.  1.
     999902    2    1    2    0    0 -0.12724789368E-01 -0.11824598178E-01  0.15726669124E-01  0.10204977677E+01  0.10202287118E+01 0.  0.
     999903    2    3    3    0    0 -0.98859076908E-01  0.75105751958E-01 -0.34819868010E-01  0.13059274266E+00  0.20689373184E-01 0.  0.
         14    1    1    2    0    0  0.12724789368E-01  0.11824598178E-01 -0.15726669124E-01  0.23432232251E-01  0.00000000000E+00 0. -1.
     999901    1    3    3    0    0  0.86134287540E-01 -0.86930350136E-01  0.50546537134E-01  0.88990502509E+00  0.88000000000E+00 0.  1.
        -11    1    4    4    0    0 -0.10205835017E-01  0.50360158874E-02 -0.93937855556E-02  0.14765664647E-01  0.51100000000E-03 0. -1.
         11    1    4    4    0    0 -0.88653241891E-01  0.70069736070E-01 -0.25426082454E-01  0.11582707801E+00  0.51100000000E-03 0.  1.
</event>
<event>
 7    1  0.1126414E+005  0.1043930E+01  0.7957747E-01            NaN
         13   -1    0    0    0    0  0.00000000000E+00  0.00000000000E+00  0.74505805969E-08  0.10566000000E+00  0.10566000000E+00 0. -1.
     999900   -1    0    0    0    0 -0.00000000000E+00 -0.00000000000E+00 -0.74505805969E-08  0.93827000000E+00  0.93827000000E+00 0. -1.
     999903    2    1    2    0    0 -0.43438820458E-01  0.76127754811E-01 -0.52633250569E-01  0.10405582438E+00  0.19364641641E-01 0.  0.
         14    1    1    2    0    0  0.53798961182E-01 -0.15953261423E-01  0.73884361349E-02  0.56598796478E-01  0.00000000000E+00 0. -1.
     999901    1    1    2    0    0 -0.10360140724E-01 -0.60174493388E-01  0.45244814434E-01  0.88327537914E+00  0.88000000000E+00 0.  1.
        -11    1    3    3    0    0 -0.34894833567E-01  0.54912956308E-01 -0.47640552941E-01  0.80640967167E-01  0.51100000000E-03 0. -1.
         11    1    3    3    0    0 -0.85439868914E-02  0.21214798503E-01 -0.49926976275E-02  0.23414857209E-01  0.51100000000E-03 0.  1.
</event>
<event>
 8    1  0.1126414E+005  0.1043930E+01  0.7957747E-01            NaN
         13   -1    0    0    0    0  0.00000000000E+00  0.00000000000E+00  0.74505805969E-08  0.10566000000E+00  0.10566000000E+00 0.  1.
     999900   -1    0    0    0    0 -0.00000000000E+00 -0.00000000000E+00 -0.74505805969E-08  0.93827000000E+00  0.93827000000E+00 0. -1.
     999902    2    1    2    0    0 -0.58262382120E-02  0.64522659398E-02 -0.21119104174E-01  0.10210915817E+01  0.10208361401E+01 0.  0.
     999903    2    3    3    0    0  0.20937592434E-01 -0.50281863562E-01  0.11482247048E+00  0.12844653706E+00  0.18645765618E-01 0.  0.
         14    1    1    2    0    0  0.58262382120E-02 -0.64522659398E-02  0.21119104174E-01  0.22838418259E-01  0.00000000000E+00 0.  1.
     999901    1    3    3    0    0 -0.26763830646E-01  0.56734129501E-01 -0.13594157465E+00  0.89264504468E+00  0.88000000000E+00 0. -1.
        -11    1    4    4    0    0  0.12436525703E-01 -0.21111600102E-01  0.71065261201E-01  0.75172463716E-01  0.51100000000E-03 0.  1.
         11    1    4    4    0    0  0.85010667311E-02 -0.29170263459E-01  0.43757209274E-01  0.53274073341E-01  0.51100000000E-03 0. -1.
</event>
<event>
 8    1  0.1126414E+005  0.1043930E+01  0.7957747E-01            NaN
         13   -1    0    0    0    0  0.00000000000E+00  0.00000000000E+00  0.74505805969E-08  0.10566000000E+00  0.10566000000E+00 0.  1.
     999900   -1    0    0    0    0 -0.00000000000E+00 -0.00000000000E+00 -0.74505805969E-08  0.93827000000E+00  0.93827000000E+00 0. -1.
     999902    2    1    2    0    0  0.15446453726E-01  0.96583100195E-02 -0.14920975661E-01  0.10203819343E+01  0.10201101805E+01 0.  0.
     999903    2    3    3    0    0 -0.39873253164E-01  0.28251950569E-01 -0.12111753394E+00  0.13207809974E+00  0.19675324027E-01 0.  0.
         14    1    1    2    0    0 -0.15446453726E-01 -0.96583100195E-02  0.14920975661E-01  0.23548065734E-01  0.00000000000E+00 0.  1.
     999901    1    3    3    0    0  0.55319706890E-01 -0.18593640550E-01  0.10619655828E+00  0.88830383452E+00  0.88000000000E+00 0.  1.
        -11    1    4    4    0    0 -0.72277146611E-02  0.12863875621E-01 -0.21144897680E-01  0.25789280217E-01  0.51100000000E-03 0. -1.
         11    1    4    4    0    0 -0.32645538503E-01  0.15388074948E-01 -0.99972636258E-01  0.10628881953E+00  0.51100000000E-03 0.  1.
</event>
<event>
 8    1  0.1126414E+005  0.1043930E+01  0.7957747E-01            NaN
         13   -1    0    0    0    0  0.00000000000E+00  0.00000000000E+00  0.74505805969E-08  0.10566000000E+00  0.10566000000E+00 0.  1.
     999900   -1    0    0    0    0 -0.00000000000E+00 -0.00000000000E+00 -0.74505805969E-08  0.93827000000E+00  0.93827000000E+00 0. -1.
     999902    2    1    2    0    0  0.19769988124E-01  0.49246332774E-02 -0.80939362960E-02  0.10220070383E+01  0.10217718778E+01 0.  0.
     999903    2    3    3    0    0  0.32659002215E-01  0.89233709619E-01  0.90052078820E-01  0.13245277506E+00  0.20126980946E-01 0.  0.
         14    1    1    2    0    0 -0.19769988124E-01 -0.49246332774E-02  0.80939362960E-02  0.21922961663E-01  0.00000000000E+00 0.  1.
     999901    1    3    3    0    0 -0.12889014092E-01 -0.84309076342E-01 -0.98146015116E-01  0.88955426328E+00  0.88000000000E+00 0. -1.
        -11    1    4    4    0    0  0.17983271976E-01  0.50559865569E-01  0.64181948448E-01  0.83661709909E-01  0.51100000000E-03 0.  1.
         11    1    4    4    0    0  0.14675730240E-01  0.38673844050E-01  0.25870130373E-01  0.48791065147E-01  0.51100000000E-03 0. -1.
</event>
<event>
 8    1  0.1126414E+005  0.1043930E+01  0.7957747E-01            NaN
         13   -1    0    0    0    0  0.00000000000E+00  0.00000000000E+00  0.74505805969E-08  0.10566000000E+00  0.10566000000E+00 0.  1.
     999900   -1    0    0    0    0 -0.00000000000E+00 -0.00000000000E+00 -0.74505805969E-08  0.93827000000E+00  0.93827000000E+00 0.  1.
     999902    2    1    2    0    0  0.16665399755E-01 -0.58333264473E-02 -0.16527656369E-01  0.10197447427E+01  0.10194579018E+01 0.  0.
     999903    2    3    3    0    0 -0.44949230191E-01  0.85179144858E-01 -0.85246212492E-01  0.13024945179E+00  0.20544657093E-01 0.  0.
         14    1    1    2    0    0 -0.16665399755E-01  0.58333264473E-02  0.16527656369E-01  0.24185257317E-01  0.00000000000E+00 0.  1.
     999901    1    3    3    0    0  0.61614629946E-01 -0.91012471305E-01  0.68718556122E-01  0.88949529089E+00  0.88000000000E+00 0. -1.
        -11    1    4    4    0    0 -0.11772900967E-01  0.41161018440E-01 -0.44088681499E-01  0.61456517909E-01  0.51100000000E-03 0.  1.
         11    1    4    4    0    0 -0.33176329224E-01  0.44018126418E-01 -0.41157530993E-01  0.68792933885E-01  0.51100000000E-03 0. -1.
</event>
<event>
 8    1  0.1126414E+005  0.1043930E+01  0.7957747E-01            NaN
         13   -1    0    0    0    0  0.00000000000E+00  0.00000000000E+00  0.74505805969E-08  0.10566000000E+00  0.10566000000E+00 0.  1.
     999900   -1    0    0    0    0 -0.00000000000E+00 -0.00000000000E+00 -0.74505805969E-08  0.93827000000E+00  0.93827000000E+00 0. -1.
     999902    2    1    2    0    0  0.31382998520E-02 -0.19982906467E-01  0.11181434293E-01  0.10208174504E+01  0.10205557687E+01 0.  0.
     999903    2    3    3    0    0  0.12124197155E+00  0.36899966921E-01  0.25949427869E-01  0.13098475140E+00  0.20552592701E-01 0.  0.
         14    1    1    2    0    0 -0.31382998520E-02  0.19982906467E-01 -0.11181434293E-01  0.23112549614E-01  0.00000000000E+00 0. -1.
     999901    1    3    3    0    0 -0.11810367170E+00 -0.56882873388E-01 -0.14767993576E-01  0.88983269899E+00  0.88000000000E+00 0. -1.
        -11    1    4    4    0    0  0.57901588835E-01  0.83474399747E-02  0.66844452805E-02  0.58883076291E-01  0.51100000000E-03 0. -1.
         11    1    4    4    0    0  0.63340382719E-01  0.28552526947E-01  0.19264982588E-01  0.72101675107E-01  0.51100000000E-03 0.  1.
</event>
<event>
 8    1  0.1126414E+005  0.1043930E+01  0.7957747E-01            NaN
         13   -1    0    0    0    0  0.00000000000E+00  0.00000000000E+00  0.74505805969E-08  0.10566000000E+00  0.10566000000E+00 0. -1.
     999900   -1    0    0    0    0 -0.00000000000E+00 -0.00000000000E+00 -0.74505805969E-08  0.93827000000E+00  0.93827000000E+00 0.  1.
     999902    2    1    2    0    0 -0.82825365546E-02 -0.19950942058E-01 -0.13820941500E-01  0.10182851384E+01  0.10179621625E+01 0.  0.
     999903    2    3    3    0    0  0.73921876470E-01  0.27923632112E-01  0.96536023057E-01  0.12630520592E+00  0.19739003138E-01 0.  0.
         14    1    1    2    0    0  0.82825365546E-02  0.19950942058E-01  0.13820941500E-01  0.25644861566E-01  0.00000000000E+00 0. -1.
     999901    1    3    3    0    0 -0.82204413025E-01 -0.47874574170E-01 -0.11035696456E+00  0.89197993251E+00  0.88000000000E+00 0.  1.
        -11    1    4    4    0    0  0.10357252498E-01  0.43430874728E-02  0.26705599092E-01  0.28975597180E-01  0.51100000000E-03 0. -1.
         11    1    4    4    0    0  0.63564623973E-01  0.23580544639E-01  0.69830423965E-01  0.97329608745E-01  0.51100000000E-03 0.  1.
</event>
<event>
 8    1  0.1126414E+005  0.1043930E+01  0.7957747E-01            NaN
         13   -1    0    0    0    0  0.00000000000E+00  0.00000000000E+00  0.74505805969E-08  0.10566000000E+00  0.10566000000E+00 0.  1.
     999900   -1    0    0    0    0 -0.00000000000E+00 -0.00000000000E+00 -0.74505805969E-08  0.93827000000E+00  0.93827000000E+00 0.  1.
     999902    2    1    2    0    0 -0.83986077617E-03  0.22341335721E-01 -0.87248368874E-02  0.10199307620E+01  0.10196483687E+01 0.  0.
     999903    2    3    3    0    0  0.94168804313E-01  0.65368718531E-01  0.60228802836E-01  0.13109297780E+00  0.20421240644E-01 0.  0.
         14    1    1    2    0    0  0.83986077617E-03 -0.22341335721E-01  0.87248368874E-02  0.23999238043E-01  0.00000000000E+00 0. -1.
     999901    1    3    3    0    0 -0.95008665089E-01 -0.43027382810E-01 -0.68953639724E-01  0.88883778416E+00  0.88000000000E+00 0.  1.
        -11    1    4    4    0    0  0.15751747077E-01  0.29146146465E-02  0.10742913348E-01  0.19294657881E-01  0.51100000000E-03 0.  1.
         11    1    4    4    0    0  0.78417057235E-01  0.62454103884E-01  0.49485889488E-01  0.11179831992E+00  0.51100000000E-03 0. -1.
</event>
<event>
 8    1  0.1126414E+005  0.1043930E+01  0.7957747E-01            NaN
         13   -1    0    0    0    0  0.00000000000E+00  0.00000000000E+00  0.74505805969E-08  0.10566000000E+00  0.10566000000E+00 0. -1.
     999900   -1    0    0    0    0 -0.00000000000E+00 -0.00000000000E+00 -0.74505805969E-08  0.93827000000E+00  0.93827000000E+00 0. -1.
     999902    2    1    2    0    0 -0.93479455504E-02  0.21385444418E-01 -0.21377203893E-03  0.10205897554E+01  0.10203228322E+01 0.  0.
     999903    2    3    3    0    0  0.75030491528E-01 -0.56589743737E-01 -0.86065812552E-01  0.12897861625E+00  0.19904411700E-01 0.  0.
         14    1    1    2    0    0  0.93479455504E-02 -0.21385444418E-01  0.21377203893E-03  0.23340244588E-01  0.00000000000E+00 0. -1.
     999901    1    3    3    0    0 -0.84378437079E-01  0.77975188155E-01  0.85852040513E-01  0.89161113916E+00  0.88000000000E+00 0.  1.
        -11    1    4    4    0    0  0.72545925159E-01 -0.49277935868E-01 -0.82684033150E-01  0.12053272037E+00  0.51100000000E-03 0. -1.
         11    1    4    4    0    0  0.24845663692E-02 -0.73118078694E-02 -0.33817794015E-02  0.84458958839E-02  0.51100000000E-03 0.  1.
</event>
<event>
 8    1  0.1126414E+005  0.1043930E+01  0.7957747E-01            NaN
         13   -1    0    0    0    0  0.00000000000E+00  0.00000000000E+00  0.74505805969E-08  0.10566000000E+00  0.10566000000E+00 0.  1.
     999900   -1    0    0    0    0 -0.00000000000E+00 -0.00000000000E+00 -0.74505805969E-08  0.93827000000E+00  0.93827000000E+00 0.  1.
     999902    2    1    2    0    0 -0.44189498464E-02  0.27611926909E-02 -0.23438706751E-01  0.10199190800E+01  0.10196364085E+01 0.  0.
     999903    2    3    3    0    0 -0.83386254744E-01  0.32609226304E-01  0.90373968011E-01  0.12858296764E+00  0.18694821515E-01 0.  0.
         14    1    1    2    0    0  0.44189498464E-02 -0.27611926909E-02  0.23438706751E-01  0.24010919953E-01  0.00000000000E+00 0.  1.
     999901    1    3    3    0    0  0.78967304897E-01 -0.29848033613E-01 -0.11381267476E+00  0.89133611241E+00  0.88000000000E+00 0.  1.
        -11    1    4    4    0    0 -0.43910313115E-01  0.27099685388E-01  0.50500820564E-01  0.72201818153E-01  0.51100000000E-03 0.  1.
         11    1    4    4    0    0 -0.39475941629E-01  0.55095409158E-02  0.39873147447E-01  0.56381149482E-01  0.51100000000E-03 0. -1.
</event>
<event>
 8    1  0.1126414E+005  0.1043930E+01  0.7957747E-01            NaN
         13   -1    0    0    0    0  0.00000000000E+00  0.00000000000E+00  0.74505805969E-08  0.10566000000E+00  0.10566000000E+00 0.  1.
     999900   -1    0    0    0    0 -0.00000000000E+00 -0.00000000000E+00 -0.74505805969E-08  0.93827000000E+00  0.93827000000E+00 0.  1.
     999902    2    1    2    0    0  0.34292506009E-02  0.20942475492E-01  0.10952154315E-01  0.10200491138E+01  0.10197695318E+01 0.  0.
     999903    2    3    3    0    0  0.92459402230E-01 -0.80862331640E-01  0.35175197733E-01  0.12938793108E+00  0.20407950274E-01 0.  0.
         14    1    1    2    0    0 -0.34292506009E-02 -0.20942475492E-01 -0.10952154315E-01  0.23880886155E-01  0.00000000000E+00 0. -1.
     999901    1    3    3    0    0 -0.89030151629E-01  0.10180480713E+00 -0.24223043417E-01  0.89066118277E+00  0.88000000000E+00 0.  1.
        -11    1    4    4    0    0  0.41348520843E-01 -0.28528010546E-01  0.22903252077E-01  0.55212024400E-01  0.51100000000E-03 0.  1.
         11    1    4    4    0    0  0.51110881386E-01 -0.52334321094E-01  0.12271945656E-01  0.74175906679E-01  0.51100000000E-03 0. -1.
</event>
<event>
 8    1  0.1126414E+005  0.1043930E+01  0.7957747E-01            NaN
         13   -1    0    0    0    0  0.00000000000E+00  0.00000000000E+00  0.74505805969E-08  0.10566000000E+00  0.10566000000E+00 0. -1.
     999900   -1    0    0    0    0 -0.00000000000E+00 -0.00000000000E+00 -0.74505805969E-08  0.93827000000E+00  0.93827000000E+00 0.  1.
     999902    2    1    2    0    0 -0.84116945431E-02 -0.21508442793E-01 -0.83102249609E-03  0.10208202550E+01  0.10205586375E+01 0.  0.
     999903    2    3    3    0    0  0.97642143128E-01 -0.51660349972E-01  0.67664356717E-01  0.13129893935E+00  0.21404822590E-01 0.  0.
         14    1    1    2    0    0  0.84116945431E-02  0.21508442793E-01  0.83102249609E-03  0.23109745020E-01  0.00000000000E+00 0. -1.
     999901    1    3    3    0    0 -0.10605383767E+00  0.30151907179E-01 -0.68495379213E-01  0.88952131563E+00  0.88000000000E+00 0.  1.
        -11    1    4    4    0    0  0.38024721442E-01 -0.11789181886E-01  0.16013787537E-01  0.42913479964E-01  0.51100000000E-03 0.  1.
         11    1    4    4    0    0  0.59617421686E-01 -0.39871168086E-01  0.51650569179E-01  0.88385459384E-01  0.51100000000E-03 0. -1.
</event>
<event>
 8    1  0.1126414E+005  0.1043930E+01  0.7957747E-01            NaN
         13   -1    0    0    0    0  0.00000000000E+00  0.00000000000E+00  0.74505805969E-08  0.10566000000E+00  0.10566000000E+00 0.  1.
     999900   -1    0    0    0    0 -0.00000000000E+00 -0.00000000000E+00 -0.74505805969E-08  0.93827000000E+00  0.93827000000E+00 0.  1.
     999902    2    1    2    0    0 -0.12491058702E-01  0.15633830698E-01 -0.13932938750E-01  0.10195461941E+01  0.10192545667E+01 0.  0.
     999903    2    3    3    0    0 -0.58096676251E-01  0.42466598867E-01 -0.10920010380E+00  0.13282430839E+00  0.23216339432E-01 0.  0.
         14    1    1    2    0    0  0.12491058702E-01 -0.15633830698E-01  0.13932938750E-01  0.24383805938E-01  0.00000000000E+00 0.  1.
     999901    1    3    3    0    0  0.45605617549E-01 -0.26832768169E-01  0.95267165055E-01  0.88672188568E+00  0.88000000000E+00 0. -1.
        -11    1    4    4    0    0 -0.11967669686E-01 -0.76934883116E-03 -0.12871940614E-01  0.17600141803E-01  0.51100000000E-03 0. -1.
         11    1    4    4    0    0 -0.46129006565E-01  0.43235947698E-01 -0.96328163191E-01  0.11522416658E+00  0.51100000000E-03 0.  1.
</event>
<event>
 8    1  0.1126414E+005  0.1043930E+01  0.7957747E-01            NaN
         13   -1    0    0    0    0  0.00000000000E+00  0.00000000000E+00  0.74505805969E-08  0.10566000000E+00  0.10566000000E+00 0.  1.
     999900   -1    0    0    0    0 -0.00000000000E+00 -0.00000000000E+00 -0.74505805969E-08  0.93827000000E+00  0.93827000000E+00 0.  1.
     999902    2    1    2    0    0 -0.14418046347E-01 -0.16725142999E-01  0.16617639574E-02  0.10217856570E+01  0.10215456705E+01 0.  0.
     999903    2    3    3    0    0 -0.28155894304E-01  0.11519007123E+00 -0.50272854249E-01  0.13033315864E+00  0.19946565396E-01 0.  0.
         14    1    1    2    0    0  0.14418046347E-01  0.16725142999E-01 -0.16617639574E-02  0.22144343031E-01  0.00000000000E+00 0.  1.
     999901    1    3    3    0    0  0.13737847957E-01 -0.13191521423E+00  0.51934618206E-01  0.89145249833E+00  0.88000000000E+00 0. -1.
        -11    1    4    4    0    0 -0.21858876178E-01  0.99693455727E-01 -0.49865514166E-01  0.11359324895E+00  0.51100000000E-03 0. -1.
         11    1    4    4    0    0 -0.62970181262E-02  0.15496615508E-01 -0.40734008252E-03  0.16739909690E-01  0.51100000000E-03 0.  1.
</event>
<event>
 8    1  0.1126414E+005  0.1043930E+01  0.7957747E-01            NaN
         13   -1    0    0    0    0  0.00000000000E+00  0.00000000000E+00  0.74505805969E-08  0.10566000000E+00  0.10566000000E+00 0.  1.
     999900   -1    0    0    0    0 -0.00000000000E+00 -0.00000000000E+00 -0.74505805969E-08  0.93827000000E+00  0.93827000000E+00 0.  1.
     999902    2    1    2    0    0 -0.23667299451E-01 -0.35959740166E-02  0.31978312300E-02  0.10197784324E+01  0.10194923997E+01 0.  0.
     999903    2    3    3    0    0  0.90330204035E-01 -0.34779005364E-01 -0.82337212462E-01  0.12776719036E+00  0.13263234962E-01 0.  0.
         14    1    1    2    0    0  0.23667299451E-01  0.35959740166E-02 -0.31978312300E-02  0.24151567589E-01  0.00000000000E+00 0. -1.
     999901    1    3    3    0    0 -0.11399750349E+00  0.31183031347E-01  0.85535043692E-01  0.89201124205E+00  0.88000000000E+00 0.  1.
        -11    1    4    4    0    0  0.85419117946E-01 -0.31670379326E-01 -0.72933605238E-01  0.11670051641E+00  0.51100000000E-03 0.  1.
         11    1    4    4    0    0  0.49110860882E-02 -0.31086260383E-02 -0.94036072245E-02  0.11066673947E-01  0.51100000000E-03 0. -1.
</event>
<event>
 8    1  0.1126414E+005  0.1043930E+01  0.7957747E-01            NaN
         13   -1    0    0    0    0  0.00000000000E+00  0.00000000000E+00  0.74505805969E-08  0.10566000000E+00  0.10566000000E+00 0. -1.
     999900   -1    0    0    0    0 -0.00000000000E+00 -0.00000000000E+00 -0.74505805969E-08  0.93827000000E+00  0.93827000000E+00 0. -1.
     999902    2    1    2    0    0  0.10359296821E-01  0.14894982882E-01  0.15369914934E-01  0.10201516521E+01  0.10198744939E+01 0.  0.
     999903    2    3    3    0    0  0.26458981918E-01  0.10397482320E+00 -0.72652177198E-01  0.13113966872E+00  0.20209707493E-01 0.  0.
         14    1    1    2    0    0 -0.10359296821E-01 -0.14894982882E-01 -0.15369914934E-01  0.23778347940E-01  0.00000000000E+00 0.  1.
     999901    1    3    3    0    0 -0.16099685097E-01 -0.89079840321E-01  0.88022092132E-01  0.88901198334E+00  0.88000000000E+00 0.  1.
        -11    1    4    4    0    0  0.10464467321E-01  0.48957028461E-01 -0.45830343101E-01  0.67874716808E-01  0.51100000000E-03 0.  1.
         11    1    4    4    0    0  0.15994514596E-01  0.55017794743E-01 -0.26821834098E-01  0.63264951916E-01  0.51100000000E-03 0. -1.
</event>
<event>
 8    1  0.1126414E+005  0.1043930E+01  0.7957747E-01            NaN
         13   -1    0    0    0    0  0.00000000000E+00  0.00000000000E+00  0.74505805969E-08  0.10566000000E+00  0.10566000000E+00 0.  1.
     999900   -1    0    0    0    0 -0.00000000000E+00 -0.00000000000E+00 -0.74505805969E-08  0.93827000000E+00  0.93827000000E+00 0. -1.
     999902    2    1    2    0    0  0.12506326825E-01  0.18877299873E-01 -0.51966012150E-02  0.10206971499E+01  0.10204327055E+01 0.  0.
     999903    2    3    3    0    0 -0.16935641450E-01 -0.83601070825E-01  0.94554072645E-01  0.12866640886E+00  0.18401552166E-01 0.  0.
         14    1    1    2    0    0 -0.12506326825E-01 -0.18877299873E-01  0.51966012150E-02  0.23232850133E-01  0.00000000000E+00 0.  1.
     999901    1    3    3    0    0  0.29441968275E-01  0.10247837070E+00 -0.99750673860E-01  0.89203074100E+00  0.88000000000E+00 0. -1.
        -11    1    4    4    0    0 -0.54516033558E-02 -0.27093394337E-01  0.18659379219E-01  0.33349745872E-01  0.51100000000E-03 0.  1.
         11    1    4    4    0    0 -0.11484038094E-01 -0.56507676488E-01  0.75894693426E-01  0.95316662993E-01  0.51100000000E-03 0. -1.
</event>
<event>
 8    1  0.1126414E+005  0.1043930E+01  0.7957747E-01            NaN
         13   -1    0    0    0    0  0.00000000000E+00  0.00000000000E+00  0.74505805969E-08  0.10566000000E+00  0.10566000000E+00 0. -1.
     999900   -1    0    0    0    0 -0.00000000000E+00 -0.00000000000E+00 -0.74505805969E-08  0.93827000000E+00  0.93827000000E+00 0. -1.
     999902    2    1    2    0    0 -0.15649182230E-01  0.74722706740E-02  0.13613906806E-01  0.10218830004E+01  0.10216451421E+01 0.  0.
     999903    2    3    3    0    0 -0.77071595934E-01  0.10441131663E+00 -0.25046503757E-01  0.13358996378E+00  0.19421563589E-01 0.  0.
         14    1    1    2    0    0  0.15649182230E-01 -0.74722706740E-02 -0.13613906806E-01  0.22046999615E-01  0.00000000000E+00 0. -1.
     999901    1    3    3    0    0  0.61422413703E-01 -0.96939045955E-01  0.38660410563E-01  0.88829303660E+00  0.88000000000E+00 0.  1.
        -11    1    4    4    0    0 -0.38435244776E-01  0.61206951422E-01 -0.57690612420E-02  0.72505876534E-01  0.51100000000E-03 0.  1.
         11    1    4    4    0    0 -0.38636351157E-01  0.43204365208E-01 -0.19277442515E-01  0.61084087246E-01  0.51100000000E-03 0. -1.
</event>
<event>
 8    1  0.1126414E+005  0.1043930E+01  0.7957747E-01            NaN
         13   -1    0    0    0    0  0.00000000000E+00  0.00000000000E+00  0.74505805969E-08  0.10566000000E+00  0.10566000000E+00 0.  1.
     999900   -1    0    0    0    0 -0.00000000000E+00 -0.00000000000E+00 -0.74505805969E-08  0.93827000000E+00  0.93827000000E+00 0.  1.
     999902    2    1    2    0    0  0.73655497868E-02  0.20669513044E-01 -0.72209650415E-02  0.10208297310E+01  0.10205683305E+01 0.  0.
     999903    2    3    3    0    0 -0.28049352372E-02 -0.88210510949E-01 -0.92860154822E-01  0.12993559067E+00  0.21709156277E-01 0.  0.
         14    1    1    2    0    0 -0.73655497868E-02 -0.20669513044E-01  0.72209650415E-02  0.23100269030E-01  0.00000000000E+00 0. -1.
     999901    1    3    3    0    0  0.10170485024E-01  0.10888002399E+00  0.85639189781E-01  0.89089414030E+00  0.88000000000E+00 0. -1.
        -11    1    4    4    0    0  0.34807973565E-02 -0.26597098138E-01 -0.16041125987E-01  0.31258605592E-01  0.51100000000E-03 0. -1.
         11    1    4    4    0    0 -0.62857325937E-02 -0.61613412811E-01 -0.76819028836E-01  0.98676985081E-01  0.51100000000E-03 0.  1.
</event>
<event>
 8    1  0.1126414E+005  0.1043930E+01  0.7957747E-01            NaN
         13   -1    0    0    0    0  0.00000000000E+00  0.00000000000E+00  0.74505805969E-08  0.10566000000E+00  0.10566000000E+00 0. -1.
     999900   -1    0    0    0    0 -0.00000000000E+00 -0.00000000000E+00 -0.74505805969E-08  0.93827000000E+00  0.93827000000E+00 0. -1.
     999902    2    1    2    0    0 -0.73377067996E-03  0.14251022801E-01 -0.18858028642E-01  0.10202814205E+01  0.10200073145E+01 0.  0.
     999903    2    3    3    0    0  0.12161168861E+00  0.20659251485E-01 -0.40943597155E-01  0.13151978248E+00  0.20121320936E-01 0.  0.
         14    1    1    2    0    0  0.73377067996E-03 -0.14251022801E-01  0.18858028642E-01  0.23648579546E-01  0.00000000000E+00 0. -1.
     999901    1    3    3    0    0 -0.12234545929E+00 -0.64082286836E-02  0.22085568513E-01  0.88876163798E+00  0.88000000000E+00 0. -1.
        -11    1    4    4    0    0  0.49312214086E-01  0.11309734133E-01 -0.26808873155E-01  0.57258897519E-01  0.51100000000E-03 0.  1.
         11    1    4    4    0    0  0.72299474523E-01  0.93495173513E-02 -0.14134724000E-01  0.74260884957E-01  0.51100000000E-03 0. -1.
</event>
<event>
 8    1  0.1126414E+005  0.1043930E+01  0.7957747E-01            NaN
         13   -1    0    0    0    0  0.00000000000E+00  0.00000000000E+00  0.74505805969E-08  0.10566000000E+00  0.10566000000E+00 0.  1.
     999900   -1    0    0    0    0 -0.00000000000E+00 -0.00000000000E+00 -0.74505805969E-08  0.93827000000E+00  0.93827000000E+00 0. -1.
     999902    2    1    2    0    0  0.18791150054E-01 -0.57214620321E-02  0.12113299567E-01  0.10208524249E+01  0.10205915436E+01 0.  0.
     999903    2    3    3    0    0 -0.22619025595E-01  0.29042949677E-01  0.12512806426E+00  0.13197914704E+00  0.20158113635E-01 0.  0.
         14    1    1    2    0    0 -0.18791150054E-01  0.57214620321E-02 -0.12113299567E-01  0.23077575144E-01  0.00000000000E+00 0.  1.
     999901    1    3    3    0    0  0.41410175649E-01 -0.34764411709E-01 -0.11301476469E+00  0.88887327781E+00  0.88000000000E+00 0. -1.
        -11    1    4    4    0    0 -0.15883192274E-01  0.18714453963E-01  0.48462779887E-01  0.54326869404E-01  0.51100000000E-03 0. -1.
         11    1    4    4    0    0 -0.67358333212E-02  0.10328495713E-01  0.76665284370E-01  0.77652277640E-01  0.51100000000E-03 0.  1.
</event>
<event>
 8    1  0.1126414E+005  0.1043930E+01  0.7957747E-01            NaN
         13   -1    0    0    0    0  0.00000000000E+00  0.00000000000E+00  0.74505805969E-08  0.10566000000E+00  0.10566000000E+00 0. -1.
     999900   -1    0    0    0    0 -0.00000000000E+00 -0.00000000000E+00 -0.74505805969E-08  0.93827000000E+00  0.93827000000E+00 0.  1.
     999902    2    1    2    0    0  0.23049692220E-01  0.65564144290E-02  0.99688705798E-02  0.10179751688E+01  0.10176442360E+01 0.  0.
     999903    2    3    3    0    0  0.44921488419E-01  0.11991198777E+00 -0.15211829689E-01  0.13007769210E+00  0.17087459957E-01 0.  0.
         14    1    1    2    0    0 -0.23049692220E-01 -0.65564144290E-02 -0.99688705798E-02  0.25954831193E-01  0.00000000000E+00 0.  1.
     999901    1    3    3    0    0 -0.21871796199E-01 -0.11335557334E+00  0.25180700269E-01  0.88789747671E+00  0.88000000000E+00 0. -1.
        -11    1    4    4    0    0  0.32395843808E-01  0.97118730544E-01 -0.17871959801E-01  0.10392885348E+00  0.51100000000E-03 0. -1.
         11    1    4    4    0    0  0.12525644612E-01  0.22793257222E-01  0.26601301119E-02  0.26148838616E-01  0.51100000000E-03 0.  1.
</event>
<event>
 8    1  0.1126414E+005  0.1043930E+01  0.7957747E-01            NaN
         13   -1    0    0    0    0  0.00000000000E+00  0.00000000000E+00  0.74505805969E-08  0.10566000000E+00  0.10566000000E+00 0. -1.
     999900   -1    0    0    0    0 -0.00000000000E+00 -0.00000000000E+00 -0.74505805969E-08  0.93827000000E+00  0.93827000000E+00 0.  1.
     999902    2    1    2    0    0 -0.28089092132E-02  0.23248511898E-01 -0.37558106033E-02  0.10202131412E+01  0.10199374315E+01 0.  0.
     999903    2    3    3    0    0  0.41184534330E-01 -0.11042804028E+00 -0.45917165979E-01  0.12803467054E+00  0.19848747627E-01 0.  0.
         14    1    1    2    0    0  0.28089092132E-02 -0.23248511898E-01  0.37558106033E-02  0.23716858766E-01  0.00000000000E+00 0.  1.
     999901    1    3    3    0    0 -0.43993443544E-01  0.13367655217E+00  0.42161355376E-01  0.89217847069E+00  0.88000000000E+00 0. -1.
        -11    1    4    4    0    0  0.36117020904E-01 -0.70012632807E-01 -0.29960317437E-01  0.84285762104E-01  0.51100000000E-03 0.  1.
         11    1    4    4    0    0  0.50675134261E-02 -0.40415407469E-01 -0.15956848543E-01  0.43748908440E-01  0.51100000000E-03 0. -1.
</event>
<event>
 8    1  0.1126414E+005  0.1043930E+01  0.7957747E-01            NaN
         13   -1    0    0    0    0  0.00000000000E+00  0.00000000000E+00  0.74505805969E-08  0.10566000000E+00  0.10566000000E+00 0.  1.
     999900   -1    0    0    0    0 -0.00000000000E+00 -0.00000000000E+00 -0.74505805969E-08  0.93827000000E+00  0.93827000000E+00 0.  1.
     999902    2    1    2    0    0  0.32667526225E-02  0.22827804005E-01 -0.95931845983E-02  0.10189538214E+01  0.10186476724E+01 0.  0.
     999903    2    3    3    0    0  0.77511167929E-02  0.12997755793E+00  0.11107300365E-01  0.13220149441E+00  0.19990438381E-01 0.  0.
         14    1    1    2    0    0 -0.32667526225E-02 -0.22827804005E-01  0.95931845983E-02  0.24976178633E-01  0.00000000000E+00 0.  1.
     999901    1    3    3    0    0 -0.44843641704E-02 -0.10714975392E+00 -0.20700484963E-01  0.88675232696E+00  0.88000000000E+00 0. -1.
        -11    1    4    4    0    0  0.78669785730E-02  0.78658670260E-01 -0.25498613993E-02  0.79093859896E-01  0.51100000000E-03 0. -1.
         11    1    4    4    0    0 -0.11586178008E-03  0.51318887665E-01  0.13657161764E-01  0.53107634514E-01  0.51100000000E-03 0.  1.
</event>
<event>
 8    1  0.1126414E+005  0.1043930E+01  0.7957747E-01            NaN
         13   -1    0    0    0    0  0.00000000000E+00  0.00000000000E+00  0.74505805969E-08  0.10566000000E+00  0.10566000000E+00 0.  1.
     999900   -1    0    0    0    0 -0.00000000000E+00 -0.00000000000E+00 -0.74505805969E-08  0.93827000000E+00  0.93827000000E+00 0. -1.
     999902    2    1    2    0    0  0.98430966861E-02  0.18883935283E-02 -0.22158903280E-01  0.10196098524E+01  0.10193197642E+01 0.  0.
     999903    2    3    3    0    0 -0.88675246072E-01  0.84338085823E-01 -0.39515769955E-01  0.13011276058E+00  0.19789451839E-01 0.  0.
         14    1    1    2    0    0 -0.98430966861E-02 -0.18883935283E-02  0.22158903280E-01  0.24320147554E-01  0.00000000000E+00 0.  1.
     999901    1    3    3    0    0  0.98518342758E-01 -0.82449692295E-01  0.17356866675E-01  0.88949709187E+00  0.88000000000E+00 0.  1.
        -11    1    4    4    0    0 -0.24127310993E-01  0.13042885270E-01 -0.12955420457E-01  0.30337238373E-01  0.51100000000E-03 0. -1.
         11    1    4    4    0    0 -0.64547935080E-01  0.71295200553E-01 -0.26560349498E-01  0.99775522206E-01  0.51100000000E-03 0.  1.
</event>
<event>
 8    1  0.1126414E+005  0.1043930E+01  0.7957747E-01            NaN
         13   -1    0    0    0    0  0.00000000000E+00  0.00000000000E+00  0.74505805969E-08  0.10566000000E+00  0.10566000000E+00 0.  1.
     999900   -1    0    0    0    0 -0.00000000000E+00 -0.00000000000E+00 -0.74505805969E-08  0.93827000000E+00  0.93827000000E+00 0. -1.
     999902    2    1    2    0    0 -0.23977599472E-01 -0.17562908325E-02 -0.35607679324E-02  0.10196259077E+01  0.10193362069E+01 0.  0.
     999903    2    3    3    0    0  0.14101257011E-01  0.20072826008E-01 -0.12617459505E+00  0.13004136408E+00  0.19722173930E-01 0.  0.
         14    1    1    2    0    0  0.23977599472E-01  0.17562908325E-02  0.35607679324E-02  0.24304092294E-01  0.00000000000E+00 0.  1.
     999901    1    3    3    0    0 -0.38078856484E-01 -0.21829116840E-01  0.12261382711E+00  0.88958454362E+00  0.88000000000E+00 0.  1.
        -11    1    4    4    0    0  0.96912317496E-02 -0.80059782123E-03 -0.30546329953E-01  0.32060884646E-01  0.51100000000E-03 0. -1.
         11    1    4    4    0    0  0.44100252616E-02  0.20873423829E-01 -0.95628265093E-01  0.97980479438E-01  0.51100000000E-03 0.  1.
</event>
<event>
 8    1  0.1126414E+005  0.1043930E+01  0.7957747E-01            NaN
         13   -1    0    0    0    0  0.00000000000E+00  0.00000000000E+00  0.74505805969E-08  0.10566000000E+00  0.10566000000E+00 0.  1.
     999900   -1    0    0    0    0 -0.00000000000E+00 -0.00000000000E+00 -0.74505805969E-08  0.93827000000E+00  0.93827000000E+00 0. -1.
     999902    2    1    2    0    0  0.14029010413E-01  0.71471857121E-02  0.18717097329E-01  0.10194713588E+01  0.10191779169E+01 0.  0.
     999903    2    3    3    0    0 -0.10910944105E+00 -0.39565499155E-02  0.66965305168E-01  0.12951952823E+00  0.19246601893E-01 0.  0.
         14    1    1    2    0    0 -0.14029010413E-01 -0.71471857121E-02 -0.18717097329E-01  0.24458641197E-01  0.00000000000E+00 0. -1.
     999901    1    3    3    0    0  0.12313845146E+00  0.11103735628E-01 -0.48248207840E-01  0.88995183057E+00  0.88000000000E+00 0. -1.
        -11    1    4    4    0    0 -0.35475422476E-01  0.18058297799E-02  0.31950304765E-01  0.47779176600E-01  0.51100000000E-03 0.  1.
         11    1    4    4    0    0 -0.73634018573E-01 -0.57623796954E-02  0.35015000404E-01  0.81740351634E-01  0.51100000000E-03 0. -1.
</event>
<event>
 8    1  0.1126414E+005  0.1043930E+01  0.7957747E-01            NaN
         13   -1    0    0    0    0  0.00000000000E+00  0.00000000000E+00  0.74505805969E-08  0.10566000000E+00  0.10566000000E+00 0. -1.
     999900   -1    0    0    0    0 -0.00000000000E+00 -0.00000000000E+00 -0.74505805969E-08  0.93827000000E+00  0.93827000000E+00 0. -1.
     999902    2    1    2    0    0  0.15767449827E-01 -0.46506114959E-03 -0.17113237211E-01  0.10206557300E+01  0.10203903310E+01 0.  0.
     999903    2    3    3    0    0  0.38325883033E-01 -0.23608842959E-02 -0.12632739428E+00  0.13361559046E+00  0.20495569893E-01 0.  0.
         14    1    1    2    0    0 -0.15767449827E-01  0.46506114959E-03  0.17113237211E-01  0.23274269994E-01  0.00000000000E+00 0. -1.
     999901    1    3    3    0    0 -0.22558433206E-01  0.18958231463E-02  0.10921415707E+00  0.88704013954E+00  0.88000000000E+00 0.  1.
        -11    1    4    4    0    0  0.13005631770E-02  0.37297535617E-02 -0.29550654500E-01  0.29817860899E-01  0.51100000000E-03 0. -1.
         11    1    4    4    0    0  0.37025319856E-01 -0.60906378576E-02 -0.96776739777E-01  0.10379772957E+00  0.51100000000E-03 0.  1.
</event>
<event>
 8    1  0.1126414E+005  0.1043930E+01  0.7957747E-01            NaN
         13   -1    0    0    0    0  0.00000000000E+00  0.00000000000E+00  0.74505805969E-08  0.10566000000E+00  0.10566000000E+00 0. -1.
     999900   -1    0    0    0    0 -0.00000000000E+00 -0.00000000000E+00 -0.74505805969E-08  0.93827000000E+00  0.93827000000E+00 0.  1.
     999902    2    1    2    0    0  0.46385098682E-02  0.51500712029E-02  0.22861889248E-01  0.10200405675E+01  0.10197607829E+01 0.  0.
     999903    2    3    3    0    0 -0.11039592843E+00 -0.59075256981E-01 -0.22291148496E-01  0.12908792472E+00  0.22128036664E-01 0.  0.
         14    1    1    2    0    0 -0.46385098682E-02 -0.51500712029E-02 -0.22861889248E-01  0.23889432542E-01  0.00000000000E+00 0.  1.
     999901    1    3    3    0    0  0.11503443830E+00  0.64225328184E-01  0.45153037744E-01  0.89095264273E+00  0.88000000000E+00 0. -1.
        -11    1    4    4    0    0 -0.57793795158E-02  0.17332303355E-02 -0.20964560706E-02  0.64079297780E-02  0.51100000000E-03 0. -1.
         11    1    4    4    0    0 -0.10461654892E+00 -0.60808487316E-01 -0.20194692425E-01  0.12267999495E+00  0.51100000000E-03 0.  1.
</event>
<event>
 8    1  0.1126414E+005  0.1043930E+01  0.7957747E-01            NaN
         13   -1    0    0    0    0  0.00000000000E+00  0.00000000000E+00  0.74505805969E-08  0.10566000000E+00  0.10566000000E+00 0.  1.
     999900   -1    0    0    0    0 -0.00000000000E+00 -0.00000000000E+00 -0.74505805969E-08  0.93827000000E+00  0.93827000000E+00 0.  1.
     999902    2    1    2    0    0 -0.14159332017E-01 -0.13671734595E-01  0.11140447837E-01  0.10213133560E+01  0.10210629062E+01 0.  0.
     999903    2    3    3    0    0  0.21161235668E-02  0.98690301308E-01 -0.80256013792E-01  0.12932488587E+00  0.23230256204E-01 0.  0.
         14    1    1    2    0    0  0.14159332017E-01  0.13671734595E-01 -0.11140447837E-01  0.22616644048E-01  0.00000000000E+00 0. -1.
     999901    1    3    3    0    0 -0.16275455584E-01 -0.11236203590E+00  0.91396461629E-01  0.89198847009E+00  0.88000000000E+00 0. -1.
        -11    1    4    4    0    0  0.35403947816E-02  0.12800300862E-01 -0.21406497686E-01  0.25196852215E-01  0.51100000000E-03 0.  1.
         11    1    4    4    0    0 -0.14242712148E-02  0.85890000446E-01 -0.58849516106E-01  0.10412803365E+00  0.51100000000E-03 0. -1.
</event>
<event>
 8    1  0.1126414E+005  0.1043930E+01  0.7957747E-01            NaN
         13   -1    0    0    0    0  0.00000000000E+00  0.00000000000E+00  0.74505805969E-08  0.10566000000E+00  0.10566000000E+00 0.  1.
     999900   -1    0    0    0    0 -0.00000000000E+00 -0.00000000000E+00 -0.74505805969E-08  0.93827000000E+00  0.93827000000E+00 0. -1.
     999902    2    1    2    0    0 -0.15700021829E-01  0.95300942292E-02  0.16388897964E-01  0.10193147739E+01  0.10190175165E+01 0.  0.
     999903    2    3    3    0    0  0.93486983607E-01  0.58001631454E-01 -0.61853675708E-01  0.12780302833E+00  0.20093070875E-01 0.  0.
         14    1    1    2    0    0  0.15700021829E-01 -0.95300942292E-02 -0.16388897964E-01  0.24615226140E-01  0.00000000000E+00 0. -1.
     999901    1    3    3    0    0 -0.10918700544E+00 -0.48471537225E-01  0.78242573673E-01  0.89151174553E+00  0.88000000000E+00 0.  1.
        -11    1    4    4    0    0  0.65886452314E-01  0.51082213151E-01 -0.45443963387E-01  0.94951735257E-01  0.51100000000E-03 0. -1.
         11    1    4    4    0    0  0.27600531293E-01  0.69194183026E-02 -0.16409712321E-01  0.32851293076E-01  0.51100000000E-03 0.  1.
</event>
<event>
 8    1  0.1126414E+005  0.1043930E+01  0.7957747E-01            NaN
         13   -1    0    0    0    0  0.00000000000E+00  0.00000000000E+00  0.74505805969E-08  0.10566000000E+00  0.10566000000E+00 0.  1.
     999900   -1    0    0    0    0 -0.00000000000E+00 -0.00000000000E+00 -0.74505805969E-08  0.93827000000E+00  0.93827000000E+00 0.  1.
     999902    2    1    2    0    0 -0.15126215487E-02  0.23366077704E-01 -0.74399842783E-02  0.10193614230E+01  0.10190653049E+01 0.  0.
     999903    2    3    3    0    0 -0.74497696632E-01 -0.14057768589E-01 -0.10402203545E+00  0.13028580298E+00  0.20156362198E-01 0.  0.
         14    1    1    2    0    0  0.15126215487E-02 -0.23366077704E-01  0.74399842783E-02  0.24568577030E-01  0.00000000000E+00 0.  1.
     999901    1    3    3    0    0  0.72985075083E-01  0.37423846293E-01  0.96582051172E-01  0.88907561999E+00  0.88000000000E+00 0. -1.
        -11    1    4    4    0    0 -0.15438220596E-01  0.51508060920E-02 -0.23658941356E-01  0.28720656079E-01  0.51100000000E-03 0. -1.
         11    1    4    4    0    0 -0.59059476036E-01 -0.19208574681E-01 -0.80363094095E-01  0.10156514690E+00  0.51100000000E-03 0.  1.
</event>
<event>
 8    1  0.1126414E+005  0.1043930E+01  0.7957747E-01            NaN
         13   -1    0    0    0    0  0.00000000000E+00  0.00000000000E+00  0.74505805969E-08  0.10566000000E+00  0.10566000000E+00 0.  1.
     999900   -1    0    0    0    0 -0.00000000000E+00 -0.00000000000E+00 -0.74505805969E-08  0.93827000000E+00  0.93827000000E+00 0. -1.
     999902    2    1    2    0    0  0.11943293301E-01 -0.11585640201E-01 -0.15980393832E-01  0.10208596229E+01  0.10205989062E+01 0.  0.
     999903    2    3    3    0    0  0.70238195466E-01  0.53259869067E-01  0.93240418430E-01  0.12983076727E+00  0.19804917193E-01 0.  0.
         14    1    1    2    0    0 -0.11943293301E-01  0.11585640201E-01  0.15980393832E-01  0.23070377127E-01  0.00000000000E+00 0.  1.
     999901    1    3    3    0    0 -0.58294902165E-01 -0.64845509267E-01 -0.10922081226E+00  0.89102885561E+00  0.88000000000E+00 0. -1.
        -11    1    4    4    0    0  0.53315100842E-02  0.10534502058E-01  0.18893733796E-01  0.22285309761E-01  0.51100000000E-03 0. -1.
         11    1    4    4    0    0  0.64906685382E-01  0.42725367009E-01  0.74346684634E-01  0.10754545751E+00  0.51100000000E-03 0.  1.
</event>
<event>
 8    1  0.1126414E+005  0.1043930E+01  0.7957747E-01            NaN
         13   -1    0    0    0    0  0.00000000000E+00  0.00000000000E+00  0.74505805969E-08  0.10566000000E+00  0.10566000000E+00 0. -1.
     999900   -1    0    0    0    0 -0.00000000000E+00 -0.00000000000E+00 -0.74505805969E-08  0.93827000000E+00  0.93827000000E+00 0. -1.
     999902    2    1    2    0    0  0.58128101438E-02 -0.90498820678E-02 -0.28262548195E-01  0.10136899478E+01  0.10132387919E+01 0.  0.
     999903    2    3    3    0    0 -0.87195106490E-02 -0.69112118081E-01 -0.10554623762E+00  0.12814411092E+00  0.20697588183E-01 0.  0.
         14    1    1    2    0    0 -0.58128101438E-02  0.90498820678E-02  0.28262548195E-01  0.30240052210E-01  0.00000000000E+00 0. -1.
     999901    1    3    3    0    0  0.14532320793E-01  0.60062236014E-01  0.77283689426E-01  0.88554583687E+00  0.88000000000E+00 0.  1.
        -11    1    4    4    0    0  0.55599634430E-02 -0.26256987994E-01 -0.31298220414E-01  0.41233267322E-01  0.51100000000E-03 0. -1.
         11    1    4    4    0    0 -0.14279474092E-01 -0.42855130088E-01 -0.74248017206E-01  0.86910843600E-01  0.51100000000E-03 0.  1.
</event>
<event>
 8    1  0.1126414E+005  0.1043930E+01  0.7957747E-01            NaN
         13   -1    0    0    0    0  0.00000000000E+00  0.00000000000E+00  0.74505805969E-08  0.10566000000E+00  0.10566000000E+00 0. -1.
     999900   -1    0    0    0    0 -0.00000000000E+00 -0.00000000000E+00 -0.74505805969E-08  0.93827000000E+00  0.93827000000E+00 0.  1.
     999902    2    1    2    0    0  0.10192433459E-01  0.17074692151E-01 -0.14329548008E-01  0.10194194562E+01  0.10191247524E+01 0.  0.
     999903    2    3    3    0    0 -0.56384687248E-01  0.18875532530E-02 -0.11651092345E+00  0.13087896995E+00  0.19279877571E-01 0.  0.
         14    1    1    2    0    0 -0.10192433459E-01 -0.17074692151E-01  0.14329548008E-01  0.24510543813E-01  0.00000000000E+00 0. -1.
     999901    1    3    3    0    0  0.66577120706E-01  0.15187138898E-01  0.10218137544E+00  0.88854048623E+00  0.88000000000E+00 0. -1.
        -11    1    4    4    0    0 -0.33351787431E-01  0.10007657143E-01 -0.61209587746E-01  0.70422792329E-01  0.51100000000E-03 0. -1.
         11    1    4    4    0    0 -0.23032899817E-01 -0.81201038900E-02 -0.55301335705E-01  0.60456177624E-01  0.51100000000E-03 0.  1.
</event>
<event>
 8    1  0.1126414E+005  0.1043930E+01  0.7957747E-01            NaN
         13   -1    0    0    0    0  0.00000000000E+00  0.00000000000E+00  0.74505805969E-08  0.10566000000E+00  0.10566000000E+00 0. -1.
     999900   -1    0    0    0    0 -0.00000000000E+00 -0.00000000000E+00 -0.74505805969E-08  0.93827000000E+00  0.93827000000E+00 0.  1.
     999902    2    1    2    0    0 -0.89446863057E-02 -0.37874583428E-02  0.21212800467E-01  0.10205990086E+01  0.10203322994E+01 0.  0.
     999903    2    3    3    0    0 -0.44378465271E-01 -0.32310597289E-01  0.12033142706E+00  0.13386701741E+00  0.20671311894E-01 0.  0.
         14    1    1    2    0    0  0.89446863057E-02  0.37874583428E-02 -0.21212800467E-01  0.23330991352E-01  0.00000000000E+00 0.  1.
     999901    1    3    3    0    0  0.35433778966E-01  0.28523138947E-01 -0.99118626591E-01  0.88673199124E+00  0.88000000000E+00 0.  1.
        -11    1    4    4    0    0 -0.31923968194E-01 -0.12729030286E-01  0.83916262978E-01  0.90682789274E-01  0.51100000000E-03 0. -1.
         11    1    4    4    0    0 -0.12454497077E-01 -0.19581567003E-01  0.36415164080E-01  0.43184228136E-01  0.51100000000E-03 0.  1.
</event>
<event>
 8    1  0.1126414E+005  0.1043930E+01  0.7957747E-01            NaN
         13   -1    0    0    0    0  0.00000000000E+00  0.00000000000E+00  0.74505805969E-08  0.10566000000E+00  0.10566000000E+00 0. -1.
     999900   -1    0    0    0    0 -0.00000000000E+00 -0.00000000000E+00 -0.74505805969E-08  0.93827000000E+00  0.93827000000E+00 0.  1.
     999902    2    1    2    0    0  0.11124239178E-01  0.19458551630E-01  0.43932111611E-02  0.10210895921E+01  0.10208341055E+01 0.  0.
     999903    2    3    3    0    0  0.11280391224E+00  0.68317585491E-01  0.88455399137E-02  0.13387722500E+00  0.21280335818E-01 0.  0.
         14    1    1    2    0    0 -0.11124239178E-01 -0.19458551630E-01 -0.43932111611E-02  0.22840407902E-01  0.00000000000E+00 0.  1.
     999901    1    3    3    0    0 -0.10167967306E+00 -0.48859033861E-01 -0.44523287526E-02  0.88721236710E+00  0.88000000000E+00 0.  1.
        -11    1    4    4    0    0  0.37517440363E-01  0.26480116717E-01 -0.65232651588E-02  0.46385008592E-01  0.51100000000E-03 0. -1.
         11    1    4    4    0    0  0.75286471878E-01  0.41837468775E-01  0.15368805072E-01  0.87492216406E-01  0.51100000000E-03 0.  1.
</event>
<event>
 8    1  0.1126414E+005  0.1043930E+01  0.7957747E-01            NaN
         13   -1    0    0    0    0  0.00000000000E+00  0.00000000000E+00  0.74505805969E-08  0.10566000000E+00  0.10566000000E+00 0.  1.
     999900   -1    0    0    0    0 -0.00000000000E+00 -0.00000000000E+00 -0.74505805969E-08  0.93827000000E+00  0.93827000000E+00 0. -1.
     999902    2    1    2    0    0 -0.12150530021E-01 -0.21064256222E-01  0.21592112415E-03  0.10196115936E+01  0.10193215473E+01 0.  0.
     999903    2    3    3    0    0 -0.48529686547E-01  0.11424741354E+00  0.25023573446E-01  0.12818122016E+00  0.19915923164E-01 0.  0.
         14    1    1    2    0    0  0.12150530021E-01  0.21064256222E-01 -0.21592112415E-03  0.24318406443E-01  0.00000000000E+00 0. -1.
     999901    1    3    3    0    0  0.36379156526E-01 -0.13531166977E+00 -0.24807652321E-01  0.89143037340E+00  0.88000000000E+00 0. -1.
        -11    1    4    4    0    0 -0.21329022674E-01  0.71570385480E-01  0.97539383612E-02  0.75316981621E-01  0.51100000000E-03 0.  1.
         11    1    4    4    0    0 -0.27200663873E-01  0.42677028064E-01  0.15269635084E-01  0.52864238537E-01  0.51100000000E-03 0. -1.
</event>
<event>
 8    1  0.1126414E+005  0.1043930E+01  0.7957747E-01            NaN
         13   -1    0    0    0    0  0.00000000000E+00  0.00000000000E+00  0.74505805969E-08  0.10566000000E+00  0.10566000000E+00 0. -1.
     999900   -1    0    0    0    0 -0.00000000000E+00 -0.00000000000E+00 -0.74505805969E-08  0.93827000000E+00  0.93827000000E+00 0. -1.
     999902    2    1    2    0    0  0.16548201406E-01  0.11813614121E-01  0.94183854904E-02  0.10215221792E+01  0.10212763838E+01 0.  0.
     999903    2    3    3    0    0  0.84248333953E-01  0.10195530827E+00  0.24844473382E-02  0.13430354070E+00  0.23207798457E-01 0.  0.
         14    1    1    2    0    0 -0.16548201406E-01 -0.11813614121E-01 -0.94183854904E-02  0.22407820814E-01  0.00000000000E+00 0. -1.
     999901    1    3    3    0    0 -0.67700132547E-01 -0.90141694148E-01  0.69339381522E-02  0.88721863848E+00  0.88000000000E+00 0. -1.
        -11    1    4    4    0    0  0.45410788261E-01  0.63383296328E-01  0.11531463618E-01  0.78821429307E-01  0.51100000000E-03 0. -1.
         11    1    4    4    0    0  0.38837545692E-01  0.38572011941E-01 -0.90470162799E-02  0.55482111398E-01  0.51100000000E-03 0.  1.
</event>
<event>
 8    1  0.1126414E+005  0.1043930E+01  0.7957747E-01            NaN
         13   -1    0    0    0    0  0.00000000000E+00  0.00000000000E+00  0.74505805969E-08  0.10566000000E+00  0.10566000000E+00 0. -1.
     999900   -1    0    0    0    0 -0.00000000000E+00 -0.00000000000E+00 -0.74505805969E-08  0.93827000000E+00  0.93827000000E+00 0. -1.
     999902    2    1    2    0    0  0.11481869406E-01  0.39420540233E-02  0.19976371594E-01  0.10205541891E+01  0.10202864423E+01 0.  0.
     999903    2    3    3    0    0  0.19903007339E-01  0.74921607803E-01  0.10669199089E+00  0.13340785883E+00  0.20127067837E-01 0.  0.
         14    1    1    2    0    0 -0.11481869406E-01 -0.39420540233E-02 -0.19976371594E-01  0.23375810938E-01  0.00000000000E+00 0.  1.
     999901    1    3    3    0    0 -0.84211379335E-02 -0.70979553780E-01 -0.86715619297E-01  0.88714633023E+00  0.88000000000E+00 0.  1.
        -11    1    4    4    0    0  0.17647093168E-01  0.33560350561E-01  0.41971596093E-01  0.56564945211E-01  0.51100000000E-03 0. -1.
         11    1    4    4    0    0  0.22559141717E-02  0.41361257242E-01  0.64720394797E-01  0.76842913616E-01  0.51100000000E-03 0.  1.
</event>
<event>
 8    1  0.1126414E+005  0.1043930E+01  0.7957747E-01            NaN
         13   -1    0    0    0    0  0.00000000000E+00  0.00000000000E+00  0.74505805969E-08  0.10566000000E+00  0.10566000000E+00 0. -1.
     999900   -1    0    0    0    0 -0.00000000000E+00 -0.00000000000E+00 -0.74505805969E-08  0.93827000000E+00  0.93827000000E+00 0.  1.
     999902    2    1    2    0    0 -0.17049391288E-01 -0.86388010164E-02  0.17311665300E-01  0.10181423211E+01  0.10178156914E+01 0.  0.
     999903    2    3    3    0    0  0.64781871819E-02 -0.95874615027E-01 -0.82086760532E-01  0.12794926271E+00  0.19971701417E-01 0.  0.
         14    1    1    2    0    0  0.17049391288E-01  0.86388010164E-02 -0.17311665300E-01  0.25787678875E-01  0.00000000000E+00 0.  1.
     999901    1    3    3    0    0 -0.23527578470E-01  0.87235814010E-01  0.99398425832E-01  0.89019305842E+00  0.88000000000E+00 0. -1.
        -11    1    4    4    0    0 -0.33582373646E-02 -0.14881762293E-01 -0.60445020361E-02  0.16417726182E-01  0.51100000000E-03 0. -1.
         11    1    4    4    0    0  0.98364245466E-02 -0.80992852734E-01 -0.76042258496E-01  0.11153153653E+00  0.51100000000E-03 0.  1.
</event>
<event>
 8    1  0.1126414E+005  0.1043930E+01  0.7957747E-01            NaN
         13   -1    0    0    0    0  0.00000000000E+00  0.00000000000E+00  0.74505805969E-08  0.10566000000E+00  0.10566000000E+00 0.  1.
     999900   -1    0    0    0    0 -0.00000000000E+00 -0.00000000000E+00 -0.74505805969E-08  0.93827000000E+00  0.93827000000E+00 0.  1.
     999902    2    1    2    0    0 -0.14864866946E-01  0.15048560920E-01 -0.10958642179E-01  0.10201074205E+01  0.10198292181E+01 0.  0.
     999903    2    3    3    0    0 -0.53615037877E-01  0.10201412793E+00  0.61523484515E-01  0.13200931541E+00  0.18970124536E-01 0.  0.
         14    1    1    2    0    0  0.14864866946E-01 -0.15048560920E-01  0.10958642179E-01  0.23822579488E-01  0.00000000000E+00 0. -1.
     999901    1    3    3    0    0  0.38750170931E-01 -0.86965567010E-01 -0.72482126694E-01  0.88809810510E+00  0.88000000000E+00 0.  1.
        -11    1    4    4    0    0 -0.54513433732E-01  0.99097944277E-01  0.61829639635E-01  0.12890028113E+00  0.51100000000E-03 0. -1.
         11    1    4    4    0    0  0.89839585488E-03  0.29161836518E-02 -0.30615511958E-03  0.31090342810E-02  0.51100000000E-03 0.  1.
</event>
<event>
 8    1  0.1126414E+005  0.1043930E+01  0.7957747E-01            NaN
         13   -1    0    0    0    0  0.00000000000E+00  0.00000000000E+00  0.74505805969E-08  0.10566000000E+00  0.10566000000E+00 0. -1.
     999900   -1    0    0    0    0 -0.00000000000E+00 -0.00000000000E+00 -0.74505805969E-08  0.93827000000E+00  0.93827000000E+00 0.  1.
     999902    2    1    2    0    0  0.21488293005E-01  0.16594532726E-02 -0.10565355850E-01  0.10199273488E+01  0.10196448742E+01 0.  0.
     999903    2    3    3    0    0  0.64376482505E-01 -0.11273577862E+00 -0.57823421619E-02  0.13147445577E+00  0.19960204350E-01 0.  0.
         14    1    1    2    0    0 -0.21488293005E-01 -0.16594532726E-02  0.10565355850E-01  0.24002651222E-01  0.00000000000E+00 0.  1.
     999901    1    3    3    0    0 -0.42888189500E-01  0.11439523189E+00 -0.47830136882E-02  0.88845289301E+00  0.88000000000E+00 0.  1.
        -11    1    4    4    0    0  0.52006682009E-01 -0.76996810022E-01  0.16379399897E-02  0.92930875900E-01  0.51100000000E-03 0. -1.
         11    1    4    4    0    0  0.12369800495E-01 -0.35738968599E-01 -0.74202821517E-02  0.38543579868E-01  0.51100000000E-03 0.  1.
</event>
<event>
 8    1  0.1126414E+005  0.1043930E+01  0.7957747E-01            NaN
         13   -1    0    0    0    0  0.00000000000E+00  0.00000000000E+00  0.74505805969E-08  0.10566000000E+00  0.10566000000E+00 0. -1.
     999900   -1    0    0    0    0 -0.00000000000E+00 -0.00000000000E+00 -0.74505805969E-08  0.93827000000E+00  0.93827000000E+00 0. -1.
     999902    2    1    2    0    0  0.61004936370E-02  0.13526067530E-01  0.18512614713E-01  0.10202047512E+01  0.10199288441E+01 0.  0.
     999903    2    3    3    0    0 -0.12718683359E+00  0.10795574743E-01  0.16258829772E-01  0.13016090583E+00  0.19608079703E-01 0.  0.
         14    1    1    2    0    0 -0.61004936370E-02 -0.13526067530E-01 -0.18512614713E-01  0.23725248765E-01  0.00000000000E+00 0.  1.
     999901    1    3    3    0    0  0.13328732723E+00  0.27304927869E-02  0.22537849411E-02  0.89004384540E+00  0.88000000000E+00 0.  1.
        -11    1    4    4    0    0 -0.96215420238E-01 -0.20185548300E-03  0.10467775413E-01  0.96784726483E-01  0.51100000000E-03 0.  1.
         11    1    4    4    0    0 -0.30971413350E-01  0.10997430226E-01  0.57910543590E-02  0.33376179351E-01  0.51100000000E-03 0. -1.
</event>
<event>
 8    1  0.1126414E+005  0.1043930E+01  0.7957747E-01            NaN
         13   -1    0    0    0    0  0.00000000000E+00  0.00000000000E+00  0.74505805969E-08  0.10566000000E+00  0.10566000000E+00 0.  1.
     999900   -1    0    0    0    0 -0.00000000000E+00 -0.00000000000E+00 -0.74505805969E-08  0.93827000000E+00  0.93827000000E+00 0. -1.
     999902    2    1    2    0    0 -0.20011025501E-01  0.10706038940E-01 -0.10734502454E-01  0.10188244238E+01  0.10185150547E+01 0.  0.
     999903    2    3    3    0    0 -0.57151984688E-01 -0.85147607386E-01  0.75148005634E-01  0.12868781772E+00  0.19921528074E-01 0.  0.
         14    1    1    2    0    0  0.20011025501E-01 -0.10706038940E-01  0.10734502454E-01  0.25105576160E-01  0.00000000000E+00 0.  1.
     999901    1    3    3    0    0  0.37140959187E-01  0.95853646326E-01 -0.85882508088E-01  0.89013660612E+00  0.88000000000E+00 0. -1.
        -11    1    4    4    0    0 -0.29713960991E-01 -0.60884582701E-01  0.46267072887E-01  0.82041178947E-01  0.51100000000E-03 0. -1.
         11    1    4    4    0    0 -0.27438023698E-01 -0.24263024685E-01  0.28880932746E-01  0.46646638771E-01  0.51100000000E-03 0.  1.
</event>
<event>
 8    1  0.1126414E+005  0.1043930E+01  0.7957747E-01            NaN
         13   -1    0    0    0    0  0.00000000000E+00  0.00000000000E+00  0.74505805969E-08  0.10566000000E+00  0.10566000000E+00 0.  1.
     999900   -1    0    0    0    0 -0.00000000000E+00 -0.00000000000E+00 -0.74505805969E-08  0.93827000000E+00  0.93827000000E+00 0.  1.
     999902    2    1    2    0    0  0.14108790632E-01 -0.72449831788E-04 -0.19566306223E-01  0.10198073227E+01  0.10195219820E+01 0.  0.
     999903    2    3    3    0    0 -0.77263136996E-01  0.84314733611E-01  0.53679226313E-01  0.12804786300E+00  0.20886101563E-01 0.  0.
         14    1    1    2    0    0 -0.14108790632E-01  0.72449831788E-04  0.19566306223E-01  0.24122677324E-01  0.00000000000E+00 0.  1.
     999901    1    3    3    0    0  0.91371927629E-01 -0.84387183443E-01 -0.73245532536E-01  0.89175945968E+00  0.88000000000E+00 0.  1.
        -11    1    4    4    0    0 -0.55059053523E-01  0.47136445378E-01  0.28015081078E-01  0.77707462618E-01  0.51100000000E-03 0.  1.
         11    1    4    4    0    0 -0.22204083473E-01  0.37178288233E-01  0.25664145235E-01  0.50340400380E-01  0.51100000000E-03 0. -1.
</event>
<event>
 8    1  0.1203375E+005  0.1043930E+01  0.7957747E-01            NaN
         13   -1    0    0    0    0  0.00000000000E+00  0.00000000000E+00  0.74505805969E-08  0.10566000000E+00  0.10566000000E+00 0.  1.
     999900   -1    0    0    0    0 -0.00000000000E+00 -0.00000000000E+00 -0.74505805969E-08  0.93827000000E+00  0.93827000000E+00 0.  1.
     999902    2    1    2    0    0  0.70090555983E-02  0.55700415945E-02  0.21592493285E-01  0.10205550564E+01  0.10202873297E+01 0.  0.
     999903    2    3    3    0    0 -0.83291091521E-02 -0.11635005913E+00 -0.51422054018E-01  0.12902216612E+00  0.19894255258E-01 0.  0.
         14    1    1    2    0    0 -0.70090555983E-02 -0.55700415945E-02 -0.21592493285E-01  0.23374943637E-01  0.00000000000E+00 0. -1.
     999901    1    3    3    0    0  0.15338164750E-01  0.12192010073E+00  0.73014547304E-01  0.89153289024E+00  0.88000000000E+00 0. -1.
        -11    1    4    4    0    0 -0.14813715068E-01 -0.86686285490E-01 -0.39232459697E-01  0.96298521593E-01  0.51100000000E-03 0. -1.
         11    1    4    4    0    0  0.64846059163E-02 -0.29663773644E-01 -0.12189594321E-01  0.32723644531E-01  0.51100000000E-03 0.  1.
</event>
<event>
 8    1  0.1126414E+005  0.1043930E+01  0.7957747E-01            NaN
         13   -1    0    0    0    0  0.00000000000E+00  0.00000000000E+00  0.74505805969E-08  0.10566000000E+00  0.10566000000E+00 0.  1.
     999900   -1    0    0    0    0 -0.00000000000E+00 -0.00000000000E+00 -0.74505805969E-08  0.93827000000E+00  0.93827000000E+00 0. -1.
     999902    2    1    2    0    0  0.18443467569E-01  0.10786039397E-02  0.14558553988E-01  0.10204081723E+01  0.10201370309E+01 0.  0.
     999903    2    3    3    0    0  0.12240667433E+00 -0.46900498091E-01  0.10009566674E-01  0.13297871831E+00  0.20002436267E-01 0.  0.
         14    1    1    2    0    0 -0.18443467569E-01 -0.10786039397E-02 -0.14558553988E-01  0.23521827664E-01  0.00000000000E+00 0. -1.
     999901    1    3    3    0    0 -0.10396320676E+00  0.47979102031E-01  0.45489873139E-02  0.88742945403E+00  0.88000000000E+00 0.  1.
        -11    1    4    4    0    0  0.77944344274E-01 -0.36670840067E-01 -0.56215457486E-03  0.86143185768E-01  0.51100000000E-03 0. -1.
         11    1    4    4    0    0  0.44462330054E-01 -0.10229658024E-01  0.10571721249E-01  0.46835532540E-01  0.51100000000E-03 0.  1.
</event>
<event>
 8    1  0.1126414E+005  0.1043930E+01  0.7957747E-01            NaN
         13   -1    0    0    0    0  0.00000000000E+00  0.00000000000E+00  0.74505805969E-08  0.10566000000E+00  0.10566000000E+00 0.  1.
     999900   -1    0    0    0    0 -0.00000000000E+00 -0.00000000000E+00 -0.74505805969E-08  0.93827000000E+00  0.93827000000E+00 0. -1.
     999902    2    1    2    0    0 -0.21367710337E-01  0.22188964230E-01 -0.18627937589E-01  0.10079309828E+01  0.10072879116E+01 0.  0.
     999903    2    3    3    0    0  0.11002619007E+00  0.33961936613E-01  0.13729791661E-01  0.11750974398E+00  0.18996239427E-01 0.  0.
         14    1    1    2    0    0  0.21367710337E-01 -0.22188964230E-01  0.18627937589E-01  0.35999017174E-01  0.00000000000E+00 0. -1.
     999901    1    3    3    0    0 -0.13139390040E+00 -0.11772972383E-01 -0.32357729250E-01  0.89042123884E+00  0.88000000000E+00 0. -1.
        -11    1    4    4    0    0  0.68591650605E-01  0.30452261664E-01  0.68909998656E-02  0.75365123057E-01  0.51100000000E-03 0.  1.
         11    1    4    4    0    0  0.41434539462E-01  0.35096749488E-02  0.68387917958E-02  0.42144620925E-01  0.51100000000E-03 0. -1.
</event>
<event>
 8    1  0.1126414E+005  0.1043930E+01  0.7957747E-01            NaN
         13   -1    0    0    0    0  0.00000000000E+00  0.00000000000E+00  0.74505805969E-08  0.10566000000E+00  0.10566000000E+00 0. -1.
     999900   -1    0    0    0    0 -0.00000000000E+00 -0.00000000000E+00 -0.74505805969E-08  0.93827000000E+00  0.93827000000E+00 0.  1.
     999902    2    1    2    0    0 -0.23285699255E-01  0.27886364473E-02  0.85520655365E-03  0.10204623273E+01  0.10201924474E+01 0.  0.
     999903    2    3    3    0    0  0.75987529489E-01 -0.99518044643E-01  0.21116332049E-01  0.12876039048E+00  0.21339935121E-01 0.  0.
         14    1    1    2    0    0  0.23285699255E-01 -0.27886364473E-02 -0.85520655365E-03  0.23467672685E-01  0.00000000000E+00 0.  1.
     999901    1    3    3    0    0 -0.99273228744E-01  0.10230668109E+00 -0.20261125495E-01  0.89170193683E+00  0.88000000000E+00 0.  1.
        -11    1    4    4    0    0  0.74117377379E-01 -0.87689235644E-01  0.16903893896E-01  0.11605511806E+00  0.51100000000E-03 0.  1.
         11    1    4    4    0    0  0.18701521100E-02 -0.11828808999E-01  0.42124381531E-02  0.12705272427E-01  0.51100000000E-03 0. -1.
</event>
<event>
 8    1  0.1126414E+005  0.1043930E+01  0.7957747E-01            NaN
         13   -1    0    0    0    0  0.00000000000E+00  0.00000000000E+00  0.74505805969E-08  0.10566000000E+00  0.10566000000E+00 0. -1.
     999900   -1    0    0    0    0 -0.00000000000E+00 -0.00000000000E+00 -0.74505805969E-08  0.93827000000E+00  0.93827000000E+00 0.  1.
     999902    2    1    2    0    0  0.19660877067E-01  0.14593151080E-01  0.72005848667E-02  0.10184082726E+01  0.10180884299E+01 0.  0.
     999903    2    3    3    0    0  0.75992449872E-01 -0.92636300752E-01  0.44495036495E-01  0.12932881749E+00  0.19743305335E-01 0.  0.
         14    1    1    2    0    0 -0.19660877067E-01 -0.14593151080E-01 -0.72005848667E-02  0.25521727369E-01  0.00000000000E+00 0.  1.
     999901    1    3    3    0    0 -0.56331572805E-01  0.10722945183E+00 -0.37294451628E-01  0.88907945514E+00  0.88000000000E+00 0.  1.
        -11    1    4    4    0    0  0.96108040491E-02 -0.16129915171E-01  0.14378581248E-01  0.23654733936E-01  0.51100000000E-03 0.  1.
         11    1    4    4    0    0  0.66381645823E-01 -0.76506385582E-01  0.30116455247E-01  0.10567408355E+00  0.51100000000E-03 0. -1.
</event>
<event>
 8    1  0.1126414E+005  0.1043930E+01  0.7957747E-01            NaN
         13   -1    0    0    0    0  0.00000000000E+00  0.00000000000E+00  0.74505805969E-08  0.10566000000E+00  0.10566000000E+00 0.  1.
     999900   -1    0    0    0    0 -0.00000000000E+00 -0.00000000000E+00 -0.74505805969E-08  0.93827000000E+00  0.93827000000E+00 0.  1.
     999902    2    1    2    0    0  0.18563149478E-01 -0.14911081551E-01  0.48548530641E-02  0.10196297846E+01  0.10193401773E+01 0.  0.
     999903    2    3    3    0    0  0.12980071376E+00 -0.17818249576E-01  0.73131794985E-02  0.13261891051E+00  0.19198372881E-01 0.  0.
         14    1    1    2    0    0 -0.18563149478E-01  0.14911081551E-01 -0.48548530641E-02  0.24300215428E-01  0.00000000000E+00 0. -1.
     999901    1    3    3    0    0 -0.11123756428E+00  0.29071680246E-02 -0.24583264344E-02  0.88701087406E+00  0.88000000000E+00 0. -1.
        -11    1    4    4    0    0  0.23825772049E-01 -0.82920650537E-02 -0.42533375221E-02  0.25588625552E-01  0.51100000000E-03 0.  1.
         11    1    4    4    0    0  0.10597494171E+00 -0.95261845221E-02  0.11566517021E-01  0.10703028496E+00  0.51100000000E-03 0. -1.
</event>
<event>
 8    1  0.1126414E+005  0.1043930E+01  0.7957747E-01            NaN
         13   -1    0    0    0    0  0.00000000000E+00  0.00000000000E+00  0.74505805969E-08  0.10566000000E+00  0.10566000000E+00 0. -1.
     999900   -1    0    0    0    0 -0.00000000000E+00 -0.00000000000E+00 -0.74505805969E-08  0.93827000000E+00  0.93827000000E+00 0. -1.
     999902    2    1    2    0    0 -0.19679445139E-01  0.11750525292E-01  0.82786038815E-02  0.10195601275E+01  0.10192688374E+01 0.  0.
     999903    2    3    3    0    0  0.46413943998E-01 -0.99531932576E-01  0.63454340734E-01  0.12838310607E+00  0.19872311527E-01 0.  0.
         14    1    1    2    0    0  0.19679445139E-01 -0.11750525292E-01 -0.82786038815E-02  0.24369872544E-01  0.00000000000E+00 0.  1.
     999901    1    3    3    0    0 -0.66093389136E-01  0.11128245787E+00 -0.55175736853E-01  0.89117702139E+00  0.88000000000E+00 0. -1.
        -11    1    4    4    0    0  0.91093659269E-02 -0.36334102895E-01  0.28639925321E-01  0.47155636187E-01  0.51100000000E-03 0.  1.
         11    1    4    4    0    0  0.37304578071E-01 -0.63197829681E-01  0.34814415413E-01  0.81227469879E-01  0.51100000000E-03 0. -1.
</event>
<event>
 8    1  0.1126414E+005  0.1043930E+01  0.7957747E-01            NaN
         13   -1    0    0    0    0  0.00000000000E+00  0.00000000000E+00  0.74505805969E-08  0.10566000000E+00  0.10566000000E+00 0. -1.
     999900   -1    0    0    0    0 -0.00000000000E+00 -0.00000000000E+00 -0.74505805969E-08  0.93827000000E+00  0.93827000000E+00 0. -1.
     999902    2    1    2    0    0 -0.18207209281E-02  0.22399378322E-01 -0.66398248927E-02  0.10204963821E+01  0.10202272940E+01 0.  0.
     999903    2    3    3    0    0 -0.66635909141E-01  0.10113486742E-01  0.10976482134E+00  0.13038290987E+00  0.20217818390E-01 0.  0.
         14    1    1    2    0    0  0.18207209281E-02 -0.22399378322E-01  0.66398248927E-02  0.23433617913E-01  0.00000000000E+00 0. -1.
     999901    1    3    3    0    0  0.64815188213E-01  0.12285891579E-01 -0.11640464624E+00  0.89011347222E+00  0.88000000000E+00 0. -1.
        -11    1    4    4    0    0 -0.65663926647E-02 -0.50291889098E-02  0.10556855483E-01  0.13420826070E-01  0.51100000000E-03 0.  1.
         11    1    4    4    0    0 -0.60069516476E-01  0.15142675652E-01  0.99207965861E-01  0.11696208380E+00  0.51100000000E-03 0. -1.
</event>
<event>
 8    1  0.1126414E+005  0.1043930E+01  0.7957747E-01            NaN
         13   -1    0    0    0    0  0.00000000000E+00  0.00000000000E+00  0.74505805969E-08  0.10566000000E+00  0.10566000000E+00 0.  1.
     999900   -1    0    0    0    0 -0.00000000000E+00 -0.00000000000E+00 -0.74505805969E-08  0.93827000000E+00  0.93827000000E+00 0.  1.
     999902    2    1    2    0    0 -0.21111412020E-01 -0.10047260294E-01  0.21296112950E-02  0.10204528962E+01  0.10201827969E+01 0.  0.
     999903    2    3    3    0    0 -0.12994162614E+00 -0.18574542788E-01 -0.15682004292E-01  0.13352900790E+00  0.18821021405E-01 0.  0.
         14    1    1    2    0    0  0.21111412020E-01  0.10047260294E-01 -0.21296112950E-02  0.23477103765E-01  0.00000000000E+00 0. -1.
     999901    1    3    3    0    0  0.10883021412E+00  0.85272824942E-02  0.17811615586E-01  0.88692388834E+00  0.88000000000E+00 0. -1.
        -11    1    4    4    0    0 -0.79420055171E-01 -0.19438086145E-01 -0.14100697241E-01  0.82972737330E-01  0.51100000000E-03 0. -1.
         11    1    4    4    0    0 -0.50521570974E-01  0.86354335652E-03 -0.15813070507E-02  0.50556270568E-01  0.51100000000E-03 0.  1.
</event>
<event>
 8    1  0.1126414E+005  0.1043930E+01  0.7957747E-01            NaN
         13   -1    0    0    0    0  0.00000000000E+00  0.00000000000E+00  0.74505805969E-08  0.10566000000E+00  0.10566000000E+00 0. -1.
     999900   -1    0    0    0    0 -0.00000000000E+00 -0.00000000000E+00 -0.74505805969E-08  0.93827000000E+00  0.93827000000E+00 0.  1.
     999902    2    1    2    0    0  0.41699414408E-02  0.17253872488E-01  0.15716631704E-01  0.10202214142E+01  0.10199458991E+01 0.  0.
     999903    2    3    3    0    0  0.43561367260E-01 -0.48914896244E-01  0.11304851532E+00  0.13151252716E+00  0.15010602599E-01 0.  0.
         14    1    1    2    0    0 -0.41699414408E-02 -0.17253872488E-01 -0.15716631704E-01  0.23708585777E-01  0.00000000000E+00 0.  1.
     999901    1    3    3    0    0 -0.39391425819E-01  0.66168768732E-01 -0.97331883617E-01  0.88870888707E+00  0.88000000000E+00 0.  1.
        -11    1    4    4    0    0  0.36638570123E-01 -0.47620824364E-01  0.10265640261E+00  0.11894841677E+00  0.51100000000E-03 0.  1.
         11    1    4    4    0    0  0.69227971371E-02 -0.12940718804E-02  0.10392112709E-01  0.12564110386E-01  0.51100000000E-03 0. -1.
</event>
<event>
 8    1  0.1126414E+005  0.1043930E+01  0.7957747E-01            NaN
         13   -1    0    0    0    0  0.00000000000E+00  0.00000000000E+00  0.74505805969E-08  0.10566000000E+00  0.10566000000E+00 0. -1.
     999900   -1    0    0    0    0 -0.00000000000E+00 -0.00000000000E+00 -0.74505805969E-08  0.93827000000E+00  0.93827000000E+00 0.  1.
     999902    2    1    2    0    0 -0.17564423133E-01  0.11754769320E-01  0.11162572881E-01  0.10200283976E+01  0.10197483245E+01 0.  0.
     999903    2    3    3    0    0 -0.70283068177E-01  0.10547949892E+00 -0.32323946926E-01  0.13241662560E+00  0.20583751482E-01 0.  0.
         14    1    1    2    0    0  0.17564423133E-01 -0.11754769320E-01 -0.11162572881E-01  0.23901602354E-01  0.00000000000E+00 0.  1.
     999901    1    3    3    0    0  0.52718645045E-01 -0.93724729600E-01  0.43486519807E-01  0.88761177205E+00  0.88000000000E+00 0.  1.
        -11    1    4    4    0    0  0.37830723252E-03  0.76914061251E-02 -0.11127984712E-02  0.77974538140E-02  0.51100000000E-03 0.  1.
         11    1    4    4    0    0 -0.70661375410E-01  0.97788092795E-01 -0.31211148454E-01  0.12461917178E+00  0.51100000000E-03 0. -1.
</event>
<event>
 8    1  0.1126414E+005  0.1043930E+01  0.7957747E-01            NaN
         13   -1    0    0    0    0  0.00000000000E+00  0.00000000000E+00  0.74505805969E-08  0.10566000000E+00  0.10566000000E+00 0. -1.
     999900   -1    0    0    0    0 -0.00000000000E+00 -0.00000000000E+00 -0.74505805969E-08  0.93827000000E+00  0.93827000000E+00 0. -1.
     999902    2    1    2    0    0  0.16070981576E-01 -0.13306122975E-01 -0.11693104457E-01  0.10200122650E+01  0.10197318092E+01 0.  0.
     999903    2    3    3    0    0  0.68055045288E-01 -0.10777985829E+00  0.30105858362E-01  0.13244548841E+00  0.19683944001E-01 0.  0.
         14    1    1    2    0    0 -0.16070981576E-01  0.13306122975E-01  0.11693104457E-01  0.23917735036E-01  0.00000000000E+00 0. -1.
     999901    1    3    3    0    0 -0.51984063713E-01  0.94473735313E-01 -0.41798962818E-01  0.88756677655E+00  0.88000000000E+00 0. -1.
        -11    1    4    4    0    0  0.45531460949E-01 -0.66016946148E-01  0.28006298547E-01  0.84946836281E-01  0.51100000000E-03 0. -1.
         11    1    4    4    0    0  0.22523584339E-01 -0.41762912140E-01  0.20995598145E-02  0.47498652132E-01  0.51100000000E-03 0.  1.
</event>
<event>
 8    1  0.1126414E+005  0.1043930E+01  0.7957747E-01            NaN
         13   -1    0    0    0    0  0.00000000000E+00  0.00000000000E+00  0.74505805969E-08  0.10566000000E+00  0.10566000000E+00 0. -1.
     999900   -1    0    0    0    0 -0.00000000000E+00 -0.00000000000E+00 -0.74505805969E-08  0.93827000000E+00  0.93827000000E+00 0. -1.
     999902    2    1    2    0    0 -0.11550460068E-01  0.54147455205E-02 -0.16211294770E-01  0.10233014112E+01  0.10230934657E+01 0.  0.
     999903    2    3    3    0    0 -0.11685366726E+00  0.25724285161E-01  0.56792346423E-01  0.13378987421E+00  0.18916697168E-01 0.  0.
         14    1    1    2    0    0  0.11550460068E-01 -0.54147455205E-02  0.16211294770E-01  0.20628588778E-01  0.00000000000E+00 0. -1.
     999901    1    3    3    0    0  0.10530320719E+00 -0.20309539640E-01 -0.73003641194E-01  0.88951153701E+00  0.88000000000E+00 0. -1.
        -11    1    4    4    0    0 -0.73888340969E-01  0.15052797108E-01  0.25612594722E-01  0.79638808136E-01  0.51100000000E-03 0.  1.
         11    1    4    4    0    0 -0.42965326286E-01  0.10671488053E-01  0.31179751702E-01  0.54151066077E-01  0.51100000000E-03 0. -1.
</event>
<event>
 8    1  0.1126414E+005  0.1043930E+01  0.7957747E-01            NaN
         13   -1    0    0    0    0  0.00000000000E+00  0.00000000000E+00  0.74505805969E-08  0.10566000000E+00  0.10566000000E+00 0. -1.
     999900   -1    0    0    0    0 -0.00000000000E+00 -0.00000000000E+00 -0.74505805969E-08  0.93827000000E+00  0.93827000000E+00 0.  1.
     999902    2    1    2    0    0 -0.74740705853E-02  0.92867352711E-02  0.20413080295E-01  0.10202910696E+01  0.10200171899E+01 0.  0.
     999903    2    3    3    0    0 -0.14922671836E-01  0.11106718679E+00  0.68959024329E-01  0.13306423804E+00  0.19802481956E-01 0.  0.
         14    1    1    2    0    0  0.74740705853E-02 -0.92867352711E-02 -0.20413080295E-01  0.23638930395E-01  0.00000000000E+00 0.  1.
     999901    1    3    3    0    0  0.74486012507E-02 -0.10178045152E+00 -0.48545944035E-01  0.88722683157E+00  0.88000000000E+00 0.  1.
        -11    1    4    4    0    0  0.41981681326E-02  0.39213912079E-01  0.23345099059E-01  0.45832415246E-01  0.51100000000E-03 0.  1.
         11    1    4    4    0    0 -0.19120839969E-01  0.71853274711E-01  0.45613925270E-01  0.87231822790E-01  0.51100000000E-03 0. -1.
</event>
<event>
 8    1  0.1126414E+005  0.1043930E+01  0.7957747E-01            NaN
         13   -1    0    0    0    0  0.00000000000E+00  0.00000000000E+00  0.74505805969E-08  0.10566000000E+00  0.10566000000E+00 0. -1.
     999900   -1    0    0    0    0 -0.00000000000E+00 -0.00000000000E+00 -0.74505805969E-08  0.93827000000E+00  0.93827000000E+00 0. -1.
     999902    2    1    2    0    0  0.14434580411E-01 -0.14533749699E-01  0.14118338691E-01  0.10190520081E+01  0.10187482912E+01 0.  0.
     999903    2    3    3    0    0  0.12893787767E-01 -0.11628368320E+00  0.58023584463E-01  0.13210043470E+00  0.19890795697E-01 0.  0.
         14    1    1    2    0    0 -0.14434580411E-01  0.14533749699E-01 -0.14118338691E-01  0.24877991867E-01  0.00000000000E+00 0.  1.
     999901    1    3    3    0    0  0.15407926437E-02  0.10174993350E+00 -0.43905245772E-01  0.88695157343E+00  0.88000000000E+00 0.  1.
        -11    1    4    4    0    0  0.63881679401E-02 -0.41927803876E-01  0.10777504852E-01  0.43762600007E-01  0.51100000000E-03 0.  1.
         11    1    4    4    0    0  0.65056198273E-02 -0.74355879320E-01  0.47246079611E-01  0.88337834693E-01  0.51100000000E-03 0. -1.
</event>
<event>
 8    1  0.1126414E+005  0.1043930E+01  0.7957747E-01            NaN
         13   -1    0    0    0    0  0.00000000000E+00  0.00000000000E+00  0.74505805969E-08  0.10566000000E+00  0.10566000000E+00 0. -1.
     999900   -1    0    0    0    0 -0.00000000000E+00 -0.00000000000E+00 -0.74505805969E-08  0.93827000000E+00  0.93827000000E+00 0.  1.
     999902    2    1    2    0    0 -0.18298486440E-01 -0.12231067120E-01  0.70976981355E-02  0.10208040205E+01  0.10205420312E+01 0.  0.
     999903    2    3    3    0    0 -0.96683328271E-01  0.41496973703E-01  0.78413976021E-01  0.13281928117E+00  0.20555899947E-01 0.  0.
         14    1    1    2    0    0  0.18298486440E-01  0.12231067120E-01 -0.70976981355E-02  0.23125979497E-01  0.00000000000E+00 0. -1.
     999901    1    3    3    0    0  0.78384841831E-01 -0.53728040823E-01 -0.71316277886E-01  0.88798473933E+00  0.88000000000E+00 0.  1.
        -11    1    4    4    0    0 -0.39947805478E-01  0.13818836212E-01  0.19822774301E-01  0.46690372656E-01  0.51100000000E-03 0. -1.
         11    1    4    4    0    0 -0.56735522793E-01  0.27678137491E-01  0.58591201720E-01  0.86128908512E-01  0.51100000000E-03 0.  1.
</event>
<event>
 8    1  0.1126414E+005  0.1043930E+01  0.7957747E-01            NaN
         13   -1    0    0    0    0  0.00000000000E+00  0.00000000000E+00  0.74505805969E-08  0.10566000000E+00  0.10566000000E+00 0. -1.
     999900   -1    0    0    0    0 -0.00000000000E+00 -0.00000000000E+00 -0.74505805969E-08  0.93827000000E+00  0.93827000000E+00 0.  1.
     999902    2    1    2    0    0 -0.19535644392E-01  0.30424525327E-02  0.18199568883E-01  0.10170576680E+01  0.10167026005E+01 0.  0.
     999903    2    3    3    0    0 -0.19272062634E-02 -0.18326464536E-01 -0.12261068361E+00  0.12543318712E+00  0.18987660941E-01 0.  0.
         14    1    1    2    0    0  0.19535644392E-01 -0.30424525327E-02 -0.18199568883E-01  0.26872331993E-01  0.00000000000E+00 0.  1.
     999901    1    3    3    0    0 -0.17608438129E-01  0.21368917069E-01  0.14081025250E+00  0.89162448089E+00  0.88000000000E+00 0. -1.
        -11    1    4    4    0    0  0.76252593508E-02 -0.28769924699E-02 -0.32656502442E-01  0.33661995463E-01  0.51100000000E-03 0. -1.
         11    1    4    4    0    0 -0.95524656142E-02 -0.15449472066E-01 -0.89954181173E-01  0.91771191656E-01  0.51100000000E-03 0.  1.
</event>
<event>
 8    1  0.1126414E+005  0.1043930E+01  0.7957747E-01            NaN
         13   -1    0    0    0    0  0.00000000000E+00  0.00000000000E+00  0.74505805969E-08  0.10566000000E+00  0.10566000000E+00 0.  1.
     999900   -1    0    0    0    0 -0.00000000000E+00 -0.00000000000E+00 -0.74505805969E-08  0.93827000000E+00  0.93827000000E+00 0. -1.
     999902    2    1    2    0    0 -0.22229057604E-01  0.47094291587E-02 -0.51343685822E-02  0.10206346900E+01  0.10203688054E+01 0.  0.
     999903    2    3    3    0    0  0.24462279894E-02  0.11808430523E+00  0.53228338490E-01  0.13110170144E+00  0.20112506831E-01 0.  0.
         14    1    1    2    0    0  0.22229057604E-01 -0.47094291587E-02  0.51343685822E-02  0.23295309950E-01  0.00000000000E+00 0.  1.
     999901    1    3    3    0    0 -0.24675285593E-01 -0.11337487607E+00 -0.58362707072E-01  0.88953298861E+00  0.88000000000E+00 0.  1.
        -11    1    4    4    0    0 -0.79799721947E-02  0.36829501122E-01  0.20320110763E-01  0.42816587108E-01  0.51100000000E-03 0.  1.
         11    1    4    4    0    0  0.10426200184E-01  0.81254804103E-01  0.32908227727E-01  0.88285114335E-01  0.51100000000E-03 0. -1.
</event>
<event>
 8    1  0.1126414E+005  0.1043930E+01  0.7957747E-01            NaN
         13   -1    0    0    0    0  0.00000000000E+00  0.00000000000E+00  0.74505805969E-08  0.10566000000E+00  0.10566000000E+00 0. -1.
     999900   -1    0    0    0    0 -0.00000000000E+00 -0.00000000000E+00 -0.74505805969E-08  0.93827000000E+00  0.93827000000E+00 0. -1.
     999902    2    1    2    0    0 -0.18365771431E-01  0.15688149650E-01  0.79177652130E-03  0.10197629458E+01  0.10194765417E+01 0.  0.
     999903    2    3    3    0    0 -0.41100114770E-01 -0.12015417689E+00 -0.97979608000E-02  0.12898680635E+00  0.20380150096E-01 0.  0.
         14    1    1    2    0    0  0.18365771431E-01 -0.15688149650E-01 -0.79177652130E-03  0.24167054222E-01  0.00000000000E+00 0. -1.
     999901    1    3    3    0    0  0.22734343339E-01  0.13584232654E+00  0.10589737321E-01  0.89077613943E+00  0.88000000000E+00 0.  1.
        -11    1    4    4    0    0 -0.10549137736E-01 -0.59220276897E-01 -0.24666483596E-03  0.60155194848E-01  0.51100000000E-03 0.  1.
         11    1    4    4    0    0 -0.30550977034E-01 -0.60933899990E-01 -0.95512959640E-02  0.68831611497E-01  0.51100000000E-03 0. -1.
</event>
<event>
 8    1  0.1126414E+005  0.1043930E+01  0.7957747E-01            NaN
         13   -1    0    0    0    0  0.00000000000E+00  0.00000000000E+00  0.74505805969E-08  0.10566000000E+00  0.10566000000E+00 0. -1.
     999900   -1    0    0    0    0 -0.00000000000E+00 -0.00000000000E+00 -0.74505805969E-08  0.93827000000E+00  0.93827000000E+00 0.  1.
     999902    2    1    2    0    0  0.17034747477E-01 -0.11598721994E-01 -0.13432279670E-01  0.10193304246E+01  0.10190335497E+01 0.  0.
     999903    2    3    3    0    0 -0.26028491443E-01 -0.12643493564E+00  0.40367894204E-02  0.13065333650E+00  0.19766723336E-01 0.  0.
         14    1    1    2    0    0 -0.17034747477E-01  0.11598721994E-01  0.13432279670E-01  0.24599575416E-01  0.00000000000E+00 0. -1.
     999901    1    3    3    0    0  0.43063238920E-01  0.11483621365E+00 -0.17469069091E-01  0.88867708808E+00  0.88000000000E+00 0. -1.
        -11    1    4    4    0    0 -0.19252519308E-01 -0.10504312360E+00  0.10465559531E-01  0.10730566794E+00  0.51100000000E-03 0. -1.
         11    1    4    4    0    0 -0.67759721348E-02 -0.21391812048E-01 -0.64287701106E-02  0.23347668560E-01  0.51100000000E-03 0.  1.
</event>
<event>
 8    1  0.1126414E+005  0.1043930E+01  0.7957747E-01            NaN
         13   -1    0    0    0    0  0.00000000000E+00  0.00000000000E+00  0.74505805969E-08  0.10566000000E+00  0.10566000000E+00 0.  1.
     999900   -1    0    0    0    0 -0.00000000000E+00 -0.00000000000E+00 -0.74505805969E-08  0.93827000000E+00  0.93827000000E+00 0. -1.
     999902    2    1    2    0    0 -0.41117669718E-02  0.81689165468E-02  0.22009762992E-01  0.10200958335E+01  0.10198173572E+01 0.  0.
     999903    2    3    3    0    0 -0.65655174022E-01  0.49208784280E-01  0.10309385578E+00  0.13327764933E+00  0.20061963642E-01 0.  0.
         14    1    1    2    0    0  0.41117669718E-02 -0.81689165468E-02 -0.22009762992E-01  0.23834166487E-01  0.00000000000E+00 0. -1.
     999901    1    3    3    0    0  0.61543407050E-01 -0.41039867734E-01 -0.81084092788E-01  0.88681818418E+00  0.88000000000E+00 0. -1.
        -11    1    4    4    0    0 -0.62196106889E-02  0.13142910091E-01  0.13278028056E-01  0.19697380354E-01  0.51100000000E-03 0.  1.
         11    1    4    4    0    0 -0.59435563333E-01  0.36065874189E-01  0.89815827724E-01  0.11358026898E+00  0.51100000000E-03 0. -1.
</event>
<event>
 8    1  0.1126414E+005  0.1043930E+01  0.7957747E-01            NaN
         13   -1    0    0    0    0  0.00000000000E+00  0.00000000000E+00  0.74505805969E-08  0.10566000000E+00  0.10566000000E+00 0.  1.
     999900   -1    0    0    0    0 -0.00000000000E+00 -0.00000000000E+00 -0.74505805969E-08  0.93827000000E+00  0.93827000000E+00 0.  1.
     999902    2    1    2    0    0  0.18275156189E-01 -0.11055134577E-01  0.88343443981E-02  0.10208163033E+01  0.10205545954E+01 0.  0.
     999903    2    3    3    0    0  0.39877444126E-01 -0.77368314333E-01  0.99153507637E-01  0.13344848334E+00  0.20025309385E-01 0.  0.
         14    1    1    2    0    0 -0.18275156189E-01  0.11055134577E-01 -0.88343443981E-02  0.23113696701E-01  0.00000000000E+00 0. -1.
     999901    1    3    3    0    0 -0.21602287938E-01  0.66313179756E-01 -0.90319163239E-01  0.88736781996E+00  0.88000000000E+00 0.  1.
        -11    1    4    4    0    0  0.17796183811E-01 -0.35756345986E-01  0.60567888518E-01  0.72553088680E-01  0.51100000000E-03 0.  1.
         11    1    4    4    0    0  0.22081260316E-01 -0.41611968347E-01  0.38585619118E-01  0.60895394658E-01  0.51100000000E-03 0. -1.
</event>
<event>
 8    1  0.1126414E+005  0.1043930E+01  0.7957747E-01            NaN
         13   -1    0    0    0    0  0.00000000000E+00  0.00000000000E+00  0.74505805969E-08  0.10566000000E+00  0.10566000000E+00 0.  1.
     999900   -1    0    0    0    0 -0.00000000000E+00 -0.00000000000E+00 -0.74505805969E-08  0.93827000000E+00  0.93827000000E+00 0.  1.
     999902    2    1    2    0    0  0.18062981471E-01  0.14725782798E-01 -0.30392348263E-02  0.10204277251E+01  0.10201570395E+01 0.  0.
     999903    2    3    3    0    0  0.14818397533E-01  0.57000030624E-01 -0.11689533785E+00  0.13208046664E+00  0.17667519966E-01 0.  0.
         14    1    1    2    0    0 -0.18062981471E-01 -0.14725782798E-01  0.30392348263E-02  0.23502274932E-01  0.00000000000E+00 0. -1.
     999901    1    3    3    0    0  0.32445839382E-02 -0.42274247826E-01  0.11385610302E+00  0.88834725842E+00  0.88000000000E+00 0. -1.
        -11    1    4    4    0    0  0.30514891476E-02  0.39965720064E-01 -0.67276533070E-01  0.78313238914E-01  0.51100000000E-03 0.  1.
         11    1    4    4    0    0  0.11766908386E-01  0.17034310560E-01 -0.49618804778E-01  0.53767227730E-01  0.51100000000E-03 0. -1.
</event>
<event>
 8    1  0.1126414E+005  0.1043930E+01  0.7957747E-01            NaN
         13   -1    0    0    0    0  0.00000000000E+00  0.00000000000E+00  0.74505805969E-08  0.10566000000E+00  0.10566000000E+00 0. -1.
     999900   -1    0    0    0    0 -0.00000000000E+00 -0.00000000000E+00 -0.74505805969E-08  0.93827000000E+00  0.93827000000E+00 0.  1.
     999902    2    1    2    0    0  0.14997535871E-01 -0.14813255120E-01 -0.16681247929E-01  0.10170483586E+01  0.10166930418E+01 0.  0.
     999903    2    3    3    0    0  0.87298071432E-01  0.90273237626E-02  0.89759448657E-01  0.12737124725E+00  0.21546000873E-01 0.  0.
         14    1    1    2    0    0 -0.14997535871E-01  0.14813255120E-01  0.16681247929E-01  0.26881641355E-01  0.00000000000E+00 0. -1.
     999901    1    3    3    0    0 -0.72300535562E-01 -0.23840578883E-01 -0.10644069659E+00  0.88967711139E+00  0.88000000000E+00 0.  1.
        -11    1    4    4    0    0  0.69295127359E-01  0.11623797025E-01  0.80832278280E-01  0.10710296759E+00  0.51100000000E-03 0.  1.
         11    1    4    4    0    0  0.18002944074E-01 -0.25964732624E-02  0.89271703773E-02  0.20268279667E-01  0.51100000000E-03 0. -1.
</event>
<event>
 8    1  0.1126414E+005  0.1043930E+01  0.7957747E-01            NaN
         13   -1    0    0    0    0  0.00000000000E+00  0.00000000000E+00  0.74505805969E-08  0.10566000000E+00  0.10566000000E+00 0.  1.
     999900   -1    0    0    0    0 -0.00000000000E+00 -0.00000000000E+00 -0.74505805969E-08  0.93827000000E+00  0.93827000000E+00 0. -1.
     999902    2    1    2    0    0 -0.32868101235E-02 -0.21606483471E-01  0.92422948522E-02  0.10202010459E+01  0.10199250516E+01 0.  0.
     999903    2    3    3    0    0 -0.14773445743E-01 -0.82604479245E-01 -0.99179745445E-01  0.13137708295E+00  0.19533594828E-01 0.  0.
         14    1    1    2    0    0  0.32868101235E-02  0.21606483471E-01 -0.92422948522E-02  0.23728954105E-01  0.00000000000E+00 0. -1.
     999901    1    3    3    0    0  0.11486635620E-01  0.60997995774E-01  0.10842204030E+00  0.88882396295E+00  0.88000000000E+00 0.  1.
        -11    1    4    4    0    0 -0.51665846712E-02 -0.66888070594E-01 -0.70782539245E-01  0.97525056103E-01  0.51100000000E-03 0.  1.
         11    1    4    4    0    0 -0.96068610723E-02 -0.15716408652E-01 -0.28397206200E-01  0.33852026845E-01  0.51100000000E-03 0. -1.
</event>
<event>
 8    1  0.1126414E+005  0.1043930E+01  0.7957747E-01            NaN
         13   -1    0    0    0    0  0.00000000000E+00  0.00000000000E+00  0.74505805969E-08  0.10566000000E+00  0.10566000000E+00 0.  1.
     999900   -1    0    0    0    0 -0.00000000000E+00 -0.00000000000E+00 -0.74505805969E-08  0.93827000000E+00  0.93827000000E+00 0. -1.
     999902    2    1    2    0    0  0.32451734842E-02  0.15100288208E-01  0.18531943894E-01  0.10198056803E+01  0.10195203004E+01 0.  0.
     999903    2    3    3    0    0 -0.16449415471E-01  0.12984073777E+00  0.17418761784E-01  0.13213767552E+00  0.52679763016E-02 0.  0.
         14    1    1    2    0    0 -0.32451734842E-02 -0.15100288208E-01 -0.18531943894E-01  0.24124319667E-01  0.00000000000E+00 0. -1.
     999901    1    3    3    0    0  0.19694588956E-01 -0.11474044956E+00  0.11131821093E-02  0.88766800482E+00  0.88000000000E+00 0.  1.
        -11    1    4    4    0    0 -0.71538230719E-02  0.69411435453E-01  0.11301108057E-01  0.70690174144E-01  0.51100000000E-03 0. -1.
         11    1    4    4    0    0 -0.92955923996E-02  0.60429302319E-01  0.61176537277E-02  0.61447501373E-01  0.51100000000E-03 0.  1.
</event>
<event>
 8    1  0.1126414E+005  0.1043930E+01  0.7957747E-01            NaN
         13   -1    0    0    0    0  0.00000000000E+00  0.00000000000E+00  0.74505805969E-08  0.10566000000E+00  0.10566000000E+00 0.  1.
     999900   -1    0    0    0    0 -0.00000000000E+00 -0.00000000000E+00 -0.74505805969E-08  0.93827000000E+00  0.93827000000E+00 0.  1.
     999902    2    1    2    0    0 -0.13437310829E-02 -0.20701679580E-01 -0.13888272990E-01  0.10189650390E+01  0.10186591684E+01 0.  0.
     999903    2    3    3    0    0 -0.16963875176E-01  0.74390399218E-01  0.98946421730E-01  0.12654240332E+00  0.20022010605E-01 0.  0.
         14    1    1    2    0    0  0.13437310829E-02  0.20701679580E-01  0.13888272990E-01  0.24964960992E-01  0.00000000000E+00 0.  1.
     999901    1    3    3    0    0  0.15620144093E-01 -0.95092078798E-01 -0.11283469472E+00  0.89242263569E+00  0.88000000000E+00 0. -1.
        -11    1    4    4    0    0 -0.14920446255E-01  0.32543575190E-01  0.56573354526E-01  0.66951546404E-01  0.51100000000E-03 0. -1.
         11    1    4    4    0    0 -0.20434289209E-02  0.41846824028E-01  0.42373067204E-01  0.59590856918E-01  0.51100000000E-03 0.  1.
</event>
<event>
 8    1  0.1126414E+005  0.1043930E+01  0.7957747E-01            NaN
         13   -1    0    0    0    0  0.00000000000E+00  0.00000000000E+00  0.74505805969E-08  0.10566000000E+00  0.10566000000E+00 0. -1.
     999900   -1    0    0    0    0 -0.00000000000E+00 -0.00000000000E+00 -0.74505805969E-08  0.93827000000E+00  0.93827000000E+00 0.  1.
     999902    2    1    2    0    0  0.22325693814E-01  0.10269036347E-01 -0.13080412095E-01  0.10160914136E+01  0.10157099851E+01 0.  0.
     999903    2    3    3    0    0 -0.65627947180E-01  0.89892857469E-01 -0.57917081716E-01  0.12699854849E+00  0.19659341032E-01 0.  0.
         14    1    1    2    0    0 -0.22325693814E-01 -0.10269036347E-01  0.13080412095E-01  0.27838586393E-01  0.00000000000E+00 0.  1.
     999901    1    3    3    0    0  0.87953640994E-01 -0.79623821122E-01  0.44836669621E-01  0.88909286511E+00  0.88000000000E+00 0. -1.
        -11    1    4    4    0    0 -0.53622521074E-01  0.58250474404E-01 -0.40754285878E-01  0.89048669125E-01  0.51100000000E-03 0.  1.
         11    1    4    4    0    0 -0.12005426106E-01  0.31642383065E-01 -0.17162795838E-01  0.37949879368E-01  0.51100000000E-03 0. -1.
</event>
<event>
 8    1  0.1126414E+005  0.1043930E+01  0.7957747E-01            NaN
         13   -1    0    0    0    0  0.00000000000E+00  0.00000000000E+00  0.74505805969E-08  0.10566000000E+00  0.10566000000E+00 0. -1.
     999900   -1    0    0    0    0 -0.00000000000E+00 -0.00000000000E+00 -0.74505805969E-08  0.93827000000E+00  0.93827000000E+00 0.  1.
     999902    2    1    2    0    0 -0.20792114376E-01  0.57154413324E-02 -0.95802425357E-02  0.10203342517E+01  0.10200613834E+01 0.  0.
     999903    2    3    3    0    0 -0.36443357636E-01  0.11317366110E+00 -0.55968138157E-01  0.13244683359E+00  0.16532856908E-01 0.  0.
         14    1    1    2    0    0  0.20792114376E-01 -0.57154413324E-02  0.95802425357E-02  0.23595748280E-01  0.00000000000E+00 0. -1.
     999901    1    3    3    0    0  0.15651243260E-01 -0.10745821977E+00  0.46387895621E-01  0.88788741813E+00  0.88000000000E+00 0. -1.
        -11    1    4    4    0    0 -0.27942553396E-01  0.66451723611E-01 -0.28030827352E-01  0.77347309353E-01  0.51100000000E-03 0.  1.
         11    1    4    4    0    0 -0.85008042404E-02  0.46721937487E-01 -0.27937310805E-01  0.55099524238E-01  0.51100000000E-03 0. -1.
</event>
<event>
 8    1  0.1126414E+005  0.1043930E+01  0.7957747E-01            NaN
         13   -1    0    0    0    0  0.00000000000E+00  0.00000000000E+00  0.74505805969E-08  0.10566000000E+00  0.10566000000E+00 0.  1.
     999900   -1    0    0    0    0 -0.00000000000E+00 -0.00000000000E+00 -0.74505805969E-08  0.93827000000E+00  0.93827000000E+00 0.  1.
     999902    2    1    2    0    0  0.79349932093E-02  0.70988835195E-02  0.21235867733E-01  0.10201745724E+01  0.10198979546E+01 0.  0.
     999903    2    3    3    0    0 -0.50324726444E-01  0.91245557234E-01  0.79370271048E-01  0.13233761295E+00  0.18848715288E-01 0.  0.
         14    1    1    2    0    0 -0.79349932093E-02 -0.70988835195E-02 -0.21235867733E-01  0.23755427649E-01  0.00000000000E+00 0. -1.
     999901    1    3    3    0    0  0.58259719653E-01 -0.84146673715E-01 -0.58134403316E-01  0.88783695940E+00  0.88000000000E+00 0.  1.
        -11    1    4    4    0    0 -0.29383906162E-01  0.66452609942E-01  0.62039182241E-01  0.95543103171E-01  0.51100000000E-03 0. -1.
         11    1    4    4    0    0 -0.20940820282E-01  0.24792947292E-01  0.17331088808E-01  0.36794509778E-01  0.51100000000E-03 0.  1.
</event>
<event>
 8    1  0.1126414E+005  0.1043930E+01  0.7957747E-01            NaN
         13   -1    0    0    0    0  0.00000000000E+00  0.00000000000E+00  0.74505805969E-08  0.10566000000E+00  0.10566000000E+00 0. -1.
     999900   -1    0    0    0    0 -0.00000000000E+00 -0.00000000000E+00 -0.74505805969E-08  0.93827000000E+00  0.93827000000E+00 0. -1.
     999902    2    1    2    0    0  0.10649287661E-01  0.22697929079E-01  0.33517969168E-02  0.10186349836E+01  0.10183208689E+01 0.  0.
     999903    2    3    3    0    0  0.53904146847E-01  0.11892700605E+00 -0.62129363590E-02  0.13228149756E+00  0.20260903320E-01 0.  0.
         14    1    1    2    0    0 -0.10649287661E-01 -0.22697929079E-01 -0.33517969168E-02  0.25295016401E-01  0.00000000000E+00 0. -1.
     999901    1    3    3    0    0 -0.43254859186E-01 -0.96229076966E-01  0.95647332758E-02  0.88635348604E+00  0.88000000000E+00 0. -1.
        -11    1    4    4    0    0  0.43726596679E-01  0.82545172876E-01 -0.11550289612E-01  0.94124338687E-01  0.51100000000E-03 0.  1.
         11    1    4    4    0    0  0.10177550168E-01  0.36381833169E-01  0.53373532530E-02  0.38157158869E-01  0.51100000000E-03 0. -1.
</event>
<event>
 8    1  0.1126414E+005  0.1043930E+01  0.7957747E-01            NaN
         13   -1    0    0    0    0  0.00000000000E+00  0.00000000000E+00  0.74505805969E-08  0.10566000000E+00  0.10566000000E+00 0. -1.
     999900   -1    0    0    0    0 -0.00000000000E+00 -0.00000000000E+00 -0.74505805969E-08  0.93827000000E+00  0.93827000000E+00 0. -1.
     999902    2    1    2    0    0 -0.16908163989E-01 -0.59115187726E-02  0.14904598209E-01  0.10206280878E+01  0.10203620507E+01 0.  0.
     999903    2    3    3    0    0  0.85313294951E-02  0.12643599354E+00 -0.18940474678E-01  0.12972488275E+00  0.20272137928E-01 0.  0.
         14    1    1    2    0    0  0.16908163989E-01  0.59115187726E-02 -0.14904598209E-01  0.23301912184E-01  0.00000000000E+00 0.  1.
     999901    1    3    3    0    0 -0.25439493484E-01 -0.13234751232E+00  0.33845072887E-01  0.89090320507E+00  0.88000000000E+00 0.  1.
        -11    1    4    4    0    0  0.14980517579E-01  0.77564916388E-01 -0.13183893520E-01  0.80092498591E-01  0.51100000000E-03 0. -1.
         11    1    4    4    0    0 -0.64491880838E-02  0.48871077156E-01 -0.57565811581E-02  0.49632384155E-01  0.51100000000E-03 0.  1.
</event>
<event>
 8    1  0.1126414E+005  0.1043930E+01  0.7957747E-01            NaN
         13   -1    0    0    0    0  0.00000000000E+00  0.00000000000E+00  0.74505805969E-08  0.10566000000E+00  0.10566000000E+00 0.  1.
     999900   -1    0    0    0    0 -0.00000000000E+00 -0.00000000000E+00 -0.74505805969E-08  0.93827000000E+00  0.93827000000E+00 0. -1.
     999902    2    1    2    0    0  0.30037783788E-02 -0.23357879526E-01 -0.31319863821E-02  0.10201724210E+01  0.10198957525E+01 0.  0.
     999903    2    3    3    0    0  0.14200764038E-01  0.55995015037E-01 -0.11398155428E+00  0.12960525282E+00  0.21647712012E-01 0.  0.
         14    1    1    2    0    0 -0.30037783788E-02  0.23357879526E-01  0.31319863821E-02  0.23757578984E-01  0.00000000000E+00 0.  1.
     999901    1    3    3    0    0 -0.11196985660E-01 -0.79352894563E-01  0.11084956789E+00  0.89056716819E+00  0.88000000000E+00 0. -1.
        -11    1    4    4    0    0  0.16208226354E-01  0.28022996531E-01 -0.73931790982E-01  0.80710382076E-01  0.51100000000E-03 0.  1.
         11    1    4    4    0    0 -0.20074623153E-02  0.27972018506E-01 -0.40049763295E-01  0.48894870745E-01  0.51100000000E-03 0. -1.
</event>
<event>
 8    1  0.1126414E+005  0.1043930E+01  0.7957747E-01            NaN
         13   -1    0    0    0    0  0.00000000000E+00  0.00000000000E+00  0.74505805969E-08  0.10566000000E+00  0.10566000000E+00 0. -1.
     999900   -1    0    0    0    0 -0.00000000000E+00 -0.00000000000E+00 -0.74505805969E-08  0.93827000000E+00  0.93827000000E+00 0. -1.
     999902    2    1    2    0    0  0.22850604199E-01 -0.38388478090E-02  0.58140279029E-02  0.10200408856E+01  0.10197611086E+01 0.  0.
     999903    2    3    3    0    0 -0.10721157766E+00  0.41361060092E-01 -0.51369575114E-01  0.12750003655E+00  0.20306806697E-01 0.  0.
         14    1    1    2    0    0 -0.22850604199E-01  0.38388478090E-02 -0.58140279029E-02  0.23889114367E-01  0.00000000000E+00 0.  1.
     999901    1    3    3    0    0  0.13006218186E+00 -0.45199907901E-01  0.57183603016E-01  0.89254084908E+00  0.88000000000E+00 0.  1.
        -11    1    4    4    0    0 -0.33037691389E-01  0.31762784322E-02 -0.12606663773E-01  0.35507279388E-01  0.51100000000E-03 0.  1.
         11    1    4    4    0    0 -0.74173886266E-01  0.38184781660E-01 -0.38762911340E-01  0.91992757165E-01  0.51100000000E-03 0. -1.
</event>
<event>
 8    1  0.1126414E+005  0.1043930E+01  0.7957747E-01            NaN
         13   -1    0    0    0    0  0.00000000000E+00  0.00000000000E+00  0.74505805969E-08  0.10566000000E+00  0.10566000000E+00 0.  1.
     999900   -1    0    0    0    0 -0.00000000000E+00 -0.00000000000E+00 -0.74505805969E-08  0.93827000000E+00  0.93827000000E+00 0. -1.
     999902    2    1    2    0    0  0.20929926481E-01  0.64129086626E-02 -0.11684903881E-01  0.10191162095E+01  0.10188140774E+01 0.  0.
     999903    2    3    3    0    0  0.88142973229E-01  0.33815425140E-01 -0.91099595821E-01  0.13256379433E+00  0.19009379277E-01 0.  0.
         14    1    1    2    0    0 -0.20929926481E-01 -0.64129086626E-02  0.11684903881E-01  0.24813790495E-01  0.00000000000E+00 0.  1.
     999901    1    3    3    0    0 -0.67213046748E-01 -0.27402516478E-01  0.79414691940E-01  0.88655241518E+00  0.88000000000E+00 0.  1.
        -11    1    4    4    0    0  0.66752800012E-01  0.23613568012E-01 -0.56322277882E-01  0.90476499769E-01  0.51100000000E-03 0.  1.
         11    1    4    4    0    0  0.21390173217E-01  0.10201857128E-01 -0.34777317939E-01  0.42087294557E-01  0.51100000000E-03 0. -1.
</event>
<event>
 8    1  0.1126414E+005  0.1043930E+01  0.7957747E-01            NaN
         13   -1    0    0    0    0  0.00000000000E+00  0.00000000000E+00  0.74505805969E-08  0.10566000000E+00  0.10566000000E+00 0. -1.
     999900   -1    0    0    0    0 -0.00000000000E+00 -0.00000000000E+00 -0.74505805969E-08  0.93827000000E+00  0.93827000000E+00 0.  1.
     999902    2    1    2    0    0  0.41823239464E-02 -0.47870947215E-02 -0.14034233794E-01  0.10285232538E+01  0.10284078548E+01 0.  0.
     999903    2    3    3    0    0 -0.21845241431E-01 -0.12676189761E+00 -0.48779687311E-01  0.13905007647E+00  0.20240370875E-01 0.  0.
         14    1    1    2    0    0 -0.41823239464E-02  0.47870947215E-02  0.14034233794E-01  0.15406746174E-01  0.00000000000E+00 0. -1.
     999901    1    3    3    0    0  0.26027565377E-01  0.12197480289E+00  0.34745453517E-01  0.88947317736E+00  0.88000000000E+00 0. -1.
        -11    1    4    4    0    0 -0.14939325139E-01 -0.64710752666E-01 -0.15102416390E-01  0.68110271237E-01  0.51100000000E-03 0. -1.
         11    1    4    4    0    0 -0.69059162918E-02 -0.62051144943E-01 -0.33677270921E-01  0.70939805232E-01  0.51100000000E-03 0.  1.
</event>
<event>
 8    1  0.1126414E+005  0.1043930E+01  0.7957747E-01            NaN
         13   -1    0    0    0    0  0.00000000000E+00  0.00000000000E+00  0.74505805969E-08  0.10566000000E+00  0.10566000000E+00 0.  1.
     999900   -1    0    0    0    0 -0.00000000000E+00 -0.00000000000E+00 -0.74505805969E-08  0.93827000000E+00  0.93827000000E+00 0. -1.
     999902    2    1    2    0    0  0.23257470018E-02 -0.32412150017E-02 -0.23689519171E-01  0.10199069300E+01  0.10196239689E+01 0.  0.
     999903    2    3    3    0    0 -0.60466975821E-01 -0.11366290978E+00 -0.41404628192E-02  0.13057119906E+00  0.21358426136E-01 0.  0.
         14    1    1    2    0    0 -0.23257470018E-02  0.32412150017E-02  0.23689519171E-01  0.24023070003E-01  0.00000000000E+00 0.  1.
     999901    1    3    3    0    0  0.62792722823E-01  0.11042169478E+00 -0.19549056352E-01  0.88933573094E+00  0.88000000000E+00 0.  1.
        -11    1    4    4    0    0 -0.28664939867E-01 -0.47075166251E-01  0.82882766527E-02  0.55737839087E-01  0.51100000000E-03 0. -1.
         11    1    4    4    0    0 -0.31802035955E-01 -0.66587743529E-01 -0.12428739472E-01  0.74833359974E-01  0.51100000000E-03 0.  1.
</event>
<event>
 8    1  0.1126414E+005  0.1043930E+01  0.7957747E-01            NaN
         13   -1    0    0    0    0  0.00000000000E+00  0.00000000000E+00  0.74505805969E-08  0.10566000000E+00  0.10566000000E+00 0. -1.
     999900   -1    0    0    0    0 -0.00000000000E+00 -0.00000000000E+00 -0.74505805969E-08  0.93827000000E+00  0.93827000000E+00 0. -1.
     999902    2    1    2    0    0  0.46818807258E-02  0.19080601256E-01  0.14225135394E-01  0.10196742001E+01  0.10193856633E+01 0.  0.
     999903    2    3    3    0    0  0.22171203589E-01 -0.12238317746E+00 -0.19983590076E-01  0.12754858451E+00  0.20002328482E-01 0.  0.
         14    1    1    2    0    0 -0.46818807258E-02 -0.19080601256E-01 -0.14225135394E-01  0.24255799892E-01  0.00000000000E+00 0.  1.
     999901    1    3    3    0    0 -0.17489322863E-01  0.14146377872E+00  0.34208725470E-01  0.89212561560E+00  0.88000000000E+00 0. -1.
        -11    1    4    4    0    0  0.22349938996E-01 -0.70064616964E-01 -0.14267534995E-01  0.74915912858E-01  0.51100000000E-03 0.  1.
         11    1    4    4    0    0 -0.17873540734E-03 -0.52318560497E-01 -0.57160550814E-02  0.52632671655E-01  0.51100000000E-03 0. -1.
</event>
<event>
 8    1  0.1126414E+005  0.1043930E+01  0.7957747E-01            NaN
         13   -1    0    0    0    0  0.00000000000E+00  0.00000000000E+00  0.74505805969E-08  0.10566000000E+00  0.10566000000E+00 0. -1.
     999900   -1    0    0    0    0 -0.00000000000E+00 -0.00000000000E+00 -0.74505805969E-08  0.93827000000E+00  0.93827000000E+00 0.  1.
     999902    2    1    2    0    0 -0.12276200888E-01 -0.18644228347E-01  0.63865345737E-02  0.10207114690E+01  0.10204473542E+01 0.  0.
     999903    2    3    3    0    0  0.92838680786E-01 -0.20843963529E-01 -0.85797248873E-01  0.12967172401E+00  0.20002415551E-01 0.  0.
         14    1    1    2    0    0  0.12276200888E-01  0.18644228347E-01 -0.63865345737E-02  0.23218531021E-01  0.00000000000E+00 0.  1.
     999901    1    3    3    0    0 -0.10511488167E+00  0.21997351818E-02  0.92183783446E-01  0.89103974497E+00  0.88000000000E+00 0. -1.
        -11    1    4    4    0    0  0.36905587223E-01 -0.18306924136E-01 -0.38136859230E-01  0.56141312707E-01  0.51100000000E-03 0.  1.
         11    1    4    4    0    0  0.55933093563E-01 -0.25370393932E-02 -0.47660389643E-01  0.73530411303E-01  0.51100000000E-03 0. -1.
</event>
<event>
 8    1  0.1126414E+005  0.1043930E+01  0.7957747E-01            NaN
         13   -1    0    0    0    0  0.00000000000E+00  0.00000000000E+00  0.74505805969E-08  0.10566000000E+00  0.10566000000E+00 0.  1.
     999900   -1    0    0    0    0 -0.00000000000E+00 -0.00000000000E+00 -0.74505805969E-08  0.93827000000E+00  0.93827000000E+00 0. -1.
     999902    2    1    2    0    0 -0.12958160485E-01 -0.16080517562E-01 -0.14228114317E-01  0.10188513995E+01  0.10185427031E+01 0.  0.
     999903    2    3    3    0    0 -0.89279969547E-01  0.85556447651E-01  0.29189308048E-01  0.12866031671E+00  0.20264320730E-01 0.  0.
         14    1    1    2    0    0  0.12958160485E-01  0.16080517562E-01  0.14228114317E-01  0.25078600544E-01  0.00000000000E+00 0.  1.
     999901    1    3    3    0    0  0.76321809062E-01 -0.10163696521E+00 -0.43417422365E-01  0.89019108275E+00  0.88000000000E+00 0.  1.
        -11    1    4    4    0    0 -0.33528311271E-01  0.40136635738E-01  0.20699821527E-01  0.56248030341E-01  0.51100000000E-03 0. -1.
         11    1    4    4    0    0 -0.55751658276E-01  0.45419811913E-01  0.84894865211E-02  0.72412286369E-01  0.51100000000E-03 0.  1.
</event>
<event>
 8    1  0.1126414E+005  0.1043930E+01  0.7957747E-01            NaN
         13   -1    0    0    0    0  0.00000000000E+00  0.00000000000E+00  0.74505805969E-08  0.10566000000E+00  0.10566000000E+00 0.  1.
     999900   -1    0    0    0    0 -0.00000000000E+00 -0.00000000000E+00 -0.74505805969E-08  0.93827000000E+00  0.93827000000E+00 0. -1.
     999902    2    1    2    0    0  0.76832140062E-03  0.19711340390E-01  0.16529269418E-01  0.10181939551E+01  0.10178686488E+01 0.  0.
     999903    2    3    3    0    0  0.27960312008E-01  0.51531497225E-01  0.11608079828E+00  0.13159233455E+00  0.20112596270E-01 0.  0.
         14    1    1    2    0    0 -0.76832140062E-03 -0.19711340390E-01 -0.16529269418E-01  0.25736044864E-01  0.00000000000E+00 0. -1.
     999901    1    3    3    0    0 -0.27191990607E-01 -0.31820156835E-01 -0.99551528861E-01  0.88660162059E+00  0.88000000000E+00 0. -1.
        -11    1    4    4    0    0  0.90178064617E-03  0.15275525040E-01  0.18358934038E-01  0.23905364536E-01  0.51100000000E-03 0.  1.
         11    1    4    4    0    0  0.27058531362E-01  0.36255972185E-01  0.97721864240E-01  0.10768697001E+00  0.51100000000E-03 0. -1.
</event>
<event>
 8    1  0.1126414E+005  0.1043930E+01  0.7957747E-01            NaN
         13   -1    0    0    0    0  0.00000000000E+00  0.00000000000E+00  0.74505805969E-08  0.10566000000E+00  0.10566000000E+00 0. -1.
     999900   -1    0    0    0    0 -0.00000000000E+00 -0.00000000000E+00 -0.74505805969E-08  0.93827000000E+00  0.93827000000E+00 0. -1.
     999902    2    1    2    0    0  0.14350894492E-01 -0.10190740329E-01 -0.97750573136E-02  0.10237966668E+01  0.10235986830E+01 0.  0.
     999903    2    3    3    0    0  0.72591529952E-01 -0.80100499283E-01 -0.80684770486E-01  0.13626777517E+00  0.19319786622E-01 0.  0.
         14    1    1    2    0    0 -0.14350894492E-01  0.10190740329E-01  0.97750573136E-02  0.20133333223E-01  0.00000000000E+00 0. -1.
     999901    1    3    3    0    0 -0.58240635460E-01  0.69909758954E-01  0.70909713172E-01  0.88752889161E+00  0.88000000000E+00 0.  1.
        -11    1    4    4    0    0  0.64261429930E-01 -0.71884019389E-01 -0.78541035257E-01  0.12436156545E+00  0.51100000000E-03 0. -1.
         11    1    4    4    0    0  0.83301000222E-02 -0.82164798943E-02 -0.21437352289E-02  0.11906209723E-01  0.51100000000E-03 0.  1.
</event>
<event>
 8    1  0.1126414E+005  0.1043930E+01  0.7957747E-01            NaN
         13   -1    0    0    0    0  0.00000000000E+00  0.00000000000E+00  0.74505805969E-08  0.10566000000E+00  0.10566000000E+00 0. -1.
     999900   -1    0    0    0    0 -0.00000000000E+00 -0.00000000000E+00 -0.74505805969E-08  0.93827000000E+00  0.93827000000E+00 0. -1.
     999902    2    1    2    0    0 -0.18777955779E-01  0.12618263141E-01  0.13223700278E-01  0.10177250685E+01  0.10173876432E+01 0.  0.
     999903    2    3    3    0    0 -0.11146439424E+00 -0.58159513092E-02 -0.62550558446E-01  0.12942763268E+00  0.19514181130E-01 0.  0.
         14    1    1    2    0    0  0.18777955779E-01 -0.12618263141E-01 -0.13223700278E-01  0.26204931539E-01  0.00000000000E+00 0. -1.
     999901    1    3    3    0    0  0.92686438461E-01  0.18434214450E-01  0.75774258725E-01  0.88829743579E+00  0.88000000000E+00 0.  1.
        -11    1    4    4    0    0 -0.60256175040E-01  0.65717728441E-02 -0.34108553217E-01  0.69553212379E-01  0.51100000000E-03 0. -1.
         11    1    4    4    0    0 -0.51208219200E-01 -0.12387724153E-01 -0.28442005230E-01  0.59874420297E-01  0.51100000000E-03 0.  1.
</event>
<event>
 8    1  0.1126414E+005  0.1043930E+01  0.7957747E-01            NaN
         13   -1    0    0    0    0  0.00000000000E+00  0.00000000000E+00  0.74505805969E-08  0.10566000000E+00  0.10566000000E+00 0.  1.
     999900   -1    0    0    0    0 -0.00000000000E+00 -0.00000000000E+00 -0.74505805969E-08  0.93827000000E+00  0.93827000000E+00 0. -1.
     999902    2    1    2    0    0 -0.13901318963E-02 -0.80014929343E-02  0.20004985795E-01  0.10223393582E+01  0.10221113479E+01 0.  0.
     999903    2    3    3    0    0  0.26601437713E-01 -0.12814636584E+00  0.14490146857E-01  0.13371754220E+00  0.23265622068E-01 0.  0.
         14    1    1    2    0    0  0.13901318963E-02  0.80014929343E-02 -0.20004985795E-01  0.21590641781E-01  0.00000000000E+00 0. -1.
     999901    1    3    3    0    0 -0.27991569609E-01  0.12014487290E+00  0.55148389375E-02  0.88862181602E+00  0.88000000000E+00 0.  1.
        -11    1    4    4    0    0  0.12103832764E-01 -0.92576170793E-01  0.18204909286E-01  0.95123761539E-01  0.51100000000E-03 0.  1.
         11    1    4    4    0    0  0.14497604949E-01 -0.35570195046E-01 -0.37147624285E-02  0.38593780662E-01  0.51100000000E-03 0. -1.
</event>
<event>
 8    1  0.1126414E+005  0.1043930E+01  0.7957747E-01            NaN
         13   -1    0    0    0    0  0.00000000000E+00  0.00000000000E+00  0.74505805969E-08  0.10566000000E+00  0.10566000000E+00 0.  1.
     999900   -1    0    0    0    0 -0.00000000000E+00 -0.00000000000E+00 -0.74505805969E-08  0.93827000000E+00  0.93827000000E+00 0. -1.
     999902    2    1    2    0    0  0.54565848123E-02  0.76765633937E-02  0.22183407617E-01  0.10198300515E+01  0.10195452547E+01 0.  0.
     999903    2    3    3    0    0  0.88554866289E-01  0.88547260924E-01  0.37288434094E-01  0.13209498072E+00  0.19392649456E-01 0.  0.
         14    1    1    2    0    0 -0.54565848123E-02 -0.76765633937E-02 -0.22183407617E-01  0.24099948483E-01  0.00000000000E+00 0. -1.
     999901    1    3    3    0    0 -0.83098281477E-01 -0.80870697530E-01 -0.15105026477E-01  0.88773507080E+00  0.88000000000E+00 0. -1.
        -11    1    4    4    0    0  0.31372382070E-01  0.42425559086E-01  0.98928910974E-02  0.53686914940E-01  0.51100000000E-03 0. -1.
         11    1    4    4    0    0  0.57182484219E-01  0.46121701838E-01  0.27395542997E-01  0.78408065777E-01  0.51100000000E-03 0.  1.
</event>
<event>
 8    1  0.1126414E+005  0.1043930E+01  0.7957747E-01            NaN
         13   -1    0    0    0    0  0.00000000000E+00  0.00000000000E+00  0.74505805969E-08  0.10566000000E+00  0.10566000000E+00 0.  1.
     999900   -1    0    0    0    0 -0.00000000000E+00 -0.00000000000E+00 -0.74505805969E-08  0.93827000000E+00  0.93827000000E+00 0.  1.
     999902    2    1    2    0    0 -0.15047146916E-01 -0.18183468943E-01  0.85164725492E-02  0.10188384580E+01  0.10185294390E+01 0.  0.
     999903    2    3    3    0    0  0.69606308135E-01 -0.78912065601E-01 -0.72338521728E-01  0.12901167714E+00  0.18411922341E-01 0.  0.
         14    1    1    2    0    0  0.15047146916E-01  0.18183468943E-01 -0.85164725492E-02  0.25091541957E-01  0.00000000000E+00 0. -1.
     999901    1    3    3    0    0 -0.84653455051E-01  0.60728596658E-01  0.80854994277E-01  0.88982678090E+00  0.88000000000E+00 0. -1.
        -11    1    4    4    0    0  0.17185619506E-01 -0.25453018651E-01 -0.12490131919E-01  0.33158199477E-01  0.51100000000E-03 0. -1.
         11    1    4    4    0    0  0.52420688629E-01 -0.53459046950E-01 -0.59848389809E-01  0.95853477667E-01  0.51100000000E-03 0.  1.
</event>
<event>
 8    1  0.1126414E+005  0.1043930E+01  0.7957747E-01            NaN
         13   -1    0    0    0    0  0.00000000000E+00  0.00000000000E+00  0.74505805969E-08  0.10566000000E+00  0.10566000000E+00 0. -1.
     999900   -1    0    0    0    0 -0.00000000000E+00 -0.00000000000E+00 -0.74505805969E-08  0.93827000000E+00  0.93827000000E+00 0.  1.
     999902    2    1    2    0    0 -0.17917267859E-01 -0.12464000586E-01 -0.41859996846E-02  0.10217060851E+01  0.10214643518E+01 0.  0.
     999903    2    3    3    0    0 -0.95767973783E-01 -0.68567348749E-01 -0.61932705536E-01  0.13460800707E+00  0.20264980510E-01 0.  0.
         14    1    1    2    0    0  0.17917267859E-01  0.12464000586E-01  0.41859996846E-02  0.22223914855E-01  0.00000000000E+00 0. -1.
     999901    1    3    3    0    0  0.77850705924E-01  0.56103348163E-01  0.57746705852E-01  0.88709807808E+00  0.88000000000E+00 0. -1.
        -11    1    4    4    0    0 -0.51461639370E-01 -0.24435966790E-01 -0.28835117705E-01  0.63852501390E-01  0.51100000000E-03 0.  1.
         11    1    4    4    0    0 -0.44306334413E-01 -0.44131381959E-01 -0.33097587831E-01  0.70755505680E-01  0.51100000000E-03 0. -1.
</event>
<event>
 8    1  0.1126414E+005  0.1043930E+01  0.7957747E-01            NaN
         13   -1    0    0    0    0  0.00000000000E+00  0.00000000000E+00  0.74505805969E-08  0.10566000000E+00  0.10566000000E+00 0. -1.
     999900   -1    0    0    0    0 -0.00000000000E+00 -0.00000000000E+00 -0.74505805969E-08  0.93827000000E+00  0.93827000000E+00 0.  1.
     999902    2    1    2    0    0  0.14707494149E-01  0.19737630744E-01  0.37494707915E-02  0.10190313458E+01  0.10187271179E+01 0.  0.
     999903    2    3    3    0    0  0.83287445901E-01  0.93358408419E-01 -0.37647615006E-01  0.13233131340E+00  0.21015292584E-01 0.  0.
         14    1    1    2    0    0 -0.14707494149E-01 -0.19737630744E-01 -0.37494707915E-02  0.24898654236E-01  0.00000000000E+00 0.  1.
     999901    1    3    3    0    0 -0.68579951752E-01 -0.73620777674E-01  0.41397085798E-01  0.88670003237E+00  0.88000000000E+00 0. -1.
        -11    1    4    4    0    0  0.54266102647E-01  0.63261223886E-01 -0.35107462547E-01  0.90441071375E-01  0.51100000000E-03 0. -1.
         11    1    4    4    0    0  0.29021343255E-01  0.30097184533E-01 -0.25401524595E-02  0.41890242022E-01  0.51100000000E-03 0.  1.
</event>
<event>
 8    1  0.1126414E+005  0.1043930E+01  0.7957747E-01            NaN
         13   -1    0    0    0    0  0.00000000000E+00  0.00000000000E+00  0.74505805969E-08  0.10566000000E+00  0.10566000000E+00 0.  1.
     999900   -1    0    0    0    0 -0.00000000000E+00 -0.00000000000E+00 -0.74505805969E-08  0.93827000000E+00  0.93827000000E+00 0.  1.
     999902    2    1    2    0    0  0.20229914997E-01  0.11812800401E-01 -0.22660868289E-03  0.10205026001E+01  0.10202336565E+01 0.  0.
     999903    2    3    3    0    0  0.43827790066E-01 -0.98228319455E-02 -0.12189791908E+00  0.13155441936E+00  0.20738837178E-01 0.  0.
         14    1    1    2    0    0 -0.20229914997E-01 -0.11812800401E-01  0.22660868289E-03  0.23427399890E-01  0.00000000000E+00 0.  1.
     999901    1    3    3    0    0 -0.23597875069E-01  0.21635632346E-01  0.12167131039E+00  0.88894818075E+00  0.88000000000E+00 0. -1.
        -11    1    4    4    0    0  0.35055303074E-01 -0.11357264949E-01 -0.72191319380E-01  0.81053744241E-01  0.51100000000E-03 0.  1.
         11    1    4    4    0    0  0.87724869921E-02  0.15344330039E-02 -0.49706599696E-01  0.50500675114E-01  0.51100000000E-03 0. -1.
</event>
<event>
 8    1  0.1126414E+005  0.1043930E+01  0.7957747E-01            NaN
         13   -1    0    0    0    0  0.00000000000E+00  0.00000000000E+00  0.74505805969E-08  0.10566000000E+00  0.10566000000E+00 0.  1.
     999900   -1    0    0    0    0 -0.00000000000E+00 -0.00000000000E+00 -0.74505805969E-08  0.93827000000E+00  0.93827000000E+00 0.  1.
     999902    2    1    2    0    0  0.18619744468E-01 -0.11984987919E-01 -0.10627428618E-01  0.10193683010E+01  0.10190723507E+01 0.  0.
     999903    2    3    3    0    0 -0.32291431929E-01 -0.15509331763E-02 -0.12468561786E+00  0.13048693212E+00  0.20861308294E-01 0.  0.
         14    1    1    2    0    0 -0.18619744468E-01  0.11984987919E-01  0.10627428618E-01  0.24561699015E-01  0.00000000000E+00 0.  1.
     999901    1    3    3    0    0  0.50911176397E-01 -0.10434054743E-01  0.11405818924E+00  0.88888136886E+00  0.88000000000E+00 0. -1.
        -11    1    4    4    0    0 -0.26720167138E-02 -0.79930255003E-03 -0.50817101698E-01  0.50896144293E-01  0.51100000000E-03 0.  1.
         11    1    4    4    0    0 -0.29619415215E-01 -0.75163062627E-03 -0.73868516161E-01  0.79590787828E-01  0.51100000000E-03 0. -1.
</event>
<event>
 8    1  0.1126414E+005  0.1043930E+01  0.7957747E-01            NaN
         13   -1    0    0    0    0  0.00000000000E+00  0.00000000000E+00  0.74505805969E-08  0.10566000000E+00  0.10566000000E+00 0. -1.
     999900   -1    0    0    0    0 -0.00000000000E+00 -0.00000000000E+00 -0.74505805969E-08  0.93827000000E+00  0.93827000000E+00 0. -1.
     999902    2    1    2    0    0 -0.14508157322E-01 -0.18839951583E-01 -0.83462962075E-04  0.10201510730E+01  0.10198739012E+01 0.  0.
     999903    2    3    3    0    0 -0.11050724664E+00 -0.71140221117E-01  0.97627207083E-02  0.13333198732E+00  0.20231794447E-01 0.  0.
         14    1    1    2    0    0  0.14508157322E-01  0.18839951583E-01  0.83462962075E-04  0.23778927028E-01  0.00000000000E+00 0. -1.
     999901    1    3    3    0    0  0.95999089318E-01  0.52300269533E-01 -0.98461836703E-02  0.88681908565E+00  0.88000000000E+00 0. -1.
        -11    1    4    4    0    0 -0.56146329626E-01 -0.30937310091E-01 -0.43715368948E-02  0.64256508947E-01  0.51100000000E-03 0.  1.
         11    1    4    4    0    0 -0.54360917014E-01 -0.40202911026E-01  0.14134257603E-01  0.69075478374E-01  0.51100000000E-03 0. -1.
</event>
<event>
 8    1  0.1126414E+005  0.1043930E+01  0.7957747E-01            NaN
         13   -1    0    0    0    0  0.00000000000E+00  0.00000000000E+00  0.74505805969E-08  0.10566000000E+00  0.10566000000E+00 0.  1.
     999900   -1    0    0    0    0 -0.00000000000E+00 -0.00000000000E+00 -0.74505805969E-08  0.93827000000E+00  0.93827000000E+00 0.  1.
     999902    2    1    2    0    0  0.16966808923E-01  0.13602705946E-01 -0.78884995211E-02  0.10207970227E+01  0.10205348730E+01 0.  0.
     999903    2    3    3    0    0 -0.32886478667E-01  0.14415572527E-01 -0.12506122942E+00  0.13163142526E+00  0.19929671421E-01 0.  0.
         14    1    1    2    0    0 -0.16966808923E-01 -0.13602705946E-01  0.78884995211E-02  0.23132977300E-01  0.00000000000E+00 0. -1.
     999901    1    3    3    0    0  0.49853287590E-01 -0.81286658057E-03  0.11717272990E+00  0.88916559744E+00  0.88000000000E+00 0. -1.
        -11    1    4    4    0    0 -0.12528902212E-01  0.14333723288E-01 -0.42095756782E-01  0.46203277741E-01  0.51100000000E-03 0.  1.
         11    1    4    4    0    0 -0.20357576455E-01  0.81849238188E-04 -0.82965472635E-01  0.85428147522E-01  0.51100000000E-03 0. -1.
</event>
<event>
 8    1  0.1126414E+005  0.1043930E+01  0.7957747E-01            NaN
         13   -1    0    0    0    0  0.00000000000E+00  0.00000000000E+00  0.74505805969E-08  0.10566000000E+00  0.10566000000E+00 0. -1.
     999900   -1    0    0    0    0 -0.00000000000E+00 -0.00000000000E+00 -0.74505805969E-08  0.93827000000E+00  0.93827000000E+00 0.  1.
     999902    2    1    2    0    0 -0.13271759119E-01 -0.71620282334E-02  0.10915388319E-01  0.10253133424E+01  0.10251443167E+01 0.  0.
     999903    2    3    3    0    0  0.98550277708E-01 -0.85055166204E-01  0.25232399639E-01  0.13470878049E+00  0.23732741405E-01 0.  0.
         14    1    1    2    0    0  0.13271759119E-01  0.71620282334E-02 -0.10915388319E-01  0.18616657613E-01  0.00000000000E+00 0.  1.
     999901    1    3    3    0    0 -0.11182203683E+00  0.77893137970E-01 -0.14317011320E-01  0.89060456190E+00  0.88000000000E+00 0. -1.
        -11    1    4    4    0    0  0.66270144885E-01 -0.44067232042E-01  0.91455498194E-02  0.80109645146E-01  0.51100000000E-03 0. -1.
         11    1    4    4    0    0  0.32280132823E-01 -0.40987934162E-01  0.16086849820E-01  0.54599135342E-01  0.51100000000E-03 0.  1.
</event>
<event>
 8    1  0.1126414E+005  0.1043930E+01  0.7957747E-01            NaN
         13   -1    0    0    0    0  0.00000000000E+00  0.00000000000E+00  0.74505805969E-08  0.10566000000E+00  0.10566000000E+00 0. -1.
     999900   -1    0    0    0    0 -0.00000000000E+00 -0.00000000000E+00 -0.74505805969E-08  0.93827000000E+00  0.93827000000E+00 0.  1.
     999902    2    1    2    0    0 -0.78377474556E-02 -0.20636067831E-02  0.22674225840E-01  0.10198507709E+01  0.10195664694E+01 0.  0.
     999903    2    3    3    0    0  0.66128696250E-01  0.10091577665E+00  0.45286597790E-01  0.13047621110E+00  0.20400178391E-01 0.  0.
         14    1    1    2    0    0  0.78377474556E-02  0.20636067831E-02 -0.22674225840E-01  0.24079229132E-01  0.00000000000E+00 0.  1.
     999901    1    3    3    0    0 -0.73966443706E-01 -0.10297938343E+00 -0.22612371950E-01  0.88937455977E+00  0.88000000000E+00 0.  1.
        -11    1    4    4    0    0  0.87943380558E-02  0.21216279772E-01  0.16403722025E-02  0.23030910776E-01  0.51100000000E-03 0.  1.
         11    1    4    4    0    0  0.57334358194E-01  0.79699496875E-01  0.43646225588E-01  0.10744530032E+00  0.51100000000E-03 0. -1.
</event>
<event>
 8    1  0.1126414E+005  0.1043930E+01  0.7957747E-01            NaN
         13   -1    0    0    0    0  0.00000000000E+00  0.00000000000E+00  0.74505805969E-08  0.10566000000E+00  0.10566000000E+00 0.  1.
     999900   -1    0    0    0    0 -0.00000000000E+00 -0.00000000000E+00 -0.74505805969E-08  0.93827000000E+00  0.93827000000E+00 0. -1.
     999902    2    1    2    0    0 -0.74342099990E-02  0.21701324739E-01  0.21795653107E-02  0.10208873118E+01  0.10206272277E+01 0.  0.
     999903    2    3    3    0    0 -0.12135190523E+00  0.13934976553E-01  0.48997125018E-01  0.13227635006E+00  0.13260695743E-01 0.  0.
         14    1    1    2    0    0  0.74342099990E-02 -0.21701324739E-01 -0.21795653107E-02  0.23042688183E-01  0.00000000000E+00 0.  1.
     999901    1    3    3    0    0  0.11391769523E+00  0.77663481866E-02 -0.46817559708E-01  0.88861096175E+00  0.88000000000E+00 0.  1.
        -11    1    4    4    0    0 -0.11759877645E+00  0.12359582749E-01  0.44919145423E-01  0.12649198494E+00  0.51100000000E-03 0.  1.
         11    1    4    4    0    0 -0.37531287830E-02  0.15753938042E-02  0.40779795957E-02  0.57843651236E-02  0.51100000000E-03 0. -1.
</event>
<event>
 8    1  0.1126414E+005  0.1043930E+01  0.7957747E-01            NaN
         13   -1    0    0    0    0  0.00000000000E+00  0.00000000000E+00  0.74505805969E-08  0.10566000000E+00  0.10566000000E+00 0.  1.
     999900   -1    0    0    0    0 -0.00000000000E+00 -0.00000000000E+00 -0.74505805969E-08  0.93827000000E+00  0.93827000000E+00 0. -1.
     999902    2    1    2    0    0  0.12832620586E-01  0.11611846273E-01 -0.17709152877E-01  0.10191686345E+01  0.10188677934E+01 0.  0.
     999903    2    3    3    0    0  0.10574611778E+00  0.53298243978E-01 -0.56014158992E-01  0.13246803837E+00  0.19678692652E-01 0.  0.
         14    1    1    2    0    0 -0.12832620586E-01 -0.11611846273E-01  0.17709152877E-01  0.24761365483E-01  0.00000000000E+00 0.  1.
     999901    1    3    3    0    0 -0.92913497197E-01 -0.41686397705E-01  0.38305006115E-01  0.88670059615E+00  0.88000000000E+00 0.  1.
        -11    1    4    4    0    0  0.82097982580E-01  0.31748628963E-01 -0.40012231522E-01  0.96691747203E-01  0.51100000000E-03 0.  1.
         11    1    4    4    0    0  0.23648135203E-01  0.21549615015E-01 -0.16001927470E-01  0.35776291167E-01  0.51100000000E-03 0. -1.
</event>
<event>
 8    1  0.1126414E+005  0.1043930E+01  0.7957747E-01            NaN
         13   -1    0    0    0    0  0.00000000000E+00  0.00000000000E+00  0.74505805969E-08  0.10566000000E+00  0.10566000000E+00 0. -1.
     999900   -1    0    0    0    0 -0.00000000000E+00 -0.00000000000E+00 -0.74505805969E-08  0.93827000000E+00  0.93827000000E+00 0.  1.
     999902    2    1    2    0    0  0.52195599079E-02 -0.22269173465E-01 -0.39618728755E-02  0.10207167208E+01  0.10204527269E+01 0.  0.
     999903    2    3    3    0    0 -0.81636121747E-01 -0.10203040396E+00  0.10873543827E-01  0.13272693886E+00  0.20580248709E-01 0.  0.
         14    1    1    2    0    0 -0.52195599079E-02  0.22269173465E-01  0.39618728755E-02  0.23213279155E-01  0.00000000000E+00 0. -1.
     999901    1    3    3    0    0  0.86855681655E-01  0.79761230495E-01 -0.14835416702E-01  0.88798978199E+00  0.88000000000E+00 0.  1.
        -11    1    4    4    0    0 -0.36012196849E-01 -0.61058487182E-01  0.79620610127E-02  0.71334933346E-01  0.51100000000E-03 0.  1.
         11    1    4    4    0    0 -0.45623924898E-01 -0.40971916778E-01  0.29114828141E-02  0.61392005511E-01  0.51100000000E-03 0. -1.
</event>
<event>
 8    1  0.1126414E+005  0.1043930E+01  0.7957747E-01            NaN
         13   -1    0    0    0    0  0.00000000000E+00  0.00000000000E+00  0.74505805969E-08  0.10566000000E+00  0.10566000000E+00 0.  1.
     999900   -1    0    0    0    0 -0.00000000000E+00 -0.00000000000E+00 -0.74505805969E-08  0.93827000000E+00  0.93827000000E+00 0. -1.
     999902    2    1    2    0    0 -0.91486816096E-02 -0.21512457765E-01  0.29538243353E-02  0.10203671205E+01  0.10200950207E+01 0.  0.
     999903    2    3    3    0    0  0.39734843220E-01  0.58563319607E-01  0.10635559082E+00  0.12936001923E+00  0.20346565002E-01 0.  0.
         14    1    1    2    0    0  0.91486816096E-02  0.21512457765E-01 -0.29538243353E-02  0.23562879545E-01  0.00000000000E+00 0. -1.
     999901    1    3    3    0    0 -0.48883524830E-01 -0.80075777371E-01 -0.10340176648E+00  0.89100710123E+00  0.88000000000E+00 0. -1.
        -11    1    4    4    0    0  0.31264765889E-01  0.46082346690E-01  0.96240482040E-01  0.11119154539E+00  0.51100000000E-03 0. -1.
         11    1    4    4    0    0  0.84700773308E-02  0.12480972916E-01  0.10115108780E-01  0.18168473837E-01  0.51100000000E-03 0.  1.
</event>
<event>
 8    1  0.1126414E+005  0.1043930E+01  0.7957747E-01            NaN
         13   -1    0    0    0    0  0.00000000000E+00  0.00000000000E+00  0.74505805969E-08  0.10566000000E+00  0.10566000000E+00 0. -1.
     999900   -1    0    0    0    0 -0.00000000000E+00 -0.00000000000E+00 -0.74505805969E-08  0.93827000000E+00  0.93827000000E+00 0.  1.
     999902    2    1    2    0    0 -0.19545687047E-01 -0.23508965674E-02  0.11947124808E-01  0.10209018783E+01  0.10206421267E+01 0.  0.
     999903    2    3    3    0    0  0.10240258593E+00 -0.40862474895E-01 -0.62938548322E-01  0.12851049166E+00  0.19941267296E-01 0.  0.
         14    1    1    2    0    0  0.19545687047E-01  0.23508965674E-02 -0.11947124808E-01  0.23028121677E-01  0.00000000000E+00 0. -1.
     999901    1    3    3    0    0 -0.12194827298E+00  0.38511578328E-01  0.74885673130E-01  0.89239138666E+00  0.88000000000E+00 0. -1.
        -11    1    4    4    0    0  0.80663603152E-01 -0.38287370018E-01 -0.43921163483E-01  0.99508136848E-01  0.51100000000E-03 0. -1.
         11    1    4    4    0    0  0.21738982783E-01 -0.25751048778E-02 -0.19017384839E-01  0.29002354812E-01  0.51100000000E-03 0.  1.
</event>
<event>
 8    1  0.1126414E+005  0.1043930E+01  0.7957747E-01            NaN
         13   -1    0    0    0    0  0.00000000000E+00  0.00000000000E+00  0.74505805969E-08  0.10566000000E+00  0.10566000000E+00 0.  1.
     999900   -1    0    0    0    0 -0.00000000000E+00 -0.00000000000E+00 -0.74505805969E-08  0.93827000000E+00  0.93827000000E+00 0. -1.
     999902    2    1    2    0    0 -0.30887270772E-02  0.15648496821E-01 -0.17694098830E-01  0.10201078082E+01  0.10198296150E+01 0.  0.
     999903    2    3    3    0    0  0.78086960540E-01  0.10734884895E-01 -0.10420140028E+00  0.13213418866E+00  0.19715497246E-01 0.  0.
         14    1    1    2    0    0  0.30887270772E-02 -0.15648496821E-01  0.17694098830E-01  0.23822191778E-01  0.00000000000E+00 0.  1.
     999901    1    3    3    0    0 -0.81175687617E-01  0.49136119260E-02  0.86507301448E-01  0.88797361957E+00  0.88000000000E+00 0.  1.
        -11    1    4    4    0    0  0.18632573281E-01 -0.54291980634E-02 -0.20953435341E-01  0.28564953217E-01  0.51100000000E-03 0.  1.
         11    1    4    4    0    0  0.59454387259E-01  0.16164082959E-01 -0.83247964936E-01  0.10356923544E+00  0.51100000000E-03 0. -1.
</event>
<event>
 8    1  0.1126414E+005  0.1043930E+01  0.7957747E-01            NaN
         13   -1    0    0    0    0  0.00000000000E+00  0.00000000000E+00  0.74505805969E-08  0.10566000000E+00  0.10566000000E+00 0. -1.
     999900   -1    0    0    0    0 -0.00000000000E+00 -0.00000000000E+00 -0.74505805969E-08  0.93827000000E+00  0.93827000000E+00 0.  1.
     999902    2    1    2    0    0 -0.39898483070E-02  0.22435586625E-01  0.65567200593E-02  0.10202178720E+01  0.10199422735E+01 0.  0.
     999903    2    3    3    0    0 -0.10690524325E+00 -0.55817446099E-01  0.42530481884E-01  0.13004416580E+00  0.23628898556E-01 0.  0.
         14    1    1    2    0    0  0.39898483070E-02 -0.22435586625E-01 -0.65567200593E-02  0.23712128008E-01  0.00000000000E+00 0.  1.
     999901    1    3    3    0    0  0.10291539494E+00  0.78253032724E-01 -0.35973761825E-01  0.89017370619E+00  0.88000000000E+00 0. -1.
        -11    1    4    4    0    0 -0.73116478805E-01 -0.49972292416E-01  0.32041329474E-01  0.94181513036E-01  0.51100000000E-03 0.  1.
         11    1    4    4    0    0 -0.33788764446E-01 -0.58451536824E-02  0.10489152410E-01  0.35862652769E-01  0.51100000000E-03 0. -1.
</event>
<event>
 8    1  0.1126414E+005  0.1043930E+01  0.7957747E-01            NaN
         13   -1    0    0    0    0  0.00000000000E+00  0.00000000000E+00  0.74505805969E-08  0.10566000000E+00  0.10566000000E+00 0. -1.
     999900   -1    0    0    0    0 -0.00000000000E+00 -0.00000000000E+00 -0.74505805969E-08  0.93827000000E+00  0.93827000000E+00 0. -1.
     999902    2    1    2    0    0 -0.21285593315E-01 -0.16683811941E-01 -0.84737369107E-02  0.10155886824E+01  0.10151931548E+01 0.  0.
     999903    2    3    3    0    0  0.25394602571E-01 -0.93573949719E-01 -0.81156787489E-01  0.12802236953E+00  0.20058241177E-01 0.  0.
         14    1    1    2    0    0  0.21285593315E-01  0.16683811941E-01  0.84737369107E-02  0.28341317557E-01  0.00000000000E+00 0. -1.
     999901    1    3    3    0    0 -0.46680195886E-01  0.76890137778E-01  0.72683050578E-01  0.88756631291E+00  0.88000000000E+00 0. -1.
        -11    1    4    4    0    0  0.19515490317E-01 -0.38323833614E-01 -0.41418660337E-01  0.59710444064E-01  0.51100000000E-03 0.  1.
         11    1    4    4    0    0  0.58791122541E-02 -0.55250116105E-01 -0.39738127151E-01  0.68311925467E-01  0.51100000000E-03 0. -1.
</event>
<event>
 8    1  0.1247258E+005  0.1043930E+01  0.7957747E-01            NaN
         13   -1    0    0    0    0  0.00000000000E+00  0.00000000000E+00  0.74505805969E-08  0.10566000000E+00  0.10566000000E+00 0. -1.
     999900   -1    0    0    0    0 -0.00000000000E+00 -0.00000000000E+00 -0.74505805969E-08  0.93827000000E+00  0.93827000000E+00 0.  1.
     999902    2    1    2    0    0 -0.22439836158E-01 -0.28947141416E-02 -0.76011237278E-02  0.10200615543E+01  0.10197822669E+01 0.  0.
     999903    2    3    3    0    0 -0.82295135665E-02 -0.16410574034E-01 -0.12876399851E+00  0.13154309422E+00  0.19656716197E-01 0.  0.
         14    1    1    2    0    0  0.22439836158E-01  0.28947141416E-02  0.76011237278E-02  0.23868445669E-01  0.00000000000E+00 0. -1.
     999901    1    3    3    0    0 -0.14210322591E-01  0.13515859892E-01  0.12116287478E+00  0.88851846011E+00  0.88000000000E+00 0. -1.
        -11    1    4    4    0    0 -0.13020670942E-01 -0.41421733517E-02 -0.69257239910E-01  0.70594064005E-01  0.51100000000E-03 0.  1.
         11    1    4    4    0    0  0.47911573757E-02 -0.12268400682E-01 -0.59506758596E-01  0.60949030213E-01  0.51100000000E-03 0. -1.
</event>
<event>
 8    1  0.1126414E+005  0.1043930E+01  0.7957747E-01            NaN
         13   -1    0    0    0    0  0.00000000000E+00  0.00000000000E+00  0.74505805969E-08  0.10566000000E+00  0.10566000000E+00 0.  1.
     999900   -1    0    0    0    0 -0.00000000000E+00 -0.00000000000E+00 -0.74505805969E-08  0.93827000000E+00  0.93827000000E+00 0.  1.
     999902    2    1    2    0    0 -0.16093363021E-02 -0.19218951025E-01  0.99351480242E-02  0.10222351802E+01  0.10220049405E+01 0.  0.
     999903    2    3    3    0    0 -0.10314376675E+00  0.75393597913E-01 -0.48442681269E-02  0.13123618682E+00  0.29608082869E-01 0.  0.
         14    1    1    2    0    0  0.16093363021E-02  0.19218951025E-01 -0.99351480242E-02  0.21694819844E-01  0.00000000000E+00 0. -1.
     999901    1    3    3    0    0  0.10153443045E+00 -0.94612548938E-01  0.14779416151E-01  0.89099899334E+00  0.88000000000E+00 0. -1.
        -11    1    4    4    0    0 -0.59456606562E-01  0.40128254147E-01  0.11748687670E-01  0.72688772363E-01  0.51100000000E-03 0.  1.
         11    1    4    4    0    0 -0.43687160191E-01  0.35265343767E-01 -0.16592955797E-01  0.58547414457E-01  0.51100000000E-03 0. -1.
</event>
<event>
 8    1  0.1126414E+005  0.1043930E+01  0.7957747E-01            NaN
         13   -1    0    0    0    0  0.00000000000E+00  0.00000000000E+00  0.74505805969E-08  0.10566000000E+00  0.10566000000E+00 0. -1.
     999900   -1    0    0    0    0 -0.00000000000E+00 -0.00000000000E+00 -0.74505805969E-08  0.93827000000E+00  0.93827000000E+00 0.  1.
     999902    2    1    2    0    0  0.19191745864E-01 -0.98053434534E-02  0.99301913295E-02  0.10202007655E+01  0.10199247646E+01 0.  0.
     999903    2    3    3    0    0  0.49214297527E-01 -0.12124147542E-01  0.12144406821E+00  0.13265241461E+00  0.16702076576E-01 0.  0.
         14    1    1    2    0    0 -0.19191745864E-01  0.98053434534E-02 -0.99301913295E-02  0.23729234488E-01  0.00000000000E+00 0.  1.
     999901    1    3    3    0    0 -0.30022551663E-01  0.23188040888E-02 -0.11151387688E+00  0.88754835091E+00  0.88000000000E+00 0.  1.
        -11    1    4    4    0    0  0.22429273545E-02 -0.25841049958E-02  0.21869092651E-01  0.22141062670E-01  0.51100000000E-03 0.  1.
         11    1    4    4    0    0  0.46971370172E-01 -0.95400425464E-02  0.99574975561E-01  0.11051135194E+00  0.51100000000E-03 0. -1.
</event>
<event>
 7    1  0.1666413E+005  0.1043930E+01  0.7957747E-01            NaN
         13   -1    0    0    0    0  0.00000000000E+00  0.00000000000E+00  0.74505805969E-08  0.10566000000E+00  0.10566000000E+00 0.  1.
     999900   -1    0    0    0    0 -0.00000000000E+00 -0.00000000000E+00 -0.74505805969E-08  0.93827000000E+00  0.93827000000E+00 0.  1.
     999903    2    1    2    0    0  0.16886324139E-01 -0.11237063285E+00 -0.25950099919E-01  0.11824686863E+00  0.19914999026E-01 0.  0.
         14    1    1    2    0    0 -0.76531761306E-02  0.40673461465E-01 -0.76116691114E-02  0.42081338846E-01  0.00000000000E+00 0.  1.
     999901    1    1    2    0    0 -0.92331480083E-02  0.71697171382E-01  0.33561769030E-01  0.88360179252E+00  0.88000000000E+00 0. -1.
        -11    1    3    3    0    0  0.95789895190E-03 -0.63645358014E-01 -0.92087260010E-02  0.64317267686E-01  0.51100000000E-03 0.  1.
         11    1    3    3    0    0  0.15928425187E-01 -0.48725274833E-01 -0.16741373918E-01  0.53929600946E-01  0.51100000000E-03 0. -1.
</event>
<event>
 8    1  0.1126414E+005  0.1043930E+01  0.7957747E-01            NaN
         13   -1    0    0    0    0  0.00000000000E+00  0.00000000000E+00  0.74505805969E-08  0.10566000000E+00  0.10566000000E+00 0.  1.
     999900   -1    0    0    0    0 -0.00000000000E+00 -0.00000000000E+00 -0.74505805969E-08  0.93827000000E+00  0.93827000000E+00 0. -1.
     999902    2    1    2    0    0  0.15068826198E-01 -0.78906235414E-02 -0.16833443417E-01  0.10199989265E+01  0.10197181541E+01 0.  0.
     999903    2    3    3    0    0  0.39139676197E-01  0.12061666469E+00 -0.22641912685E-01  0.13032074462E+00  0.19762242119E-01 0.  0.
         14    1    1    2    0    0 -0.15068826198E-01  0.78906235414E-02  0.16833443417E-01  0.23931073526E-01  0.00000000000E+00 0.  1.
     999901    1    3    3    0    0 -0.24070849999E-01 -0.12850728824E+00  0.58084692681E-02  0.88967818185E+00  0.88000000000E+00 0.  1.
        -11    1    4    4    0    0  0.32344192553E-01  0.83155728775E-01 -0.82147722759E-02  0.89603379538E-01  0.51100000000E-03 0.  1.
         11    1    4    4    0    0  0.67954836441E-02  0.37460935920E-01 -0.14427140409E-01  0.40717365083E-01  0.51100000000E-03 0. -1.
</event>
<event>
 8    1  0.1126414E+005  0.1043930E+01  0.7957747E-01            NaN
         13   -1    0    0    0    0  0.00000000000E+00  0.00000000000E+00  0.74505805969E-08  0.10566000000E+00  0.10566000000E+00 0.  1.
     999900   -1    0    0    0    0 -0.00000000000E+00 -0.00000000000E+00 -0.74505805969E-08  0.93827000000E+00  0.93827000000E+00 0. -1.
     999902    2    1    2    0    0 -0.78895508304E-02  0.18586165323E-01 -0.14396053185E-01  0.10191320787E+01  0.10188303377E+01 0.  0.
     999903    2    3    3    0    0  0.51037270902E-01  0.10545042290E+00 -0.56874366523E-01  0.13187666075E+00  0.20788587554E-01 0.  0.
         14    1    1    2    0    0  0.78895508304E-02 -0.18586165323E-01  0.14396053185E-01  0.24797921305E-01  0.00000000000E+00 0. -1.
     999901    1    3    3    0    0 -0.58926821733E-01 -0.86864257579E-01  0.42478313338E-01  0.88725541794E+00  0.88000000000E+00 0. -1.
        -11    1    4    4    0    0  0.16812764339E-01  0.32409197997E-01 -0.74217880631E-02  0.37260826864E-01  0.51100000000E-03 0.  1.
         11    1    4    4    0    0  0.34224506563E-01  0.73041224906E-01 -0.49452578460E-01  0.94615833889E-01  0.51100000000E-03 0. -1.
</event>
<event>
 8    1  0.1126414E+005  0.1043930E+01  0.7957747E-01            NaN
         13   -1    0    0    0    0  0.00000000000E+00  0.00000000000E+00  0.74505805969E-08  0.10566000000E+00  0.10566000000E+00 0. -1.
     999900   -1    0    0    0    0 -0.00000000000E+00 -0.00000000000E+00 -0.74505805969E-08  0.93827000000E+00  0.93827000000E+00 0.  1.
     999902    2    1    2    0    0  0.13797904661E-01 -0.21577704628E-02 -0.19748209923E-01  0.10197426078E+01  0.10194557157E+01 0.  0.
     999903    2    3    3    0    0  0.10514497212E-01 -0.10851999386E+00  0.66277424379E-01  0.12916744921E+00  0.20109431514E-01 0.  0.
         14    1    1    2    0    0 -0.13797904661E-01  0.21577704628E-02  0.19748209923E-01  0.24187392202E-01  0.00000000000E+00 0. -1.
     999901    1    3    3    0    0  0.32834074492E-02  0.10636222339E+00 -0.86025634301E-01  0.89057515858E+00  0.88000000000E+00 0.  1.
        -11    1    4    4    0    0  0.40479810703E-02 -0.76393273627E-01  0.36006379414E-01  0.84551989248E-01  0.51100000000E-03 0.  1.
         11    1    4    4    0    0  0.64665161413E-02 -0.32126720229E-01  0.30271044965E-01  0.44615459966E-01  0.51100000000E-03 0. -1.
</event>
<event>
 8    1  0.1126414E+005  0.1043930E+01  0.7957747E-01            NaN
         13   -1    0    0    0    0  0.00000000000E+00  0.00000000000E+00  0.74505805969E-08  0.10566000000E+00  0.10566000000E+00 0.  1.
     999900   -1    0    0    0    0 -0.00000000000E+00 -0.00000000000E+00 -0.74505805969E-08  0.93827000000E+00  0.93827000000E+00 0. -1.
     999902    2    1    2    0    0  0.78919934501E-02 -0.20643600623E-01  0.21178452154E-04  0.10218292702E+01  0.10215902384E+01 0.  0.
     999903    2    3    3    0    0  0.12915415354E+00  0.30833799930E-02 -0.24097051543E-01  0.13286967043E+00  0.19580061775E-01 0.  0.
         14    1    1    2    0    0 -0.78919934501E-02  0.20643600623E-01 -0.21178452154E-04  0.22100729758E-01  0.00000000000E+00 0. -1.
     999901    1    3    3    0    0 -0.12126216009E+00 -0.23726980616E-01  0.24118229995E-01  0.88895959981E+00  0.88000000000E+00 0.  1.
        -11    1    4    4    0    0  0.81977952680E-01 -0.26479714813E-02 -0.23567164767E-01  0.85340897902E-01  0.51100000000E-03 0.  1.
         11    1    4    4    0    0  0.47176200858E-01  0.57313514743E-02 -0.52988677524E-03  0.47528772529E-01  0.51100000000E-03 0. -1.
</event>
<event>
 8    1  0.1126414E+005  0.1043930E+01  0.7957747E-01            NaN
         13   -1    0    0    0    0  0.00000000000E+00  0.00000000000E+00  0.74505805969E-08  0.10566000000E+00  0.10566000000E+00 0. -1.
     999900   -1    0    0    0    0 -0.00000000000E+00 -0.00000000000E+00 -0.74505805969E-08  0.93827000000E+00  0.93827000000E+00 0.  1.
     999902    2    1    2    0    0 -0.18927836196E-01 -0.95684877011E-02  0.11211688056E-01  0.10199399836E+01  0.10196578098E+01 0.  0.
     999903    2    3    3    0    0 -0.88606497794E-01  0.90760954108E-01 -0.27912083803E-02  0.13139218299E+00  0.34168006460E-01 0.  0.
         14    1    1    2    0    0  0.18927836196E-01  0.95684877011E-02 -0.11211688056E-01  0.23990016445E-01  0.00000000000E+00 0.  1.
     999901    1    3    3    0    0  0.69678661598E-01 -0.10032944181E+00  0.14002896436E-01  0.88854780056E+00  0.88000000000E+00 0.  1.
        -11    1    4    4    0    0 -0.37257970593E-01  0.55456509443E-01 -0.13500223654E-01  0.68162291423E-01  0.51100000000E-03 0.  1.
         11    1    4    4    0    0 -0.51348527201E-01  0.35304444665E-01  0.10709015273E-01  0.63229891570E-01  0.51100000000E-03 0. -1.
</event>
<event>
 8    1  0.1126414E+005  0.1043930E+01  0.7957747E-01            NaN
         13   -1    0    0    0    0  0.00000000000E+00  0.00000000000E+00  0.74505805969E-08  0.10566000000E+00  0.10566000000E+00 0.  1.
     999900   -1    0    0    0    0 -0.00000000000E+00 -0.00000000000E+00 -0.74505805969E-08  0.93827000000E+00  0.93827000000E+00 0.  1.
     999902    2    1    2    0    0  0.22332903266E-01 -0.54068980057E-02 -0.56980954301E-02  0.10202559339E+01  0.10199812298E+01 0.  0.
     999903    2    3    3    0    0  0.23950614922E-01  0.10044847121E+00  0.76147897796E-01  0.13013979384E+00  0.21779262562E-01 0.  0.
         14    1    1    2    0    0 -0.22332903266E-01  0.54068980057E-02  0.56980954301E-02  0.23674066104E-01  0.00000000000E+00 0.  1.
     999901    1    3    3    0    0 -0.16177116561E-02 -0.10585536922E+00 -0.81845993226E-01  0.89011614006E+00  0.88000000000E+00 0.  1.
        -11    1    4    4    0    0  0.11730356591E-01  0.81475687141E-01  0.53573552071E-01  0.98215454300E-01  0.51100000000E-03 0.  1.
         11    1    4    4    0    0  0.12220258331E-01  0.18972784071E-01  0.22574345725E-01  0.31924339539E-01  0.51100000000E-03 0. -1.
</event>
<event>
 8    1  0.1126414E+005  0.1043930E+01  0.7957747E-01            NaN
         13   -1    0    0    0    0  0.00000000000E+00  0.00000000000E+00  0.74505805969E-08  0.10566000000E+00  0.10566000000E+00 0. -1.
     999900   -1    0    0    0    0 -0.00000000000E+00 -0.00000000000E+00 -0.74505805969E-08  0.93827000000E+00  0.93827000000E+00 0.  1.
     999902    2    1    2    0    0 -0.12969912585E-01  0.19570181629E-01 -0.56921059687E-02  0.10197719638E+01  0.10194857760E+01 0.  0.
     999903    2    3    3    0    0 -0.12294377279E+00  0.44847801993E-01 -0.17637574288E-02  0.13255798741E+00  0.21024095079E-01 0.  0.
         14    1    1    2    0    0  0.12969912585E-01 -0.19570181629E-01  0.56921059687E-02  0.24158036175E-01  0.00000000000E+00 0.  1.
     999901    1    3    3    0    0  0.10997386021E+00 -0.25277620364E-01 -0.39283485399E-02  0.88721397641E+00  0.88000000000E+00 0.  1.
        -11    1    4    4    0    0 -0.65187421542E-01  0.33148894697E-01  0.46342926622E-02  0.73280194708E-01  0.51100000000E-03 0.  1.
         11    1    4    4    0    0 -0.57756351252E-01  0.11698907296E-01 -0.63980500910E-02  0.59277792704E-01  0.51100000000E-03 0. -1.
</event>
<event>
 8    1  0.1302306E+005  0.1043930E+01  0.7957747E-01            NaN
         13   -1    0    0    0    0  0.00000000000E+00  0.00000000000E+00  0.74505805969E-08  0.10566000000E+00  0.10566000000E+00 0. -1.
     999900   -1    0    0    0    0 -0.00000000000E+00 -0.00000000000E+00 -0.74505805969E-08  0.93827000000E+00  0.93827000000E+00 0. -1.
     999902    2    1    2    0    0  0.54084457314E-02  0.16290248098E-02  0.23289477111E-01  0.10199653437E+01  0.10196837733E+01 0.  0.
     999903    2    3    3    0    0 -0.61259082842E-01 -0.94487893693E-01 -0.58393692999E-01  0.12847492779E+00  0.20380049176E-01 0.  0.
         14    1    1    2    0    0 -0.54084457314E-02 -0.16290248098E-02 -0.23289477111E-01  0.23964656291E-01  0.00000000000E+00 0.  1.
     999901    1    3    3    0    0  0.66667528574E-01  0.96116918503E-01  0.81683170110E-01  0.89149041591E+00  0.88000000000E+00 0.  1.
        -11    1    4    4    0    0 -0.40626188706E-01 -0.45563010162E-01 -0.26655459442E-01  0.66612684549E-01  0.51100000000E-03 0.  1.
         11    1    4    4    0    0 -0.20632894137E-01 -0.48924883531E-01 -0.31738233557E-01  0.61862243245E-01  0.51100000000E-03 0. -1.
</event>
<event>
 8    1  0.1126414E+005  0.1043930E+01  0.7957747E-01            NaN
         13   -1    0    0    0    0  0.00000000000E+00  0.00000000000E+00  0.74505805969E-08  0.10566000000E+00  0.10566000000E+00 0. -1.
     999900   -1    0    0    0    0 -0.00000000000E+00 -0.00000000000E+00 -0.74505805969E-08  0.93827000000E+00  0.93827000000E+00 0. -1.
     999902    2    1    2    0    0 -0.10376974456E-02  0.38582111405E-02 -0.29086480253E-01  0.10145704029E+01  0.10141455105E+01 0.  0.
     999903    2    3    3    0    0  0.12081681625E+00  0.64122387210E-02  0.16934589489E-01  0.12497893236E+00  0.26365381072E-01 0.  0.
         14    1    1    2    0    0  0.10376974456E-02 -0.38582111405E-02  0.29086480253E-01  0.29359597114E-01  0.00000000000E+00 0.  1.
     999901    1    3    3    0    0 -0.12185451370E+00 -0.25540275805E-02 -0.46021069742E-01  0.88959147052E+00  0.88000000000E+00 0. -1.
        -11    1    4    4    0    0  0.10053739459E+00  0.10094559971E-01  0.50251894581E-02  0.10116907384E+00  0.51100000000E-03 0.  1.
         11    1    4    4    0    0  0.20279421660E-01 -0.36823212503E-02  0.11909400031E-01  0.23809858520E-01  0.51100000000E-03 0. -1.
</event>
<event>
 8    1  0.1126414E+005  0.1043930E+01  0.7957747E-01            NaN
         13   -1    0    0    0    0  0.00000000000E+00  0.00000000000E+00  0.74505805969E-08  0.10566000000E+00  0.10566000000E+00 0. -1.
     999900   -1    0    0    0    0 -0.00000000000E+00 -0.00000000000E+00 -0.74505805969E-08  0.93827000000E+00  0.93827000000E+00 0. -1.
     999902    2    1    2    0    0 -0.99587748225E-02 -0.22011117323E-01  0.21753826048E-02  0.10196730676E+01  0.10193845035E+01 0.  0.
     999903    2    3    3    0    0  0.12930797222E-01 -0.13045882463E+00 -0.46176644183E-02  0.13269449780E+00  0.19994911414E-01 0.  0.
         14    1    1    2    0    0  0.99587748225E-02  0.22011117323E-01 -0.21753826048E-02  0.24256932437E-01  0.00000000000E+00 0. -1.
     999901    1    3    3    0    0 -0.22889572044E-01  0.10844770730E+00  0.67930470231E-02  0.88697856976E+00  0.88000000000E+00 0. -1.
        -11    1    4    4    0    0  0.10147705465E-01 -0.63795049993E-01 -0.11506983261E-01  0.65615974538E-01  0.51100000000E-03 0. -1.
         11    1    4    4    0    0  0.27830917570E-02 -0.66663774633E-01  0.68893188430E-02  0.67078523263E-01  0.51100000000E-03 0.  1.
</event>
<event>
 8    1  0.1126414E+005  0.1043930E+01  0.7957747E-01            NaN
         13   -1    0    0    0    0  0.00000000000E+00  0.00000000000E+00  0.74505805969E-08  0.10566000000E+00  0.10566000000E+00 0.  1.
     999900   -1    0    0    0    0 -0.00000000000E+00 -0.00000000000E+00 -0.74505805969E-08  0.93827000000E+00  0.93827000000E+00 0. -1.
     999902    2    1    2    0    0  0.12099159008E-01 -0.14125022479E-01  0.15293495831E-01  0.10198510274E+01  0.10195667320E+01 0.  0.
     999903    2    3    3    0    0 -0.10615611275E+00  0.14037026813E-01  0.71142066965E-01  0.12974065599E+00  0.17472427657E-01 0.  0.
         14    1    1    2    0    0 -0.12099159008E-01  0.14125022479E-01 -0.15293495831E-01  0.24078972641E-01  0.00000000000E+00 0. -1.
     999901    1    3    3    0    0  0.11825527176E+00 -0.28162049292E-01 -0.55848571134E-01  0.89011037137E+00  0.88000000000E+00 0. -1.
        -11    1    4    4    0    0 -0.90914034315E-01  0.17125654463E-01  0.56675138540E-01  0.10849415710E+00  0.51100000000E-03 0.  1.
         11    1    4    4    0    0 -0.15242078438E-01 -0.30886276501E-02  0.14466928425E-01  0.21246498886E-01  0.51100000000E-03 0. -1.
</event>
<event>
 8    1  0.1126414E+005  0.1043930E+01  0.7957747E-01            NaN
         13   -1    0    0    0    0  0.00000000000E+00  0.00000000000E+00  0.74505805969E-08  0.10566000000E+00  0.10566000000E+00 0.  1.
     999900   -1    0    0    0    0 -0.00000000000E+00 -0.00000000000E+00 -0.74505805969E-08  0.93827000000E+00  0.93827000000E+00 0.  1.
     999902    2    1    2    0    0 -0.91400733515E-02  0.16276204409E-01  0.13288463668E-01  0.10210162697E+01  0.10207591214E+01 0.  0.
     999903    2    3    3    0    0 -0.38533514611E-01 -0.14710554594E-01 -0.12081492649E+00  0.12983285821E+00  0.23645135728E-01 0.  0.
         14    1    1    2    0    0  0.91400733515E-02 -0.16276204409E-01 -0.13288463668E-01  0.22913730327E-01  0.00000000000E+00 0. -1.
     999901    1    3    3    0    0  0.29393441259E-01  0.30986759003E-01  0.13410339015E+00  0.89118341147E+00  0.88000000000E+00 0. -1.
        -11    1    4    4    0    0 -0.18403262441E-01 -0.49254642550E-02 -0.24992309284E-01  0.31429554737E-01  0.51100000000E-03 0.  1.
         11    1    4    4    0    0 -0.20130252169E-01 -0.97850903389E-02 -0.95822617201E-01  0.98403303469E-01  0.51100000000E-03 0. -1.
</event>
<event>
 8    1  0.1126414E+005  0.1043930E+01  0.7957747E-01            NaN
         13   -1    0    0    0    0  0.00000000000E+00  0.00000000000E+00  0.74505805969E-08  0.10566000000E+00  0.10566000000E+00 0.  1.
     999900   -1    0    0    0    0 -0.00000000000E+00 -0.00000000000E+00 -0.74505805969E-08  0.93827000000E+00  0.93827000000E+00 0. -1.
     999902    2    1    2    0    0  0.76739739678E-02  0.22060982309E-01 -0.55638250533E-02  0.10199188991E+01  0.10196362233E+01 0.  0.
     999903    2    3    3    0    0  0.42336537266E-02  0.23569715491E-01  0.12616702028E+00  0.13010592567E+00  0.20880123973E-01 0.  0.
         14    1    1    2    0    0 -0.76739739678E-02 -0.22060982309E-01  0.55638250533E-02  0.24011100894E-01  0.00000000000E+00 0.  1.
     999901    1    3    3    0    0  0.34403202411E-02 -0.15087331813E-02 -0.13173084533E+00  0.88981297343E+00  0.88000000000E+00 0. -1.
        -11    1    4    4    0    0 -0.33791183674E-02  0.38185874438E-02  0.68211007192E-01  0.68403235845E-01  0.51100000000E-03 0. -1.
         11    1    4    4    0    0  0.76127720940E-02  0.19751128047E-01  0.57956013086E-01  0.61702689827E-01  0.51100000000E-03 0.  1.
</event>
<event>
 8    1  0.1126414E+005  0.1043930E+01  0.7957747E-01            NaN
         13   -1    0    0    0    0  0.00000000000E+00  0.00000000000E+00  0.74505805969E-08  0.10566000000E+00  0.10566000000E+00 0. -1.
     999900   -1    0    0    0    0 -0.00000000000E+00 -0.00000000000E+00 -0.74505805969E-08  0.93827000000E+00  0.93827000000E+00 0.  1.
     999902    2    1    2    0    0  0.74802329977E-02 -0.21082079136E-01  0.80774295896E-02  0.10201465432E+01  0.10198692646E+01 0.  0.
     999903    2    3    3    0    0  0.85103345079E-01  0.52335978483E-02  0.98417620266E-01  0.13173266873E+00  0.19937355426E-01 0.  0.
         14    1    1    2    0    0 -0.74802329977E-02  0.21082079136E-01 -0.80774295896E-02  0.23783456754E-01  0.00000000000E+00 0.  1.
     999901    1    3    3    0    0 -0.77623112081E-01 -0.26315676984E-01 -0.90340190676E-01  0.88841387452E+00  0.88000000000E+00 0.  1.
        -11    1    4    4    0    0  0.13710161513E-01 -0.10237357428E-02  0.66092557028E-02  0.15263025438E-01  0.51100000000E-03 0. -1.
         11    1    4    4    0    0  0.71393183566E-01  0.62573335911E-02  0.91808364563E-01  0.11646964329E+00  0.51100000000E-03 0.  1.
</event>
<event>
 8    1  0.1126414E+005  0.1043930E+01  0.7957747E-01            NaN
         13   -1    0    0    0    0  0.00000000000E+00  0.00000000000E+00  0.74505805969E-08  0.10566000000E+00  0.10566000000E+00 0.  1.
     999900   -1    0    0    0    0 -0.00000000000E+00 -0.00000000000E+00 -0.74505805969E-08  0.93827000000E+00  0.93827000000E+00 0.  1.
     999902    2    1    2    0    0 -0.18605549645E-01 -0.14708363324E-01  0.12610025619E-03  0.10202125311E+01  0.10199368070E+01 0.  0.
     999903    2    3    3    0    0 -0.44071745484E-01  0.11395366351E+00  0.42477953691E-01  0.12948466932E+00  0.58435316356E-02 0.  0.
         14    1    1    2    0    0  0.18605549645E-01  0.14708363324E-01 -0.12610025619E-03  0.23717468890E-01  0.00000000000E+00 0.  1.
     999901    1    3    3    0    0  0.25466195839E-01 -0.12866202683E+00 -0.42351853435E-01  0.89072786179E+00  0.88000000000E+00 0.  1.
        -11    1    4    4    0    0 -0.12507693985E-01  0.29546368419E-01  0.13618099794E-01  0.34858916486E-01  0.51100000000E-03 0.  1.
         11    1    4    4    0    0 -0.31564051499E-01  0.84407295090E-01  0.28859853897E-01  0.94625752834E-01  0.51100000000E-03 0. -1.
</event>
<event>
 8    1  0.1126414E+005  0.1043930E+01  0.7957747E-01            NaN
         13   -1    0    0    0    0  0.00000000000E+00  0.00000000000E+00  0.74505805969E-08  0.10566000000E+00  0.10566000000E+00 0.  1.
     999900   -1    0    0    0    0 -0.00000000000E+00 -0.00000000000E+00 -0.74505805969E-08  0.93827000000E+00  0.93827000000E+00 0.  1.
     999902    2    1    2    0    0 -0.18186205387E-01  0.65675085023E-02  0.10735704603E-01  0.10218138162E+01  0.10215744463E+01 0.  0.
     999903    2    3    3    0    0  0.25526119618E-02 -0.12302380000E+00 -0.39008865356E-01  0.13069175492E+00  0.20427237569E-01 0.  0.
         14    1    1    2    0    0  0.18186205387E-01 -0.65675085023E-02 -0.10735704603E-01  0.22116183840E-01  0.00000000000E+00 0.  1.
     999901    1    3    3    0    0 -0.20738817349E-01  0.12959130850E+00  0.49744569959E-01  0.89112206124E+00  0.88000000000E+00 0. -1.
        -11    1    4    4    0    0  0.81696763866E-02 -0.10048196751E+00 -0.26222421815E-01  0.10416931378E+00  0.51100000000E-03 0. -1.
         11    1    4    4    0    0 -0.56170644249E-02 -0.22541832491E-01 -0.12786443541E-01  0.26522441144E-01  0.51100000000E-03 0.  1.
</event>
<event>
 8    1  0.1126414E+005  0.1043930E+01  0.7957747E-01            NaN
         13   -1    0    0    0    0  0.00000000000E+00  0.00000000000E+00  0.74505805969E-08  0.10566000000E+00  0.10566000000E+00 0.  1.
     999900   -1    0    0    0    0 -0.00000000000E+00 -0.00000000000E+00 -0.74505805969E-08  0.93827000000E+00  0.93827000000E+00 0.  1.
     999902    2    1    2    0    0 -0.19142929088E-01  0.71822054734E-04 -0.18194937606E-01  0.10175195353E+01  0.10171767261E+01 0.  0.
     999903    2    3    3    0    0 -0.80772537185E-01  0.82414941060E-01 -0.57607886743E-01  0.13065315391E+00  0.20860314897E-01 0.  0.
         14    1    1    2    0    0  0.19142929088E-01 -0.71822054734E-04  0.18194937606E-01  0.26410464724E-01  0.00000000000E+00 0.  1.
     999901    1    3    3    0    0  0.61629608097E-01 -0.82343119005E-01  0.39412949137E-01  0.88686638137E+00  0.88000000000E+00 0. -1.
        -11    1    4    4    0    0 -0.75846835903E-01  0.75662038163E-01 -0.46620629385E-01  0.11683848142E+00  0.51100000000E-03 0. -1.
         11    1    4    4    0    0 -0.49257012829E-02  0.67529028972E-02 -0.10987257358E-01  0.13814672487E-01  0.51100000000E-03 0.  1.
</event>
<event>
 8    1  0.1126414E+005  0.1043930E+01  0.7957747E-01            NaN
         13   -1    0    0    0    0  0.00000000000E+00  0.00000000000E+00  0.74505805969E-08  0.10566000000E+00  0.10566000000E+00 0. -1.
     999900   -1    0    0    0    0 -0.00000000000E+00 -0.00000000000E+00 -0.74505805969E-08  0.93827000000E+00  0.93827000000E+00 0.  1.
     999902    2    1    2    0    0 -0.24246320554E-01  0.66787795656E-02  0.18113995119E-02  0.10187154938E+01  0.10184034004E+01 0.  0.
     999903    2    3    3    0    0 -0.66527767795E-01 -0.10646427046E+00 -0.27048187864E-01  0.12999622068E+00  0.20169981456E-01 0.  0.
         14    1    1    2    0    0  0.24246320554E-01 -0.66787795656E-02 -0.18113995119E-02  0.25214506243E-01  0.00000000000E+00 0.  1.
     999901    1    3    3    0    0  0.42281447242E-01  0.11314305003E+00  0.28859587376E-01  0.88871927307E+00  0.88000000000E+00 0. -1.
        -11    1    4    4    0    0 -0.46793832033E-01 -0.70748741539E-01 -0.27544543671E-01  0.89185257485E-01  0.51100000000E-03 0. -1.
         11    1    4    4    0    0 -0.19733935763E-01 -0.35715528924E-01  0.49635580694E-03  0.40810963197E-01  0.51100000000E-03 0.  1.
</event>
<event>
 8    1  0.1126414E+005  0.1043930E+01  0.7957747E-01            NaN
         13   -1    0    0    0    0  0.00000000000E+00  0.00000000000E+00  0.74505805969E-08  0.10566000000E+00  0.10566000000E+00 0. -1.
     999900   -1    0    0    0    0 -0.00000000000E+00 -0.00000000000E+00 -0.74505805969E-08  0.93827000000E+00  0.93827000000E+00 0. -1.
     999902    2    1    2    0    0 -0.17647826813E-01  0.70186457228E-02 -0.15168969458E-01  0.10196235232E+01  0.10193337649E+01 0.  0.
     999903    2    3    3    0    0  0.35597965503E-01  0.44646091486E-02  0.12080302477E+00  0.12758651686E+00  0.19944939441E-01 0.  0.
         14    1    1    2    0    0  0.17647826813E-01 -0.70186457228E-02  0.15168969458E-01  0.24306476779E-01  0.00000000000E+00 0. -1.
     999901    1    3    3    0    0 -0.53245792316E-01  0.25540365742E-02 -0.13597199422E+00  0.89203700636E+00  0.88000000000E+00 0. -1.
        -11    1    4    4    0    0  0.29886461958E-01  0.11172490163E-01  0.10061114230E+00  0.10555040607E+00  0.51100000000E-03 0. -1.
         11    1    4    4    0    0  0.57115035457E-02 -0.67078810143E-02  0.20191882465E-01  0.22036110794E-01  0.51100000000E-03 0.  1.
</event>
<event>
 8    1  0.1126414E+005  0.1043930E+01  0.7957747E-01            NaN
         13   -1    0    0    0    0  0.00000000000E+00  0.00000000000E+00  0.74505805969E-08  0.10566000000E+00  0.10566000000E+00 0.  1.
     999900   -1    0    0    0    0 -0.00000000000E+00 -0.00000000000E+00 -0.74505805969E-08  0.93827000000E+00  0.93827000000E+00 0.  1.
     999902    2    1    2    0    0  0.20880421814E-01 -0.71046942449E-03  0.17592903488E-01  0.10166168706E+01  0.10162498977E+01 0.  0.
     999903    2    3    3    0    0 -0.88225264155E-01 -0.69985999125E-01 -0.49495689397E-01  0.12465048730E+00  0.20153992317E-01 0.  0.
         14    1    1    2    0    0 -0.20880421814E-01  0.71046942449E-03 -0.17592903488E-01  0.27313129354E-01  0.00000000000E+00 0. -1.
     999901    1    3    3    0    0  0.10910568597E+00  0.69275529701E-01  0.67088592885E-01  0.89196638335E+00  0.88000000000E+00 0. -1.
        -11    1    4    4    0    0 -0.33421440604E-01 -0.15638571907E-01 -0.20388626970E-01  0.42160584129E-01  0.51100000000E-03 0. -1.
         11    1    4    4    0    0 -0.54803823551E-01 -0.54347427218E-01 -0.29107062427E-01  0.82489903171E-01  0.51100000000E-03 0.  1.
</event>
<event>
 8    1  0.1126414E+005  0.1043930E+01  0.7957747E-01            NaN
         13   -1    0    0    0    0  0.00000000000E+00  0.00000000000E+00  0.74505805969E-08  0.10566000000E+00  0.10566000000E+00 0. -1.
     999900   -1    0    0    0    0 -0.00000000000E+00 -0.00000000000E+00 -0.74505805969E-08  0.93827000000E+00  0.93827000000E+00 0.  1.
     999902    2    1    2    0    0 -0.23594216462E-02  0.20031130412E-01 -0.10831926704E-01  0.10210358153E+01  0.10207791105E+01 0.  0.
     999903    2    3    3    0    0  0.16972801727E-01 -0.12593518719E+00 -0.22420692474E-02  0.12876136965E+00  0.20657106972E-01 0.  0.
         14    1    1    2    0    0  0.23594216462E-02 -0.20031130412E-01  0.10831926704E-01  0.22894184681E-01  0.00000000000E+00 0. -1.
     999901    1    3    3    0    0 -0.19332223373E-01  0.14596631761E+00 -0.85898574566E-02  0.89227444567E+00  0.88000000000E+00 0.  1.
        -11    1    4    4    0    0  0.17772453333E-02 -0.61085320876E-01  0.70079984206E-02  0.61513804877E-01  0.51100000000E-03 0. -1.
         11    1    4    4    0    0  0.15195556394E-01 -0.64849866318E-01 -0.92500676679E-02  0.67247564777E-01  0.51100000000E-03 0.  1.
</event>
<event>
 8    1  0.1126414E+005  0.1043930E+01  0.7957747E-01            NaN
         13   -1    0    0    0    0  0.00000000000E+00  0.00000000000E+00  0.74505805969E-08  0.10566000000E+00  0.10566000000E+00 0.  1.
     999900   -1    0    0    0    0 -0.00000000000E+00 -0.00000000000E+00 -0.74505805969E-08  0.93827000000E+00  0.93827000000E+00 0.  1.
     999902    2    1    2    0    0 -0.15490774099E-01 -0.10968319280E-01 -0.16714087684E-01  0.10186391155E+01  0.10183251047E+01 0.  0.
     999903    2    3    3    0    0 -0.28190860388E-01  0.57893165515E-01  0.10772801578E+00  0.12712970257E+00  0.20255682410E-01 0.  0.
         14    1    1    2    0    0  0.15490774099E-01  0.10968319280E-01  0.16714087684E-01  0.25290884467E-01  0.00000000000E+00 0.  1.
     999901    1    3    3    0    0  0.12700086289E-01 -0.68861484795E-01 -0.12444210346E+00  0.89150941296E+00  0.88000000000E+00 0.  1.
        -11    1    4    4    0    0 -0.17838953052E-01  0.51920729379E-01  0.81074061759E-01  0.97914529036E-01  0.51100000000E-03 0.  1.
         11    1    4    4    0    0 -0.10351907336E-01  0.59724361354E-02  0.26653954021E-01  0.29215173538E-01  0.51100000000E-03 0. -1.
</event>
<event>
 7    1  0.1209152E+005  0.1043930E+01  0.7957747E-01            NaN
         13   -1    0    0    0    0  0.00000000000E+00  0.00000000000E+00  0.74505805969E-08  0.10566000000E+00  0.10566000000E+00 0. -1.
     999900   -1    0    0    0    0 -0.00000000000E+00 -0.00000000000E+00 -0.74505805969E-08  0.93827000000E+00  0.93827000000E+00 0. -1.
     999903    2    1    2    0    0 -0.59478643438E-01 -0.75805543974E-01  0.64168886155E-01  0.11746884788E+00  0.19927236355E-01 0.  0.
         14    1    1    2    0    0  0.33387982058E-01 -0.52636856713E-02 -0.23968795941E-01  0.41436299444E-01  0.00000000000E+00 0.  1.
     999901    1    1    2    0    0  0.26090661380E-01  0.81069229645E-01 -0.40200090214E-01  0.88502485268E+00  0.88000000000E+00 0. -1.
        -11    1    3    3    0    0 -0.52596252643E-01 -0.69744983967E-01  0.50204100772E-01  0.10075436187E+00  0.51100000000E-03 0. -1.
         11    1    3    3    0    0 -0.68823907948E-02 -0.60605600063E-02  0.13964785383E-01  0.16714486005E-01  0.51100000000E-03 0.  1.
</event>
<event>
 8    1  0.1126414E+005  0.1043930E+01  0.7957747E-01            NaN
         13   -1    0    0    0    0  0.00000000000E+00  0.00000000000E+00  0.74505805969E-08  0.10566000000E+00  0.10566000000E+00 0. -1.
     999900   -1    0    0    0    0 -0.00000000000E+00 -0.00000000000E+00 -0.74505805969E-08  0.93827000000E+00  0.93827000000E+00 0. -1.
     999902    2    1    2    0    0  0.18134976397E-01 -0.27902949373E-02  0.14107918571E-01  0.10207848821E+01  0.10205224540E+01 0.  0.
     999903    2    3    3    0    0 -0.11495191735E+00 -0.53740526399E-01  0.21463599509E-01  0.12929054484E+00  0.12384320794E-01 0.  0.
         14    1    1    2    0    0 -0.18134976397E-01  0.27902949373E-02 -0.14107918571E-01  0.23145117869E-01  0.00000000000E+00 0.  1.
     999901    1    3    3    0    0  0.13308689375E+00  0.50950231462E-01 -0.73556809376E-02  0.89149433729E+00  0.88000000000E+00 0.  1.
        -11    1    4    4    0    0 -0.86116641622E-01 -0.40786639045E-01  0.10672831737E-01  0.95884286236E-01  0.51100000000E-03 0. -1.
         11    1    4    4    0    0 -0.28835275730E-01 -0.12953887354E-01  0.10790767772E-01  0.33406258607E-01  0.51100000000E-03 0.  1.
</event>
<event>
 8    1  0.1126414E+005  0.1043930E+01  0.7957747E-01            NaN
         13   -1    0    0    0    0  0.00000000000E+00  0.00000000000E+00  0.74505805969E-08  0.10566000000E+00  0.10566000000E+00 0.  1.
     999900   -1    0    0    0    0 -0.00000000000E+00 -0.00000000000E+00 -0.74505805969E-08  0.93827000000E+00  0.93827000000E+00 0. -1.
     999902    2    1    2    0    0 -0.32293561623E-01 -0.63712553279E-02 -0.17347394547E-01  0.10067224858E+01  0.10060346735E+01 0.  0.
     999903    2    3    3    0    0 -0.37997826638E-01  0.66295889041E-01  0.87067766709E-01  0.11755682157E+00  0.19995763686E-01 0.  0.
         14    1    1    2    0    0  0.32293561623E-01  0.63712553279E-02  0.17347394547E-01  0.37207514218E-01  0.00000000000E+00 0.  1.
     999901    1    3    3    0    0  0.57042650149E-02 -0.72667144369E-01 -0.10441516126E+00  0.88916566421E+00  0.88000000000E+00 0. -1.
        -11    1    4    4    0    0 -0.17556870381E-01  0.33222023121E-01  0.28103300300E-01  0.46925506141E-01  0.51100000000E-03 0.  1.
         11    1    4    4    0    0 -0.20440956257E-01  0.33073865920E-01  0.58964466409E-01  0.70631315430E-01  0.51100000000E-03 0. -1.
</event>
<event>
 8    1  0.1126414E+005  0.1043930E+01  0.7957747E-01            NaN
         13   -1    0    0    0    0  0.00000000000E+00  0.00000000000E+00  0.74505805969E-08  0.10566000000E+00  0.10566000000E+00 0.  1.
     999900   -1    0    0    0    0 -0.00000000000E+00 -0.00000000000E+00 -0.74505805969E-08  0.93827000000E+00  0.93827000000E+00 0.  1.
     999902    2    1    2    0    0 -0.29191978648E-03  0.18457626378E-01 -0.98394140680E-02  0.10230115092E+01  0.10227976167E+01 0.  0.
     999903    2    3    3    0    0 -0.82354708489E-01 -0.94708601579E-01 -0.34114902187E-01  0.13164727625E+00  0.20375513955E-01 0.  0.
         14    1    1    2    0    0  0.29191978648E-03 -0.18457626378E-01  0.98394140680E-02  0.20918490813E-01  0.00000000000E+00 0. -1.
     999901    1    3    3    0    0  0.82062788702E-01  0.11316622796E+00  0.24275488119E-01  0.89136423294E+00  0.88000000000E+00 0.  1.
        -11    1    4    4    0    0 -0.65930242577E-01 -0.72798339017E-01 -0.34940227915E-01  0.10424718556E+00  0.51100000000E-03 0. -1.
         11    1    4    4    0    0 -0.16424465911E-01 -0.21910262562E-01  0.82532572824E-03  0.27400090685E-01  0.51100000000E-03 0.  1.
</event>
<event>
 8    1  0.1126414E+005  0.1043930E+01  0.7957747E-01            NaN
         13   -1    0    0    0    0  0.00000000000E+00  0.00000000000E+00  0.74505805969E-08  0.10566000000E+00  0.10566000000E+00 0. -1.
     999900   -1    0    0    0    0 -0.00000000000E+00 -0.00000000000E+00 -0.74505805969E-08  0.93827000000E+00  0.93827000000E+00 0.  1.
     999902    2    1    2    0    0 -0.12026077002E-01 -0.16827275839E-01  0.12584087741E-01  0.10197196096E+01  0.10194321651E+01 0.  0.
     999903    2    3    3    0    0 -0.65322769695E-01  0.36981576684E-01 -0.10307797525E+00  0.12892578221E+00  0.19028585907E-01 0.  0.
         14    1    1    2    0    0  0.12026077002E-01  0.16827275839E-01 -0.12584087741E-01  0.24210390424E-01  0.00000000000E+00 0. -1.
     999901    1    3    3    0    0  0.53296692693E-01 -0.53808852523E-01  0.11566206299E+00  0.89079382737E+00  0.88000000000E+00 0.  1.
        -11    1    4    4    0    0 -0.27861148032E-01  0.20696828370E-01 -0.61612081894E-01  0.70717126854E-01  0.51100000000E-03 0.  1.
         11    1    4    4    0    0 -0.37461621662E-01  0.16284748314E-01 -0.41465893356E-01  0.58208655353E-01  0.51100000000E-03 0. -1.
</event>
<event>
 8    1  0.1126414E+005  0.1043930E+01  0.7957747E-01            NaN
         13   -1    0    0    0    0  0.00000000000E+00  0.00000000000E+00  0.74505805969E-08  0.10566000000E+00  0.10566000000E+00 0.  1.
     999900   -1    0    0    0    0 -0.00000000000E+00 -0.00000000000E+00 -0.74505805969E-08  0.93827000000E+00  0.93827000000E+00 0. -1.
     999902    2    1    2    0    0 -0.16191983588E-02  0.11974286162E-01 -0.16079378918E-01  0.10238165279E+01  0.10236189384E+01 0.  0.
     999903    2    3    3    0    0 -0.60869855538E-02  0.31249275916E-01  0.12625721796E+00  0.13216009568E+00  0.22623818566E-01 0.  0.
         14    1    1    2    0    0  0.16191983588E-02 -0.11974286162E-01  0.16079378918E-01  0.20113472072E-01  0.00000000000E+00 0.  1.
     999901    1    3    3    0    0  0.44677871950E-02 -0.19274989754E-01 -0.14233659687E+00  0.89165643224E+00  0.88000000000E+00 0. -1.
        -11    1    4    4    0    0 -0.37759815508E-02  0.25943508232E-01  0.57952909938E-01  0.63609154588E-01  0.51100000000E-03 0. -1.
         11    1    4    4    0    0 -0.23110040029E-02  0.53057676838E-02  0.68304308018E-01  0.68550941096E-01  0.51100000000E-03 0.  1.
</event>
<event>
 8    1  0.1126414E+005  0.1043930E+01  0.7957747E-01            NaN
         13   -1    0    0    0    0  0.00000000000E+00  0.00000000000E+00  0.74505805969E-08  0.10566000000E+00  0.10566000000E+00 0.  1.
     999900   -1    0    0    0    0 -0.00000000000E+00 -0.00000000000E+00 -0.74505805969E-08  0.93827000000E+00  0.93827000000E+00 0.  1.
     999902    2    1    2    0    0 -0.51426102562E-02  0.10463806193E-01  0.21767332059E-01  0.10192367939E+01  0.10189376270E+01 0.  0.
     999903    2    3    3    0    0  0.49154993073E-01  0.11870426783E+00  0.14898445928E-01  0.13091736443E+00  0.20260209099E-01 0.  0.
         14    1    1    2    0    0  0.51426102562E-02 -0.10463806193E-01 -0.21767332059E-01  0.24693206054E-01  0.00000000000E+00 0. -1.
     999901    1    3    3    0    0 -0.54297603329E-01 -0.10824046164E+00  0.68688861310E-02  0.88831942952E+00  0.88000000000E+00 0. -1.
        -11    1    4    4    0    0  0.31869870363E-01  0.53034236813E-01  0.27958412237E-02  0.61938653201E-01  0.51100000000E-03 0. -1.
         11    1    4    4    0    0  0.17285122710E-01  0.65670031016E-01  0.12102604704E-01  0.68978711226E-01  0.51100000000E-03 0.  1.
</event>
<event>
 8    1  0.1126414E+005  0.1043930E+01  0.7957747E-01            NaN
         13   -1    0    0    0    0  0.00000000000E+00  0.00000000000E+00  0.74505805969E-08  0.10566000000E+00  0.10566000000E+00 0. -1.
     999900   -1    0    0    0    0 -0.00000000000E+00 -0.00000000000E+00 -0.74505805969E-08  0.93827000000E+00  0.93827000000E+00 0.  1.
     999902    2    1    2    0    0 -0.16787000951E-01  0.43060352245E-02  0.17304348419E-01  0.10194394750E+01  0.10191452582E+01 0.  0.
     999903    2    3    3    0    0  0.31260891482E-01 -0.15690635266E-01  0.12486769923E+00  0.13136383564E+00  0.21001800649E-01 0.  0.
         14    1    1    2    0    0  0.16787000951E-01 -0.43060352245E-02 -0.17304348419E-01  0.24490524994E-01  0.00000000000E+00 0.  1.
     999901    1    3    3    0    0 -0.48047892432E-01  0.19996670490E-01 -0.10756335081E+00  0.88807563937E+00  0.88000000000E+00 0.  1.
        -11    1    4    4    0    0  0.88854297176E-02  0.49546557923E-02  0.26458233586E-01  0.28351344250E-01  0.51100000000E-03 0. -1.
         11    1    4    4    0    0  0.22375461764E-01 -0.20645291058E-01  0.98409465648E-01  0.10301249139E+00  0.51100000000E-03 0.  1.
</event>
<event>
 8    1  0.1126414E+005  0.1043930E+01  0.7957747E-01            NaN
         13   -1    0    0    0    0  0.00000000000E+00  0.00000000000E+00  0.74505805969E-08  0.10566000000E+00  0.10566000000E+00 0.  1.
     999900   -1    0    0    0    0 -0.00000000000E+00 -0.00000000000E+00 -0.74505805969E-08  0.93827000000E+00  0.93827000000E+00 0.  1.
     999902    2    1    2    0    0  0.11525920729E-01 -0.20017642996E-01 -0.19155526953E-02  0.10207519453E+01  0.10204887611E+01 0.  0.
     999903    2    3    3    0    0 -0.66846216791E-01  0.46459197153E-01 -0.98716488697E-01  0.12949901627E+00  0.19954357261E-01 0.  0.
         14    1    1    2    0    0 -0.11525920729E-01  0.20017642996E-01  0.19155526953E-02  0.23178054748E-01  0.00000000000E+00 0.  1.
     999901    1    3    3    0    0  0.78372137520E-01 -0.66476840150E-01  0.96800936002E-01  0.89125292899E+00  0.88000000000E+00 0. -1.
        -11    1    4    4    0    0 -0.13323546883E-01  0.75138168848E-03 -0.13790995977E-01  0.19197243735E-01  0.51100000000E-03 0. -1.
         11    1    4    4    0    0 -0.53522669908E-01  0.45707815465E-01 -0.84925492720E-01  0.11030177253E+00  0.51100000000E-03 0.  1.
</event>
<event>
 8    1  0.1126414E+005  0.1043930E+01  0.7957747E-01            NaN
         13   -1    0    0    0    0  0.00000000000E+00  0.00000000000E+00  0.74505805969E-08  0.10566000000E+00  0.10566000000E+00 0. -1.
     999900   -1    0    0    0    0 -0.00000000000E+00 -0.00000000000E+00 -0.74505805969E-08  0.93827000000E+00  0.93827000000E+00 0.  1.
     999902    2    1    2    0    0  0.50337329901E-02 -0.18875330351E-01  0.21759073347E-01  0.10146883544E+01  0.10142669189E+01 0.  0.
     999903    2    3    3    0    0  0.37721414191E-01 -0.10774139421E+00  0.56740732656E-01  0.12891785463E+00  0.19214301564E-01 0.  0.
         14    1    1    2    0    0 -0.50337329901E-02  0.18875330351E-01 -0.21759073347E-01  0.29241645586E-01  0.00000000000E+00 0.  1.
     999901    1    3    3    0    0 -0.32687681201E-01  0.88866063856E-01 -0.34981659310E-01  0.88577049979E+00  0.88000000000E+00 0.  1.
        -11    1    4    4    0    0  0.72007918729E-02 -0.48868062117E-01  0.26005434114E-01  0.55825465722E-01  0.51100000000E-03 0. -1.
         11    1    4    4    0    0  0.30520622318E-01 -0.58873332090E-01  0.30735298543E-01  0.73092388903E-01  0.51100000000E-03 0.  1.
</event>
<event>
 8    1  0.1126414E+005  0.1043930E+01  0.7957747E-01            NaN
         13   -1    0    0    0    0  0.00000000000E+00  0.00000000000E+00  0.74505805969E-08  0.10566000000E+00  0.10566000000E+00 0. -1.
     999900   -1    0    0    0    0 -0.00000000000E+00 -0.00000000000E+00 -0.74505805969E-08  0.93827000000E+00  0.93827000000E+00 0.  1.
     999902    2    1    2    0    0  0.19008806005E-01  0.10102536292E-01 -0.72134052466E-02  0.10212269350E+01  0.10209745460E+01 0.  0.
     999903    2    3    3    0    0  0.88683454101E-01  0.65519712278E-01  0.72036848117E-01  0.13319190042E+00  0.19828946566E-01 0.  0.
         14    1    1    2    0    0 -0.19008806005E-01 -0.10102536292E-01  0.72134052466E-02  0.22703065003E-01  0.00000000000E+00 0. -1.
     999901    1    3    3    0    0 -0.69674648096E-01 -0.55417175986E-01 -0.79250253364E-01  0.88803503458E+00  0.88000000000E+00 0.  1.
        -11    1    4    4    0    0  0.33896956093E-01  0.13618897754E-01  0.22119869811E-01  0.42708638117E-01  0.51100000000E-03 0. -1.
         11    1    4    4    0    0  0.54786498009E-01  0.51900814525E-01  0.49916978306E-01  0.90483262301E-01  0.51100000000E-03 0.  1.
</event>
<event>
 8    1  0.1126414E+005  0.1043930E+01  0.7957747E-01            NaN
         13   -1    0    0    0    0  0.00000000000E+00  0.00000000000E+00  0.74505805969E-08  0.10566000000E+00  0.10566000000E+00 0. -1.
     999900   -1    0    0    0    0 -0.00000000000E+00 -0.00000000000E+00 -0.74505805969E-08  0.93827000000E+00  0.93827000000E+00 0.  1.
     999902    2    1    2    0    0  0.11712568416E-01  0.38136986713E-02  0.20166436835E-01  0.10202992207E+01  0.10200255320E+01 0.  0.
     999903    2    3    3    0    0 -0.61227141186E-01 -0.85512696952E-01 -0.70791506870E-01  0.12812616925E+00  0.18538976309E-01 0.  0.
         14    1    1    2    0    0 -0.11712568416E-01 -0.38136986713E-02 -0.20166436835E-01  0.23630779315E-01  0.00000000000E+00 0.  1.
     999901    1    3    3    0    0  0.72939709602E-01  0.89326395623E-01  0.90957943705E-01  0.89217305144E+00  0.88000000000E+00 0. -1.
        -11    1    4    4    0    0 -0.10549446999E-01 -0.25307941692E-01 -0.12205668734E-01  0.30017032080E-01  0.51100000000E-03 0. -1.
         11    1    4    4    0    0 -0.50677694187E-01 -0.60204755260E-01 -0.58585838136E-01  0.98109137165E-01  0.51100000000E-03 0.  1.
</event>
<event>
 8    1  0.1126414E+005  0.1043930E+01  0.7957747E-01            NaN
         13   -1    0    0    0    0  0.00000000000E+00  0.00000000000E+00  0.74505805969E-08  0.10566000000E+00  0.10566000000E+00 0. -1.
     999900   -1    0    0    0    0 -0.00000000000E+00 -0.00000000000E+00 -0.74505805969E-08  0.93827000000E+00  0.93827000000E+00 0.  1.
     999902    2    1    2    0    0  0.32734015423E-02  0.25182667823E-01  0.17853115470E-02  0.10184727956E+01  0.10181545886E+01 0.  0.
     999903    2    3    3    0    0 -0.23532895615E-01 -0.31135119430E-01  0.12059872971E+00  0.12830039714E+00  0.19843020441E-01 0.  0.
         14    1    1    2    0    0 -0.32734015423E-02 -0.25182667823E-01 -0.17853115470E-02  0.25457204357E-01  0.00000000000E+00 0.  1.
     999901    1    3    3    0    0  0.26806297157E-01  0.56317787254E-01 -0.11881341816E+00  0.89017239851E+00  0.88000000000E+00 0.  1.
        -11    1    4    4    0    0 -0.14196753860E-02  0.13087931551E-02  0.23178224796E-01  0.23264127824E-01  0.51100000000E-03 0. -1.
         11    1    4    4    0    0 -0.22113220229E-01 -0.32443912585E-01  0.97420504912E-01  0.10503626931E+00  0.51100000000E-03 0.  1.
</event>
<event>
 8    1  0.1126414E+005  0.1043930E+01  0.7957747E-01            NaN
         13   -1    0    0    0    0  0.00000000000E+00  0.00000000000E+00  0.74505805969E-08  0.10566000000E+00  0.10566000000E+00 0. -1.
     999900   -1    0    0    0    0 -0.00000000000E+00 -0.00000000000E+00 -0.74505805969E-08  0.93827000000E+00  0.93827000000E+00 0.  1.
     999902    2    1    2    0    0  0.14327006808E-01 -0.37303301612E-02 -0.18602262457E-01  0.10201555882E+01  0.10198785229E+01 0.  0.
     999903    2    3    3    0    0 -0.36087887674E-01  0.69552627909E-01 -0.10406626947E+00  0.13155210520E+00  0.18337509536E-01 0.  0.
         14    1    1    2    0    0 -0.14327006808E-01  0.37303301612E-02  0.18602262457E-01  0.23774411785E-01  0.00000000000E+00 0. -1.
     999901    1    3    3    0    0  0.50414894482E-01 -0.73282958070E-01  0.85464007012E-01  0.88860348301E+00  0.88000000000E+00 0. -1.
        -11    1    4    4    0    0 -0.31316023114E-01  0.44445284596E-01 -0.63429731805E-01  0.83544411090E-01  0.51100000000E-03 0. -1.
         11    1    4    4    0    0 -0.47718645599E-02  0.25107343312E-01 -0.40636537665E-01  0.48007694112E-01  0.51100000000E-03 0.  1.
</event>
<event>
 8    1  0.1126414E+005  0.1043930E+01  0.7957747E-01            NaN
         13   -1    0    0    0    0  0.00000000000E+00  0.00000000000E+00  0.74505805969E-08  0.10566000000E+00  0.10566000000E+00 0.  1.
     999900   -1    0    0    0    0 -0.00000000000E+00 -0.00000000000E+00 -0.74505805969E-08  0.93827000000E+00  0.93827000000E+00 0.  1.
     999902    2    1    2    0    0 -0.23562478629E-01 -0.38230330379E-02 -0.11240198373E-02  0.10200329416E+01  0.10197529762E+01 0.  0.
     999903    2    3    3    0    0 -0.68846752258E-01 -0.10964142237E+00 -0.17598372882E-01  0.13238458706E+00  0.21327432271E-01 0.  0.
         14    1    1    2    0    0  0.23562478629E-01  0.38230330379E-02  0.11240198373E-02  0.23897058424E-01  0.00000000000E+00 0. -1.
     999901    1    3    3    0    0  0.45284273630E-01  0.10581838934E+00  0.16474353045E-01  0.88764835451E+00  0.88000000000E+00 0. -1.
        -11    1    4    4    0    0 -0.64804800187E-02 -0.21818673263E-01  0.21713818155E-02  0.22869786711E-01  0.51100000000E-03 0. -1.
         11    1    4    4    0    0 -0.62366272240E-01 -0.87822749110E-01 -0.19769754697E-01  0.10951480035E+00  0.51100000000E-03 0.  1.
</event>
<event>
 8    1  0.1126414E+005  0.1043930E+01  0.7957747E-01            NaN
         13   -1    0    0    0    0  0.00000000000E+00  0.00000000000E+00  0.74505805969E-08  0.10566000000E+00  0.10566000000E+00 0.  1.
     999900   -1    0    0    0    0 -0.00000000000E+00 -0.00000000000E+00 -0.74505805969E-08  0.93827000000E+00  0.93827000000E+00 0. -1.
     999902    2    1    2    0    0 -0.23203250112E-01 -0.10208198432E-02  0.71706715722E-02  0.10196225645E+01  0.10193327831E+01 0.  0.
     999903    2    3    3    0    0  0.36496976027E-01 -0.34695650500E-01  0.11853713130E+00  0.12995937006E+00  0.17394509084E-01 0.  0.
         14    1    1    2    0    0  0.23203250112E-01  0.10208198432E-02 -0.71706715722E-02  0.24307435482E-01  0.00000000000E+00 0. -1.
     999901    1    3    3    0    0 -0.59700226139E-01  0.33674830657E-01 -0.11136645973E+00  0.88966319446E+00  0.88000000000E+00 0. -1.
        -11    1    4    4    0    0  0.20377750150E-01 -0.23902428979E-01  0.53008641516E-01  0.61617822168E-01  0.51100000000E-03 0.  1.
         11    1    4    4    0    0  0.16119225876E-01 -0.10793221521E-01  0.65528489786E-01  0.68341547892E-01  0.51100000000E-03 0. -1.
</event>
<event>
 8    1  0.1126414E+005  0.1043930E+01  0.7957747E-01            NaN
         13   -1    0    0    0    0  0.00000000000E+00  0.00000000000E+00  0.74505805969E-08  0.10566000000E+00  0.10566000000E+00 0. -1.
     999900   -1    0    0    0    0 -0.00000000000E+00 -0.00000000000E+00 -0.74505805969E-08  0.93827000000E+00  0.93827000000E+00 0.  1.
     999902    2    1    2    0    0  0.19567248997E-01  0.67012346898E-02 -0.12609036563E-01  0.10197066315E+01  0.10194188750E+01 0.  0.
     999903    2    3    3    0    0 -0.10257366160E+00 -0.66488873126E-01  0.27004259609E-01  0.12738135045E+00  0.23551053069E-01 0.  0.
         14    1    1    2    0    0 -0.19567248997E-01 -0.67012346898E-02  0.12609036563E-01  0.24223368525E-01  0.00000000000E+00 0. -1.
     999901    1    3    3    0    0  0.12214091060E+00  0.73190107815E-01 -0.39613296172E-01  0.89232528103E+00  0.88000000000E+00 0.  1.
        -11    1    4    4    0    0 -0.32622223930E-02 -0.27684376928E-02  0.62215028179E-02  0.75679958056E-02  0.51100000000E-03 0.  1.
         11    1    4    4    0    0 -0.99311439212E-01 -0.63720435433E-01  0.20782756791E-01  0.11981335464E+00  0.51100000000E-03 0. -1.
</event>
<event>
 8    1  0.1126414E+005  0.1043930E+01  0.7957747E-01            NaN
         13   -1    0    0    0    0  0.00000000000E+00  0.00000000000E+00  0.74505805969E-08  0.10566000000E+00  0.10566000000E+00 0. -1.
     999900   -1    0    0    0    0 -0.00000000000E+00 -0.00000000000E+00 -0.74505805969E-08  0.93827000000E+00  0.93827000000E+00 0. -1.
     999902    2    1    2    0    0 -0.15587947351E-01 -0.36266135693E-02  0.18049661353E-01  0.10198068430E+01  0.10195214909E+01 0.  0.
     999903    2    3    3    0    0 -0.74709170840E-01 -0.80559182376E-01  0.71938196381E-01  0.13283564087E+00  0.19974015947E-01 0.  0.
         14    1    1    2    0    0  0.15587947351E-01  0.36266135693E-02 -0.18049661353E-01  0.24123156998E-01  0.00000000000E+00 0.  1.
     999901    1    3    3    0    0  0.59121223489E-01  0.76932568807E-01 -0.53888535028E-01  0.88697120214E+00  0.88000000000E+00 0. -1.
        -11    1    4    4    0    0 -0.50412558035E-01 -0.66974051558E-01  0.54118574834E-01  0.99779912070E-01  0.51100000000E-03 0. -1.
         11    1    4    4    0    0 -0.24296612806E-01 -0.13585130819E-01  0.17819621547E-01  0.33055728797E-01  0.51100000000E-03 0.  1.
</event>
<event>
 8    1  0.1126414E+005  0.1043930E+01  0.7957747E-01            NaN
         13   -1    0    0    0    0  0.00000000000E+00  0.00000000000E+00  0.74505805969E-08  0.10566000000E+00  0.10566000000E+00 0. -1.
     999900   -1    0    0    0    0 -0.00000000000E+00 -0.00000000000E+00 -0.74505805969E-08  0.93827000000E+00  0.93827000000E+00 0. -1.
     999902    2    1    2    0    0  0.55352165322E-02  0.22299309041E-01  0.38740506678E-02  0.10206296551E+01  0.10203636542E+01 0.  0.
     999903    2    3    3    0    0  0.31625965376E-01 -0.11755331942E+00 -0.35297080353E-01  0.12834390354E+00  0.20181404848E-01 0.  0.
         14    1    1    2    0    0 -0.55352165322E-02 -0.22299309041E-01 -0.38740506678E-02  0.23300344941E-01  0.00000000000E+00 0.  1.
     999901    1    3    3    0    0 -0.26090748844E-01  0.13985262846E+00  0.39171131020E-01  0.89228575152E+00  0.88000000000E+00 0.  1.
        -11    1    4    4    0    0  0.27385254661E-01 -0.66591212938E-01 -0.16604003859E-01  0.73893814887E-01  0.51100000000E-03 0.  1.
         11    1    4    4    0    0  0.42407107153E-02 -0.50962106480E-01 -0.18693076494E-01  0.54450088651E-01  0.51100000000E-03 0. -1.
</event>
<event>
 8    1  0.1126414E+005  0.1043930E+01  0.7957747E-01            NaN
         13   -1    0    0    0    0  0.00000000000E+00  0.00000000000E+00  0.74505805969E-08  0.10566000000E+00  0.10566000000E+00 0.  1.
     999900   -1    0    0    0    0 -0.00000000000E+00 -0.00000000000E+00 -0.74505805969E-08  0.93827000000E+00  0.93827000000E+00 0.  1.
     999902    2    1    2    0    0  0.34775933875E-02 -0.21988283467E-01  0.10257401254E-01  0.10194189301E+01  0.10191242135E+01 0.  0.
     999903    2    3    3    0    0 -0.47360593908E-01  0.10615400239E+00 -0.46658657365E-01  0.12686954526E+00  0.20178035763E-01 0.  0.
         14    1    1    2    0    0 -0.34775933875E-02  0.21988283467E-01 -0.10257401254E-01  0.24511069869E-01  0.00000000000E+00 0. -1.
     999901    1    3    3    0    0  0.50838187295E-01 -0.12814228586E+00  0.56916058619E-01  0.89254938488E+00  0.88000000000E+00 0.  1.
        -11    1    4    4    0    0 -0.96749525827E-02  0.42660048891E-01 -0.22410623164E-01  0.49152636048E-01  0.51100000000E-03 0. -1.
         11    1    4    4    0    0 -0.37685641325E-01  0.63493953501E-01 -0.24248034200E-01  0.77716909208E-01  0.51100000000E-03 0.  1.
</event>
<event>
 8    1  0.1126414E+005  0.1043930E+01  0.7957747E-01            NaN
         13   -1    0    0    0    0  0.00000000000E+00  0.00000000000E+00  0.74505805969E-08  0.10566000000E+00  0.10566000000E+00 0. -1.
     999900   -1    0    0    0    0 -0.00000000000E+00 -0.00000000000E+00 -0.74505805969E-08  0.93827000000E+00  0.93827000000E+00 0. -1.
     999902    2    1    2    0    0 -0.18146444193E-01 -0.77692210321E-02 -0.13459783250E-01  0.10200381604E+01  0.10197583188E+01 0.  0.
     999903    2    3    3    0    0  0.11598203139E+00 -0.38360030934E-01 -0.36565095009E-01  0.12904988833E+00  0.19837941592E-01 0.  0.
         14    1    1    2    0    0  0.18146444193E-01  0.77692210321E-02  0.13459783250E-01  0.23891839557E-01  0.00000000000E+00 0.  1.
     999901    1    3    3    0    0 -0.13412847558E+00  0.30590809902E-01  0.23105311759E-01  0.89098827211E+00  0.88000000000E+00 0. -1.
        -11    1    4    4    0    0  0.10433505279E+00 -0.35314486016E-01 -0.26363044057E-01  0.11326158826E+00  0.51100000000E-03 0. -1.
         11    1    4    4    0    0  0.11646978598E-01 -0.30455449176E-02 -0.10202050951E-01  0.15788300065E-01  0.51100000000E-03 0.  1.
</event>
<event>
 8    1  0.1126414E+005  0.1043930E+01  0.7957747E-01            NaN
         13   -1    0    0    0    0  0.00000000000E+00  0.00000000000E+00  0.74505805969E-08  0.10566000000E+00  0.10566000000E+00 0. -1.
     999900   -1    0    0    0    0 -0.00000000000E+00 -0.00000000000E+00 -0.74505805969E-08  0.93827000000E+00  0.93827000000E+00 0. -1.
     999902    2    1    2    0    0  0.15782470297E-01  0.16404732832E-01  0.10631776876E-03  0.10211657093E+01  0.10209119418E+01 0.  0.
     999903    2    3    3    0    0 -0.67846944936E-01  0.50009792036E-01 -0.98307787469E-01  0.13110474778E+00  0.20490158054E-01 0.  0.
         14    1    1    2    0    0 -0.15782470297E-01 -0.16404732832E-01 -0.10631776876E-03  0.22764290708E-01  0.00000000000E+00 0.  1.
     999901    1    3    3    0    0  0.83629415233E-01 -0.33605059204E-01  0.98414105237E-01  0.89006096151E+00  0.88000000000E+00 0.  1.
        -11    1    4    4    0    0 -0.55247067476E-01  0.48082058444E-01 -0.89270494905E-01  0.11547123101E+00  0.51100000000E-03 0. -1.
         11    1    4    4    0    0 -0.12599877459E-01  0.19277335917E-02 -0.90372925631E-02  0.15633516772E-01  0.51100000000E-03 0.  1.
</event>
<event>
 8    1  0.1126414E+005  0.1043930E+01  0.7957747E-01            NaN
         13   -1    0    0    0    0  0.00000000000E+00  0.00000000000E+00  0.74505805969E-08  0.10566000000E+00  0.10566000000E+00 0.  1.
     999900   -1    0    0    0    0 -0.00000000000E+00 -0.00000000000E+00 -0.74505805969E-08  0.93827000000E+00  0.93827000000E+00 0.  1.
     999902    2    1    2    0    0 -0.33626486909E-02  0.17284916689E-01  0.14609186368E-01  0.10210497885E+01  0.10207934005E+01 0.  0.
     999903    2    3    3    0    0  0.31480266129E-01  0.12826638987E+00 -0.38185330934E-02  0.13320380134E+00  0.16893713917E-01 0.  0.
         14    1    1    2    0    0  0.33626486909E-02 -0.17284916689E-01 -0.14609186368E-01  0.22880211483E-01  0.00000000000E+00 0. -1.
     999901    1    3    3    0    0 -0.34842914820E-01 -0.11098147318E+00  0.18427719461E-01  0.88784598718E+00  0.88000000000E+00 0. -1.
        -11    1    4    4    0    0  0.30041765922E-01  0.90716625786E-01 -0.32775064080E-02  0.95619124985E-01  0.51100000000E-03 0. -1.
         11    1    4    4    0    0  0.14385002074E-02  0.37549764087E-01 -0.54102668546E-03  0.37584676355E-01  0.51100000000E-03 0.  1.
</event>
<event>
 8    1  0.1126414E+005  0.1043930E+01  0.7957747E-01            NaN
         13   -1    0    0    0    0  0.00000000000E+00  0.00000000000E+00  0.74505805969E-08  0.10566000000E+00  0.10566000000E+00 0.  1.
     999900   -1    0    0    0    0 -0.00000000000E+00 -0.00000000000E+00 -0.74505805969E-08  0.93827000000E+00  0.93827000000E+00 0. -1.
     999902    2    1    2    0    0 -0.57405500070E-02  0.22568412115E-01 -0.17474053877E-02  0.10205774720E+01  0.10203102644E+01 0.  0.
     999903    2    3    3    0    0  0.67551845984E-01  0.10151411508E-01  0.10915546142E+00  0.13050702359E+00  0.21233591256E-01 0.  0.
         14    1    1    2    0    0  0.57405500070E-02 -0.22568412115E-01  0.17474053877E-02  0.23352528029E-01  0.00000000000E+00 0.  1.
     999901    1    3    3    0    0 -0.73292395991E-01  0.12417000606E-01 -0.11090286681E+00  0.89007044838E+00  0.88000000000E+00 0. -1.
        -11    1    4    4    0    0  0.18155885336E-01 -0.54909039276E-02  0.38117514726E-01  0.42579246684E-01  0.51100000000E-03 0.  1.
         11    1    4    4    0    0  0.49395960648E-01  0.15642315436E-01  0.71037946692E-01  0.87927776907E-01  0.51100000000E-03 0. -1.
</event>
<event>
 8    1  0.1126414E+005  0.1043930E+01  0.7957747E-01            NaN
         13   -1    0    0    0    0  0.00000000000E+00  0.00000000000E+00  0.74505805969E-08  0.10566000000E+00  0.10566000000E+00 0.  1.
     999900   -1    0    0    0    0 -0.00000000000E+00 -0.00000000000E+00 -0.74505805969E-08  0.93827000000E+00  0.93827000000E+00 0.  1.
     999902    2    1    2    0    0 -0.17113226274E-01  0.12500133805E-01 -0.10198167081E-01  0.10204115292E+01  0.10201404660E+01 0.  0.
     999903    2    3    3    0    0  0.93994444395E-01  0.64546372459E-01  0.58864090254E-01  0.12921945064E+00  0.15214977060E-01 0.  0.
         14    1    1    2    0    0  0.17113226274E-01 -0.12500133805E-01  0.10198167081E-01  0.23518470836E-01  0.00000000000E+00 0. -1.
     999901    1    3    3    0    0 -0.11110767067E+00 -0.52046238654E-01 -0.69062257335E-01  0.89119207853E+00  0.88000000000E+00 0.  1.
        -11    1    4    4    0    0  0.40203136795E-01  0.35558799870E-01  0.31798317020E-01  0.62386813852E-01  0.51100000000E-03 0. -1.
         11    1    4    4    0    0  0.53791307600E-01  0.28987572589E-01  0.27065773234E-01  0.66832636785E-01  0.51100000000E-03 0.  1.
</event>
<event>
 8    1  0.1126414E+005  0.1043930E+01  0.7957747E-01            NaN
         13   -1    0    0    0    0  0.00000000000E+00  0.00000000000E+00  0.74505805969E-08  0.10566000000E+00  0.10566000000E+00 0. -1.
     999900   -1    0    0    0    0 -0.00000000000E+00 -0.00000000000E+00 -0.74505805969E-08  0.93827000000E+00  0.93827000000E+00 0. -1.
     999902    2    1    2    0    0 -0.11851366231E-01  0.48667398883E-02 -0.19106227833E-01  0.10209259138E+01  0.10206667103E+01 0.  0.
     999903    2    3    3    0    0 -0.94549484809E-01 -0.83077060813E-01 -0.36569715584E-01  0.13251268548E+00  0.19515752708E-01 0.  0.
         14    1    1    2    0    0  0.11851366231E-01 -0.48667398883E-02  0.19106227833E-01  0.23004086174E-01  0.00000000000E+00 0. -1.
     999901    1    3    3    0    0  0.82698118579E-01  0.87943800702E-01  0.17463487751E-01  0.88841322835E+00  0.88000000000E+00 0. -1.
        -11    1    4    4    0    0 -0.64765088439E-01 -0.66049604758E-01 -0.32069191526E-01  0.97906900346E-01  0.51100000000E-03 0.  1.
         11    1    4    4    0    0 -0.29784396370E-01 -0.17027456056E-01 -0.45005240576E-02  0.34605785133E-01  0.51100000000E-03 0. -1.
</event>
<event>
 8    1  0.1126414E+005  0.1043930E+01  0.7957747E-01            NaN
         13   -1    0    0    0    0  0.00000000000E+00  0.00000000000E+00  0.74505805969E-08  0.10566000000E+00  0.10566000000E+00 0. -1.
     999900   -1    0    0    0    0 -0.00000000000E+00 -0.00000000000E+00 -0.74505805969E-08  0.93827000000E+00  0.93827000000E+00 0.  1.
     999902    2    1    2    0    0  0.21624975066E-01  0.43286357828E-03  0.77957940334E-03  0.10222866486E+01  0.10220575117E+01 0.  0.
     999903    2    3    3    0    0  0.79395370503E-01 -0.10528084592E+00 -0.12108843492E-01  0.13398550682E+00  0.20440415210E-01 0.  0.
         14    1    1    2    0    0 -0.21624975066E-01 -0.43286357828E-03 -0.77957940334E-03  0.21643351440E-01  0.00000000000E+00 0.  1.
     999901    1    3    3    0    0 -0.57770395437E-01  0.10571370950E+00  0.12888422895E-01  0.88830114174E+00  0.88000000000E+00 0. -1.
        -11    1    4    4    0    0  0.29892934530E-01 -0.51394762309E-01 -0.12744039241E-01  0.60808558483E-01  0.51100000000E-03 0. -1.
         11    1    4    4    0    0  0.49502435973E-01 -0.53886083608E-01  0.63519574963E-03  0.73176948341E-01  0.51100000000E-03 0.  1.
</event>
<event>
 8    1  0.1126414E+005  0.1043930E+01  0.7957747E-01            NaN
         13   -1    0    0    0    0  0.00000000000E+00  0.00000000000E+00  0.74505805969E-08  0.10566000000E+00  0.10566000000E+00 0. -1.
     999900   -1    0    0    0    0 -0.00000000000E+00 -0.00000000000E+00 -0.74505805969E-08  0.93827000000E+00  0.93827000000E+00 0. -1.
     999902    2    1    2    0    0 -0.22042300367E-01 -0.87699497825E-02  0.38273131737E-02  0.10199003652E+01  0.10196172475E+01 0.  0.
     999903    2    3    3    0    0  0.63891567029E-02 -0.38522559304E-01 -0.12231729091E+00  0.12995316073E+00  0.20037350849E-01 0.  0.
         14    1    1    2    0    0  0.22042300367E-01  0.87699497825E-02 -0.38273131737E-02  0.24029634845E-01  0.00000000000E+00 0. -1.
     999901    1    3    3    0    0 -0.28431457070E-01  0.29752609521E-01  0.12614460409E+00  0.88994720443E+00  0.88000000000E+00 0.  1.
        -11    1    4    4    0    0  0.90101106094E-02 -0.33009128609E-01 -0.77497334264E-01  0.84716483660E-01  0.51100000000E-03 0.  1.
         11    1    4    4    0    0 -0.26209539065E-02 -0.55134306945E-02 -0.44819956648E-01  0.45236677070E-01  0.51100000000E-03 0. -1.
</event>
<event>
 8    1  0.1126414E+005  0.1043930E+01  0.7957747E-01            NaN
         13   -1    0    0    0    0  0.00000000000E+00  0.00000000000E+00  0.74505805969E-08  0.10566000000E+00  0.10566000000E+00 0.  1.
     999900   -1    0    0    0    0 -0.00000000000E+00 -0.00000000000E+00 -0.74505805969E-08  0.93827000000E+00  0.93827000000E+00 0.  1.
     999902    2    1    2    0    0 -0.19250924469E-01  0.78180252925E-02  0.13253432359E-01  0.10192850597E+01  0.10189870754E+01 0.  0.
     999903    2    3    3    0    0  0.20699696220E-01 -0.12488763680E+00 -0.70692792928E-03  0.12832954090E+00  0.21037396958E-01 0.  0.
         14    1    1    2    0    0  0.19250924469E-01 -0.78180252925E-02 -0.13253432359E-01  0.24644940285E-01  0.00000000000E+00 0. -1.
     999901    1    3    3    0    0 -0.39950620689E-01  0.13270566210E+00  0.13960360288E-01  0.89095551881E+00  0.88000000000E+00 0. -1.
        -11    1    4    4    0    0  0.13878597268E-01 -0.75262618277E-01  0.97612934926E-02  0.77153231583E-01  0.51100000000E-03 0. -1.
         11    1    4    4    0    0  0.68210989519E-02 -0.49625018527E-01 -0.10468221422E-01  0.51176309318E-01  0.51100000000E-03 0.  1.
</event>
<event>
 8    1  0.1126414E+005  0.1043930E+01  0.7957747E-01            NaN
         13   -1    0    0    0    0  0.00000000000E+00  0.00000000000E+00  0.74505805969E-08  0.10566000000E+00  0.10566000000E+00 0. -1.
     999900   -1    0    0    0    0 -0.00000000000E+00 -0.00000000000E+00 -0.74505805969E-08  0.93827000000E+00  0.93827000000E+00 0.  1.
     999902    2    1    2    0    0 -0.78518082775E-02  0.61947906265E-02 -0.21055738904E-01  0.10206196919E+01  0.10203534608E+01 0.  0.
     999903    2    3    3    0    0  0.44283755022E-01 -0.10695938528E+00  0.49418349939E-01  0.12905444935E+00  0.28487129166E-01 0.  0.
         14    1    1    2    0    0  0.78518082775E-02 -0.61947906265E-02  0.21055738904E-01  0.23310308126E-01  0.00000000000E+00 0. -1.
     999901    1    3    3    0    0 -0.52135563299E-01  0.11315417590E+00 -0.70474088843E-01  0.89156524253E+00  0.88000000000E+00 0.  1.
        -11    1    4    4    0    0  0.35241495223E-01 -0.61319432514E-01  0.41054696561E-01  0.81778878814E-01  0.51100000000E-03 0. -1.
         11    1    4    4    0    0  0.90422597985E-02 -0.45639952762E-01  0.83636533780E-02  0.47275570532E-01  0.51100000000E-03 0.  1.
</event>
<event>
 8    1  0.1126414E+005  0.1043930E+01  0.7957747E-01            NaN
         13   -1    0    0    0    0  0.00000000000E+00  0.00000000000E+00  0.74505805969E-08  0.10566000000E+00  0.10566000000E+00 0. -1.
     999900   -1    0    0    0    0 -0.00000000000E+00 -0.00000000000E+00 -0.74505805969E-08  0.93827000000E+00  0.93827000000E+00 0.  1.
     999902    2    1    2    0    0  0.12130439192E-01  0.40771546701E-02 -0.13329441809E-01  0.10254517759E+01  0.10252852774E+01 0.  0.
     999903    2    3    3    0    0  0.62857559505E-01 -0.88031193906E-01 -0.80992967371E-01  0.13661234089E+00  0.20062577942E-01 0.  0.
         14    1    1    2    0    0 -0.12130439192E-01 -0.40771546701E-02  0.13329441809E-01  0.18478224053E-01  0.00000000000E+00 0.  1.
     999901    1    3    3    0    0 -0.50727120313E-01  0.92108348576E-01  0.67663525562E-01  0.88883943505E+00  0.88000000000E+00 0. -1.
        -11    1    4    4    0    0  0.13668382375E-01 -0.22601407422E-01 -0.99680477266E-02  0.28235994593E-01  0.51100000000E-03 0. -1.
         11    1    4    4    0    0  0.49189177130E-01 -0.65429786485E-01 -0.71024919644E-01  0.10837634630E+00  0.51100000000E-03 0.  1.
</event>
<event>
 8    1  0.1126414E+005  0.1043930E+01  0.7957747E-01            NaN
         13   -1    0    0    0    0  0.00000000000E+00  0.00000000000E+00  0.74505805969E-08  0.10566000000E+00  0.10566000000E+00 0.  1.
     999900   -1    0    0    0    0 -0.00000000000E+00 -0.00000000000E+00 -0.74505805969E-08  0.93827000000E+00  0.93827000000E+00 0. -1.
     999902    2    1    2    0    0 -0.55623304876E-02  0.17657108116E-01 -0.15415219413E-01  0.10198397120E+01  0.10195551462E+01 0.  0.
     999903    2    3    3    0    0 -0.99798756374E-01  0.81809571259E-02 -0.83864717272E-01  0.13211473477E+00  0.19856800015E-01 0.  0.
         14    1    1    2    0    0  0.55623304876E-02 -0.17657108116E-01  0.15415219413E-01  0.24090288023E-01  0.00000000000E+00 0.  1.
     999901    1    3    3    0    0  0.94236425886E-01  0.94761509906E-02  0.68449497859E-01  0.88772497721E+00  0.88000000000E+00 0.  1.
        -11    1    4    4    0    0 -0.69817491555E-01 -0.10013409869E-02 -0.49501600454E-01  0.85592957533E-01  0.51100000000E-03 0.  1.
         11    1    4    4    0    0 -0.29981264819E-01  0.91822981128E-02 -0.34363116818E-01  0.46521777236E-01  0.51100000000E-03 0. -1.
</event>
<event>
 8    1  0.1126414E+005  0.1043930E+01  0.7957747E-01            NaN
         13   -1    0    0    0    0  0.00000000000E+00  0.00000000000E+00  0.74505805969E-08  0.10566000000E+00  0.10566000000E+00 0.  1.
     999900   -1    0    0    0    0 -0.00000000000E+00 -0.00000000000E+00 -0.74505805969E-08  0.93827000000E+00  0.93827000000E+00 0. -1.
     999902    2    1    2    0    0 -0.62672986793E-02  0.50336247274E-02  0.21561501300E-01  0.10209188125E+01  0.10206594471E+01 0.  0.
     999903    2    3    3    0    0 -0.51340146538E-01  0.49406744432E-01  0.11177722939E+00  0.13404823969E+00  0.19948546628E-01 0.  0.
         14    1    1    2    0    0  0.62672986793E-02 -0.50336247274E-02 -0.21561501300E-01  0.23011187474E-01  0.00000000000E+00 0. -1.
     999901    1    3    3    0    0  0.45072847859E-01 -0.44373119705E-01 -0.90215728088E-01  0.88687057284E+00  0.88000000000E+00 0.  1.
        -11    1    4    4    0    0 -0.92420192267E-03  0.85156907987E-02  0.18637368828E-01  0.20517889190E-01  0.51100000000E-03 0. -1.
         11    1    4    4    0    0 -0.50415944616E-01  0.40891053633E-01  0.93139860561E-01  0.11353035050E+00  0.51100000000E-03 0.  1.
</event>
<event>
 8    1  0.1126414E+005  0.1043930E+01  0.7957747E-01            NaN
         13   -1    0    0    0    0  0.00000000000E+00  0.00000000000E+00  0.74505805969E-08  0.10566000000E+00  0.10566000000E+00 0.  1.
     999900   -1    0    0    0    0 -0.00000000000E+00 -0.00000000000E+00 -0.74505805969E-08  0.93827000000E+00  0.93827000000E+00 0. -1.
     999902    2    1    2    0    0  0.23641305669E-01  0.94113924687E-02  0.71457058011E-02  0.10174999649E+01  0.10171566408E+01 0.  0.
     999903    2    3    3    0    0  0.93432795019E-01  0.11011803590E-01 -0.86846529298E-01  0.12974552053E+00  0.20991270669E-01 0.  0.
         14    1    1    2    0    0 -0.23641305669E-01 -0.94113924687E-02 -0.71457058011E-02  0.26430035061E-01  0.00000000000E+00 0.  1.
     999901    1    3    3    0    0 -0.69791489350E-01 -0.16004111209E-02  0.93992235099E-01  0.88775444440E+00  0.88000000000E+00 0.  1.
        -11    1    4    4    0    0  0.47043854327E-01  0.43914649008E-02 -0.57620431876E-01  0.74517008022E-01  0.51100000000E-03 0.  1.
         11    1    4    4    0    0  0.46388940692E-01  0.66203386887E-02 -0.29226097422E-01  0.55228512513E-01  0.51100000000E-03 0. -1.
</event>
<event>
 8    1  0.1126414E+005  0.1043930E+01  0.7957747E-01            NaN
         13   -1    0    0    0    0  0.00000000000E+00  0.00000000000E+00  0.74505805969E-08  0.10566000000E+00  0.10566000000E+00 0. -1.
     999900   -1    0    0    0    0 -0.00000000000E+00 -0.00000000000E+00 -0.74505805969E-08  0.93827000000E+00  0.93827000000E+00 0.  1.
     999902    2    1    2    0    0  0.16825244030E-01 -0.12201388415E-02 -0.16093235680E-01  0.10206154164E+01  0.10203490865E+01 0.  0.
     999903    2    3    3    0    0 -0.43161351611E-01 -0.10426271785E-01 -0.12279254626E+00  0.13209536177E+00  0.19989141267E-01 0.  0.
         14    1    1    2    0    0 -0.16825244030E-01  0.12201388415E-02  0.16093235680E-01  0.23314583636E-01  0.00000000000E+00 0. -1.
     999901    1    3    3    0    0  0.59986595642E-01  0.92061329434E-02  0.10669931058E+00  0.88852005460E+00  0.88000000000E+00 0. -1.
        -11    1    4    4    0    0 -0.16033168210E-01 -0.14033697614E-01 -0.55046198294E-01  0.59028401801E-01  0.51100000000E-03 0. -1.
         11    1    4    4    0    0 -0.27128183401E-01  0.36074258289E-02 -0.67746347962E-01  0.73066959968E-01  0.51100000000E-03 0.  1.
</event>
<event>
 8    1  0.1126414E+005  0.1043930E+01  0.7957747E-01            NaN
         13   -1    0    0    0    0  0.00000000000E+00  0.00000000000E+00  0.74505805969E-08  0.10566000000E+00  0.10566000000E+00 0. -1.
     999900   -1    0    0    0    0 -0.00000000000E+00 -0.00000000000E+00 -0.74505805969E-08  0.93827000000E+00  0.93827000000E+00 0.  1.
     999902    2    1    2    0    0 -0.19416777283E-01  0.13667841807E-01 -0.10648192507E-02  0.10201612184E+01  0.10198842858E+01 0.  0.
     999903    2    3    3    0    0 -0.92815043776E-01  0.92655250186E-01 -0.14312560307E-01  0.13348099482E+00  0.20314990960E-01 0.  0.
         14    1    1    2    0    0  0.19416777283E-01 -0.13667841807E-01  0.10648192507E-02  0.23768781621E-01  0.00000000000E+00 0. -1.
     999901    1    3    3    0    0  0.73398266493E-01 -0.78987408379E-01  0.13247741057E-01  0.88668022356E+00  0.88000000000E+00 0.  1.
        -11    1    4    4    0    0 -0.11416140308E-01  0.13866313287E-01  0.47893237005E-02  0.18595742691E-01  0.51100000000E-03 0. -1.
         11    1    4    4    0    0 -0.81398903467E-01  0.78788936898E-01 -0.19101884008E-01  0.11488525213E+00  0.51100000000E-03 0.  1.
</event>
<event>
 8    1  0.1126414E+005  0.1043930E+01  0.7957747E-01            NaN
         13   -1    0    0    0    0  0.00000000000E+00  0.00000000000E+00  0.74505805969E-08  0.10566000000E+00  0.10566000000E+00 0.  1.
     999900   -1    0    0    0    0 -0.00000000000E+00 -0.00000000000E+00 -0.74505805969E-08  0.93827000000E+00  0.93827000000E+00 0.  1.
     999902    2    1    2    0    0  0.15809532811E-01  0.69522812379E-03 -0.16906688155E-01  0.10207726950E+01  0.10205099873E+01 0.  0.
     999903    2    3    3    0    0 -0.93389448273E-01 -0.78320011091E-01  0.37148024221E-01  0.12887038118E+00  0.19286945197E-01 0.  0.
         14    1    1    2    0    0 -0.15809532811E-01 -0.69522812379E-03  0.16906688155E-01  0.23157304986E-01  0.00000000000E+00 0.  1.
     999901    1    3    3    0    0  0.10919898108E+00  0.79015239215E-01 -0.54054712377E-01  0.89190231384E+00  0.88000000000E+00 0. -1.
        -11    1    4    4    0    0 -0.23599446349E-01 -0.21283300353E-01  0.11204006752E-02  0.31802974083E-01  0.51100000000E-03 0.  1.
         11    1    4    4    0    0 -0.69790001924E-01 -0.57036710739E-01  0.36027623546E-01  0.97067407093E-01  0.51100000000E-03 0. -1.
</event>
<event>
 8    1  0.1126414E+005  0.1043930E+01  0.7957747E-01            NaN
         13   -1    0    0    0    0  0.00000000000E+00  0.00000000000E+00  0.74505805969E-08  0.10566000000E+00  0.10566000000E+00 0.  1.
     999900   -1    0    0    0    0 -0.00000000000E+00 -0.00000000000E+00 -0.74505805969E-08  0.93827000000E+00  0.93827000000E+00 0. -1.
     999902    2    1    2    0    0  0.55358805958E-02  0.91388028163E-02 -0.20044551253E-01  0.10212155173E+01  0.10209628715E+01 0.  0.
     999903    2    3    3    0    0  0.13921804483E-01  0.12500674629E+00 -0.39010735357E-01  0.13337802077E+00  0.21150784732E-01 0.  0.
         14    1    1    2    0    0 -0.55358805958E-02 -0.91388028163E-02  0.20044551253E-01  0.22714482733E-01  0.00000000000E+00 0.  1.
     999901    1    3    3    0    0 -0.83859238873E-02 -0.11586794347E+00  0.18966184104E-01  0.88783749650E+00  0.88000000000E+00 0.  1.
        -11    1    4    4    0    0 -0.79425554466E-03  0.56840341197E-01 -0.94295023694E-02  0.57624923993E-01  0.51100000000E-03 0. -1.
         11    1    4    4    0    0  0.14716060028E-01  0.68166405089E-01 -0.29581232988E-01  0.75753096779E-01  0.51100000000E-03 0.  1.
</event>
<event>
 8    1  0.1126414E+005  0.1043930E+01  0.7957747E-01            NaN
         13   -1    0    0    0    0  0.00000000000E+00  0.00000000000E+00  0.74505805969E-08  0.10566000000E+00  0.10566000000E+00 0. -1.
     999900   -1    0    0    0    0 -0.00000000000E+00 -0.00000000000E+00 -0.74505805969E-08  0.93827000000E+00  0.93827000000E+00 0. -1.
     999902    2    1    2    0    0 -0.12085220170E-02  0.21604982922E-01  0.42947747989E-02  0.10218691545E+01  0.10216309941E+01 0.  0.
     999903    2    3    3    0    0 -0.22611933247E-01 -0.65288787342E-01 -0.10858764084E+00  0.13015671596E+00  0.19379620488E-01 0.  0.
         14    1    1    2    0    0  0.12085220170E-02 -0.21604982922E-01 -0.42947747989E-02  0.22060845476E-01  0.00000000000E+00 0.  1.
     999901    1    3    3    0    0  0.21403411230E-01  0.86893770264E-01  0.11288241564E+00  0.89171243856E+00  0.88000000000E+00 0.  1.
        -11    1    4    4    0    0 -0.22457875586E-01 -0.58517418108E-01 -0.85009470182E-01  0.10561967402E+00  0.51100000000E-03 0.  1.
         11    1    4    4    0    0 -0.15405766056E-03 -0.67713692336E-02 -0.23578170655E-01  0.24537041947E-01  0.51100000000E-03 0. -1.
</event>
<event>
 8    1  0.1126414E+005  0.1043930E+01  0.7957747E-01            NaN
         13   -1    0    0    0    0  0.00000000000E+00  0.00000000000E+00  0.74505805969E-08  0.10566000000E+00  0.10566000000E+00 0. -1.
     999900   -1    0    0    0    0 -0.00000000000E+00 -0.00000000000E+00 -0.74505805969E-08  0.93827000000E+00  0.93827000000E+00 0.  1.
     999902    2    1    2    0    0 -0.21054092126E-01 -0.24297820956E-02  0.10276942917E-01  0.10203759305E+01  0.10201040365E+01 0.  0.
     999903    2    3    3    0    0 -0.12019136906E+00  0.52721589411E-01  0.81075014747E-02  0.13309098190E+00  0.20541341159E-01 0.  0.
         14    1    1    2    0    0  0.21054092126E-01  0.24297820956E-02 -0.10276942917E-01  0.23554069542E-01  0.00000000000E+00 0.  1.
     999901    1    3    3    0    0  0.99137276936E-01 -0.55151371507E-01  0.21694414421E-02  0.88728494856E+00  0.88000000000E+00 0.  1.
        -11    1    4    4    0    0 -0.77421880229E-02  0.55716293668E-02 -0.43981528336E-02  0.10516149416E-01  0.51100000000E-03 0.  1.
         11    1    4    4    0    0 -0.11244918104E+00  0.47149960045E-01  0.12505654308E-01  0.12257483249E+00  0.51100000000E-03 0. -1.
</event>
<event>
 8    1  0.1126414E+005  0.1043930E+01  0.7957747E-01            NaN
         13   -1    0    0    0    0  0.00000000000E+00  0.00000000000E+00  0.74505805969E-08  0.10566000000E+00  0.10566000000E+00 0.  1.
     999900   -1    0    0    0    0 -0.00000000000E+00 -0.00000000000E+00 -0.74505805969E-08  0.93827000000E+00  0.93827000000E+00 0.  1.
     999902    2    1    2    0    0  0.34802057848E-02 -0.20541685065E-01 -0.86416804539E-02  0.10213744841E+01  0.10211254014E+01 0.  0.
     999903    2    3    3    0    0 -0.24434685891E-01 -0.12487724849E+00  0.35266668701E-01  0.13368473304E+00  0.20892315859E-01 0.  0.
         14    1    1    2    0    0 -0.34802057848E-02  0.20541685065E-01  0.86416804539E-02  0.22555515926E-01  0.00000000000E+00 0. -1.
     999901    1    3    3    0    0  0.27914891676E-01  0.10433556342E+00 -0.43908349155E-01  0.88768975104E+00  0.88000000000E+00 0.  1.
        -11    1    4    4    0    0 -0.22597615499E-01 -0.63395188890E-01  0.21459137744E-01  0.70642465375E-01  0.51100000000E-03 0.  1.
         11    1    4    4    0    0 -0.18370703924E-02 -0.61482059596E-01  0.13807530957E-01  0.63042267661E-01  0.51100000000E-03 0. -1.
</event>
<event>
 8    1  0.1126414E+005  0.1043930E+01  0.7957747E-01            NaN
         13   -1    0    0    0    0  0.00000000000E+00  0.00000000000E+00  0.74505805969E-08  0.10566000000E+00  0.10566000000E+00 0. -1.
     999900   -1    0    0    0    0 -0.00000000000E+00 -0.00000000000E+00 -0.74505805969E-08  0.93827000000E+00  0.93827000000E+00 0.  1.
     999902    2    1    2    0    0 -0.19824776197E-01 -0.13142256520E-01  0.90230015556E-03  0.10201275883E+01  0.10198498623E+01 0.  0.
     999903    2    3    3    0    0 -0.48984916714E-01  0.90151970042E-01 -0.77571731181E-01  0.13013984420E+00  0.19801661593E-01 0.  0.
         14    1    1    2    0    0  0.19824776197E-01  0.13142256520E-01 -0.90230015556E-03  0.23802411711E-01  0.00000000000E+00 0. -1.
     999901    1    3    3    0    0  0.29160140517E-01 -0.10329422656E+00  0.78474031337E-01  0.88998774409E+00  0.88000000000E+00 0.  1.
        -11    1    4    4    0    0 -0.34506285324E-01  0.44683672192E-01 -0.47048873323E-01  0.73492665548E-01  0.51100000000E-03 0. -1.
         11    1    4    4    0    0 -0.14478631390E-01  0.45468297850E-01 -0.30522857859E-01  0.56647178651E-01  0.51100000000E-03 0.  1.
</event>
<event>
 8    1  0.1126414E+005  0.1043930E+01  0.7957747E-01            NaN
         13   -1    0    0    0    0  0.00000000000E+00  0.00000000000E+00  0.74505805969E-08  0.10566000000E+00  0.10566000000E+00 0.  1.
     999900   -1    0    0    0    0 -0.00000000000E+00 -0.00000000000E+00 -0.74505805969E-08  0.93827000000E+00  0.93827000000E+00 0.  1.
     999902    2    1    2    0    0 -0.19224573154E-01  0.13138456652E-01 -0.57239449199E-02  0.10199515346E+01  0.10196696358E+01 0.  0.
     999903    2    3    3    0    0 -0.32998952436E-01 -0.72137323598E-01  0.10003982247E+00  0.12941929674E+00  0.21181689547E-01 0.  0.
         14    1    1    2    0    0  0.19224573154E-01 -0.13138456652E-01  0.57239449199E-02  0.23978465372E-01  0.00000000000E+00 0. -1.
     999901    1    3    3    0    0  0.13774379281E-01  0.85275780249E-01 -0.10576376739E+00  0.89053223789E+00  0.88000000000E+00 0.  1.
        -11    1    4    4    0    0 -0.26247351707E-01 -0.56829053579E-01  0.90835071931E-01  0.11031652739E+00  0.51100000000E-03 0.  1.
         11    1    4    4    0    0 -0.67516007283E-02 -0.15308270019E-01  0.92047505377E-02  0.19102769350E-01  0.51100000000E-03 0. -1.
</event>
<event>
 8    1  0.1126414E+005  0.1043930E+01  0.7957747E-01            NaN
         13   -1    0    0    0    0  0.00000000000E+00  0.00000000000E+00  0.74505805969E-08  0.10566000000E+00  0.10566000000E+00 0.  1.
     999900   -1    0    0    0    0 -0.00000000000E+00 -0.00000000000E+00 -0.74505805969E-08  0.93827000000E+00  0.93827000000E+00 0. -1.
     999902    2    1    2    0    0  0.21356562493E-01 -0.92274932439E-02 -0.28432140036E-02  0.10204921405E+01  0.10202229538E+01 0.  0.
     999903    2    3    3    0    0 -0.34961194205E-02  0.12037174036E+00 -0.43829456096E-01  0.12970962539E+00  0.20049612698E-01 0.  0.
         14    1    1    2    0    0 -0.21356562493E-01  0.92274932439E-02  0.28432140036E-02  0.23437859522E-01  0.00000000000E+00 0. -1.
     999901    1    3    3    0    0  0.24852681914E-01 -0.12959923360E+00  0.40986242092E-01  0.89078251509E+00  0.88000000000E+00 0.  1.
        -11    1    4    4    0    0  0.52382935478E-02  0.83976269788E-01 -0.24810629614E-01  0.87722756851E-01  0.51100000000E-03 0. -1.
         11    1    4    4    0    0 -0.87344129682E-02  0.36395470569E-01 -0.19018826482E-01  0.41986868537E-01  0.51100000000E-03 0.  1.
</event>
<event>
 8    1  0.1126414E+005  0.1043930E+01  0.7957747E-01            NaN
         13   -1    0    0    0    0  0.00000000000E+00  0.00000000000E+00  0.74505805969E-08  0.10566000000E+00  0.10566000000E+00 0.  1.
     999900   -1    0    0    0    0 -0.00000000000E+00 -0.00000000000E+00 -0.74505805969E-08  0.93827000000E+00  0.93827000000E+00 0. -1.
     999902    2    1    2    0    0  0.41905820937E-02  0.18115707959E-02 -0.23532005234E-01  0.10199592253E+01  0.10196775095E+01 0.  0.
     999903    2    3    3    0    0 -0.32759597245E-01 -0.35352296631E-01 -0.12207476694E+00  0.13290953977E+00  0.20969524341E-01 0.  0.
         14    1    1    2    0    0 -0.41905820937E-02 -0.18115707959E-02  0.23532005234E-01  0.23970774651E-01  0.00000000000E+00 0.  1.
     999901    1    3    3    0    0  0.36950179339E-01  0.37163867427E-01  0.98542761704E-01  0.88704968558E+00  0.88000000000E+00 0.  1.
        -11    1    4    4    0    0 -0.22057316791E-01 -0.87498171566E-02 -0.60262326739E-01  0.64767998806E-01  0.51100000000E-03 0.  1.
         11    1    4    4    0    0 -0.10702280454E-01 -0.26602479474E-01 -0.61812440199E-01  0.68141540968E-01  0.51100000000E-03 0. -1.
</event>
<event>
 8    1  0.1126414E+005  0.1043930E+01  0.7957747E-01            NaN
         13   -1    0    0    0    0  0.00000000000E+00  0.00000000000E+00  0.74505805969E-08  0.10566000000E+00  0.10566000000E+00 0. -1.
     999900   -1    0    0    0    0 -0.00000000000E+00 -0.00000000000E+00 -0.74505805969E-08  0.93827000000E+00  0.93827000000E+00 0. -1.
     999902    2    1    2    0    0 -0.46422798486E-02  0.78927845527E-02  0.22107451366E-01  0.10200012262E+01  0.10197205084E+01 0.  0.
     999903    2    3    3    0    0  0.71567704692E-01 -0.61234368756E-01 -0.85554365691E-01  0.12748927001E+00  0.78981141780E-02 0.  0.
         14    1    1    2    0    0  0.46422798486E-02 -0.78927845527E-02 -0.22107451366E-01  0.23928773811E-01  0.00000000000E+00 0.  1.
     999901    1    3    3    0    0 -0.76209984541E-01  0.69127153308E-01  0.10766181706E+00  0.89251195618E+00  0.88000000000E+00 0.  1.
        -11    1    4    4    0    0  0.59521871819E-01 -0.49850902833E-01 -0.74175745949E-01  0.10737908617E+00  0.51100000000E-03 0.  1.
         11    1    4    4    0    0  0.12045832873E-01 -0.11383465922E-01 -0.11378619742E-01  0.20110183844E-01  0.51100000000E-03 0. -1.
</event>
<event>
 8    1  0.1126414E+005  0.1043930E+01  0.7957747E-01            NaN
         13   -1    0    0    0    0  0.00000000000E+00  0.00000000000E+00  0.74505805969E-08  0.10566000000E+00  0.10566000000E+00 0. -1.
     999900   -1    0    0    0    0 -0.00000000000E+00 -0.00000000000E+00 -0.74505805969E-08  0.93827000000E+00  0.93827000000E+00 0. -1.
     999902    2    1    2    0    0  0.13075264025E-01 -0.69138994669E-02  0.18392920333E-01  0.10203277956E+01  0.10200547762E+01 0.  0.
     999903    2    3    3    0    0  0.75505839290E-01  0.10155364239E+00  0.29092131407E-01  0.13140864432E+00  0.20189245695E-01 0.  0.
         14    1    1    2    0    0 -0.13075264025E-01  0.69138994669E-02 -0.18392920333E-01  0.23602204421E-01  0.00000000000E+00 0.  1.
     999901    1    3    3    0    0 -0.62430575266E-01 -0.10846754186E+00 -0.10699211074E-01  0.88891915126E+00  0.88000000000E+00 0.  1.
        -11    1    4    4    0    0  0.64906210091E-01  0.77367039639E-01  0.28722304815E-01  0.10499384194E+00  0.51100000000E-03 0. -1.
         11    1    4    4    0    0  0.10599629200E-01  0.24186602750E-01  0.36982659205E-03  0.26414802374E-01  0.51100000000E-03 0.  1.
</event>
<event>
 8    1  0.1126414E+005  0.1043930E+01  0.7957747E-01            NaN
         13   -1    0    0    0    0  0.00000000000E+00  0.00000000000E+00  0.74505805969E-08  0.10566000000E+00  0.10566000000E+00 0. -1.
     999900   -1    0    0    0    0 -0.00000000000E+00 -0.00000000000E+00 -0.74505805969E-08  0.93827000000E+00  0.93827000000E+00 0.  1.
     999902    2    1    2    0    0 -0.11806591239E-02 -0.23006662394E-01  0.44010800611E-02  0.10204764294E+01  0.10202068775E+01 0.  0.
     999903    2    3    3    0    0  0.63359060944E-01  0.97248462902E-01  0.51888607009E-01  0.12869072872E+00  0.19930930275E-01 0.  0.
         14    1    1    2    0    0  0.11806591239E-02  0.23006662394E-01 -0.44010800611E-02  0.23453570649E-01  0.00000000000E+00 0.  1.
     999901    1    3    3    0    0 -0.64539720068E-01 -0.12025512530E+00 -0.47487526947E-01  0.89178570063E+00  0.88000000000E+00 0.  1.
        -11    1    4    4    0    0  0.30588329984E-01  0.58967968724E-01  0.37489702862E-01  0.76279788990E-01  0.51100000000E-03 0. -1.
         11    1    4    4    0    0  0.32770730960E-01  0.38280494178E-01  0.14398904147E-01  0.52410939734E-01  0.51100000000E-03 0.  1.
</event>
<event>
 8    1  0.1126414E+005  0.1043930E+01  0.7957747E-01            NaN
         13   -1    0    0    0    0  0.00000000000E+00  0.00000000000E+00  0.74505805969E-08  0.10566000000E+00  0.10566000000E+00 0. -1.
     999900   -1    0    0    0    0 -0.00000000000E+00 -0.00000000000E+00 -0.74505805969E-08  0.93827000000E+00  0.93827000000E+00 0. -1.
     999902    2    1    2    0    0  0.16322537499E-01  0.96562587831E-02 -0.12269958093E-01  0.10213419404E+01  0.10210921304E+01 0.  0.
     999903    2    3    3    0    0  0.53138921577E-02 -0.11517724525E+00  0.56117176365E-01  0.12983681191E+00  0.20357430319E-01 0.  0.
         14    1    1    2    0    0 -0.16322537499E-01 -0.96562587831E-02  0.12269958093E-01  0.22588059582E-01  0.00000000000E+00 0. -1.
     999901    1    3    3    0    0  0.11008645341E-01  0.12483350404E+00 -0.68387134458E-01  0.89150512851E+00  0.88000000000E+00 0. -1.
        -11    1    4    4    0    0 -0.22385935523E-03 -0.94223575039E-01  0.52481342392E-01  0.10785492398E+00  0.51100000000E-03 0. -1.
         11    1    4    4    0    0  0.55377515129E-02 -0.20953670213E-01  0.36358339737E-02  0.21981887928E-01  0.51100000000E-03 0.  1.
</event>
<event>
 8    1  0.1126414E+005  0.1043930E+01  0.7957747E-01            NaN
         13   -1    0    0    0    0  0.00000000000E+00  0.00000000000E+00  0.74505805969E-08  0.10566000000E+00  0.10566000000E+00 0. -1.
     999900   -1    0    0    0    0 -0.00000000000E+00 -0.00000000000E+00 -0.74505805969E-08  0.93827000000E+00  0.93827000000E+00 0. -1.
     999902    2    1    2    0    0  0.93369001099E-02 -0.12260201560E-01  0.16608964435E-01  0.10212728169E+01  0.10210214584E+01 0.  0.
     999903    2    3    3    0    0 -0.62051995140E-01 -0.11336799938E+00 -0.16782705757E-01  0.13198424463E+00  0.20866917199E-01 0.  0.
         14    1    1    2    0    0 -0.93369001099E-02  0.12260201560E-01 -0.16608964435E-01  0.22657183089E-01  0.00000000000E+00 0.  1.
     999901    1    3    3    0    0  0.71388895250E-01  0.10110779782E+00  0.33391670192E-01  0.88928857228E+00  0.88000000000E+00 0. -1.
        -11    1    4    4    0    0 -0.16814429913E-01 -0.45259141987E-01  0.10562394885E-02  0.48295877149E-01  0.51100000000E-03 0.  1.
         11    1    4    4    0    0 -0.45237565227E-01 -0.68108857397E-01 -0.17838945245E-01  0.83688367484E-01  0.51100000000E-03 0. -1.
</event>
<event>
 8    1  0.1126414E+005  0.1043930E+01  0.7957747E-01            NaN
         13   -1    0    0    0    0  0.00000000000E+00  0.00000000000E+00  0.74505805969E-08  0.10566000000E+00  0.10566000000E+00 0. -1.
     999900   -1    0    0    0    0 -0.00000000000E+00 -0.00000000000E+00 -0.74505805969E-08  0.93827000000E+00  0.93827000000E+00 0. -1.
     999902    2    1    2    0    0  0.15586155543E-01  0.14111068436E-01 -0.12539960412E-01  0.10194493729E+01  0.10191553968E+01 0.  0.
     999903    2    3    3    0    0 -0.85599709926E-01 -0.67737975320E-02  0.91830983438E-01  0.12727895703E+00  0.19844614167E-01 0.  0.
         14    1    1    2    0    0 -0.15586155543E-01 -0.14111068436E-01  0.12539960412E-01  0.24480627119E-01  0.00000000000E+00 0. -1.
     999901    1    3    3    0    0  0.10118586547E+00  0.20884865968E-01 -0.10437094385E+00  0.89217041585E+00  0.88000000000E+00 0. -1.
        -11    1    4    4    0    0 -0.46695107765E-01 -0.90756742008E-03  0.35975011494E-01  0.58955231666E-01  0.51100000000E-03 0.  1.
         11    1    4    4    0    0 -0.38904602161E-01 -0.58662301119E-02  0.55855971944E-01  0.68323725365E-01  0.51100000000E-03 0. -1.
</event>
<event>
 8    1  0.1126414E+005  0.1043930E+01  0.7957747E-01            NaN
         13   -1    0    0    0    0  0.00000000000E+00  0.00000000000E+00  0.74505805969E-08  0.10566000000E+00  0.10566000000E+00 0.  1.
     999900   -1    0    0    0    0 -0.00000000000E+00 -0.00000000000E+00 -0.74505805969E-08  0.93827000000E+00  0.93827000000E+00 0. -1.
     999902    2    1    2    0    0  0.19570582449E-01  0.11135637718E-01 -0.63892425359E-02  0.10205241771E+01  0.10202557344E+01 0.  0.
     999903    2    3    3    0    0  0.35903540183E-01 -0.14723276413E-01 -0.12466445929E+00  0.13208482868E+00  0.19983380406E-01 0.  0.
         14    1    1    2    0    0 -0.19570582449E-01 -0.11135637718E-01  0.63892425359E-02  0.23405822886E-01  0.00000000000E+00 0.  1.
     999901    1    3    3    0    0 -0.16332957734E-01  0.25858914131E-01  0.11827521675E+00  0.88843934843E+00  0.88000000000E+00 0.  1.
        -11    1    4    4    0    0  0.32225420016E-01 -0.97364591017E-02 -0.77297877282E-01  0.84311916622E-01  0.51100000000E-03 0.  1.
         11    1    4    4    0    0  0.36781201665E-02 -0.49868173113E-02 -0.47366582004E-01  0.47772912059E-01  0.51100000000E-03 0. -1.
</event>
<event>
 8    1  0.1126414E+005  0.1043930E+01  0.7957747E-01            NaN
         13   -1    0    0    0    0  0.00000000000E+00  0.00000000000E+00  0.74505805969E-08  0.10566000000E+00  0.10566000000E+00 0.  1.
     999900   -1    0    0    0    0 -0.00000000000E+00 -0.00000000000E+00 -0.74505805969E-08  0.93827000000E+00  0.93827000000E+00 0. -1.
     999902    2    1    2    0    0 -0.51617334882E-02  0.87094013454E-02 -0.17353990783E-01  0.10238387541E+01  0.10236416054E+01 0.  0.
     999903    2    3    3    0    0 -0.60754982502E-01  0.11647965509E+00 -0.26625464184E-01  0.13547452863E+00  0.19640636862E-01 0.  0.
         14    1    1    2    0    0  0.51617334882E-02 -0.87094013454E-02  0.17353990783E-01  0.20091245867E-01  0.00000000000E+00 0.  1.
     999901    1    3    3    0    0  0.55593249014E-01 -0.10777025375E+00  0.92714734008E-02  0.88836422550E+00  0.88000000000E+00 0.  1.
        -11    1    4    4    0    0 -0.36920649359E-01  0.86973884689E-01 -0.23785838780E-01  0.97435200080E-01  0.51100000000E-03 0. -1.
         11    1    4    4    0    0 -0.23834333143E-01  0.29505770402E-01 -0.28396254039E-02  0.38039328553E-01  0.51100000000E-03 0.  1.
</event>
<event>
 8    1  0.1126414E+005  0.1043930E+01  0.7957747E-01            NaN
         13   -1    0    0    0    0  0.00000000000E+00  0.00000000000E+00  0.74505805969E-08  0.10566000000E+00  0.10566000000E+00 0. -1.
     999900   -1    0    0    0    0 -0.00000000000E+00 -0.00000000000E+00 -0.74505805969E-08  0.93827000000E+00  0.93827000000E+00 0. -1.
     999902    2    1    2    0    0 -0.39820762691E-02  0.10713528284E-02 -0.22794970989E-01  0.10207650387E+01  0.10205021552E+01 0.  0.
     999903    2    3    3    0    0  0.10137147745E+00  0.65662026918E-01 -0.49511155683E-01  0.13172899841E+00  0.17705825784E-01 0.  0.
         14    1    1    2    0    0  0.39820762691E-02 -0.10713528284E-02  0.22794970989E-01  0.23164961271E-01  0.00000000000E+00 0. -1.
     999901    1    3    3    0    0 -0.10535355372E+00 -0.64590674089E-01  0.26716184694E-01  0.88903604032E+00  0.88000000000E+00 0.  1.
        -11    1    4    4    0    0  0.37847822848E-01  0.21933600348E-01 -0.26923214396E-01  0.51367899635E-01  0.51100000000E-03 0. -1.
         11    1    4    4    0    0  0.63523654599E-01  0.43728426570E-01 -0.22587941286E-01  0.80361098776E-01  0.51100000000E-03 0.  1.
</event>
<event>
 8    1  0.1126414E+005  0.1043930E+01  0.7957747E-01            NaN
         13   -1    0    0    0    0  0.00000000000E+00  0.00000000000E+00  0.74505805969E-08  0.10566000000E+00  0.10566000000E+00 0.  1.
     999900   -1    0    0    0    0 -0.00000000000E+00 -0.00000000000E+00 -0.74505805969E-08  0.93827000000E+00  0.93827000000E+00 0.  1.
     999902    2    1    2    0    0  0.12001681476E-01 -0.21757420111E-01 -0.60932166849E-02  0.10183457670E+01  0.10180243358E+01 0.  0.
     999903    2    3    3    0    0  0.46924590938E-01 -0.99833762645E-01  0.68239410065E-01  0.13107981800E+00  0.18883966819E-01 0.  0.
         14    1    1    2    0    0 -0.12001681476E-01  0.21757420111E-01  0.60932166849E-02  0.25584232991E-01  0.00000000000E+00 0.  1.
     999901    1    3    3    0    0 -0.34922909462E-01  0.78076342534E-01 -0.74332626750E-01  0.88726594901E+00  0.88000000000E+00 0. -1.
        -11    1    4    4    0    0  0.46439650955E-02 -0.28412512499E-01  0.14925047257E-01  0.32432320838E-01  0.51100000000E-03 0.  1.
         11    1    4    4    0    0  0.42280625843E-01 -0.71421250146E-01  0.53314362808E-01  0.98647497164E-01  0.51100000000E-03 0. -1.
</event>
<event>
 8    1  0.1126414E+005  0.1043930E+01  0.7957747E-01            NaN
         13   -1    0    0    0    0  0.00000000000E+00  0.00000000000E+00  0.74505805969E-08  0.10566000000E+00  0.10566000000E+00 0. -1.
     999900   -1    0    0    0    0 -0.00000000000E+00 -0.00000000000E+00 -0.74505805969E-08  0.93827000000E+00  0.93827000000E+00 0.  1.
     999902    2    1    2    0    0  0.12868137719E-01 -0.16854367434E-01  0.11881740359E-01  0.10196229141E+01  0.10193331411E+01 0.  0.
     999903    2    3    3    0    0 -0.25011740811E-01 -0.87323410201E-01  0.93993181262E-01  0.13218668548E+00  0.19688487640E-01 0.  0.
         14    1    1    2    0    0 -0.12868137719E-01  0.16854367434E-01 -0.11881740359E-01  0.24307085879E-01  0.00000000000E+00 0.  1.
     999901    1    3    3    0    0  0.37879878531E-01  0.70469042767E-01 -0.82111440903E-01  0.88743622865E+00  0.88000000000E+00 0.  1.
        -11    1    4    4    0    0 -0.17059789515E-01 -0.66999589740E-01  0.58745177056E-01  0.90726172586E-01  0.51100000000E-03 0. -1.
         11    1    4    4    0    0 -0.79519512962E-02 -0.20323820460E-01  0.35248004206E-01  0.41460512890E-01  0.51100000000E-03 0.  1.
</event>
<event>
 8    1  0.1126414E+005  0.1043930E+01  0.7957747E-01            NaN
         13   -1    0    0    0    0  0.00000000000E+00  0.00000000000E+00  0.74505805969E-08  0.10566000000E+00  0.10566000000E+00 0. -1.
     999900   -1    0    0    0    0 -0.00000000000E+00 -0.00000000000E+00 -0.74505805969E-08  0.93827000000E+00  0.93827000000E+00 0.  1.
     999902    2    1    2    0    0  0.21600772812E-01 -0.41632745707E-02 -0.10107081832E-01  0.10197209243E+01  0.10194335114E+01 0.  0.
     999903    2    3    3    0    0 -0.50066189184E-01 -0.88490675039E-01 -0.78687093225E-01  0.13014210159E+00  0.20201116283E-01 0.  0.
         14    1    1    2    0    0 -0.21600772812E-01  0.41632745707E-02  0.10107081832E-01  0.24209075661E-01  0.00000000000E+00 0. -1.
     999901    1    3    3    0    0  0.71666961996E-01  0.84327400469E-01  0.68580011393E-01  0.88957882274E+00  0.88000000000E+00 0. -1.
        -11    1    4    4    0    0 -0.21451701320E-01 -0.23400246308E-01 -0.17029388088E-01  0.36027880821E-01  0.51100000000E-03 0. -1.
         11    1    4    4    0    0 -0.28614487863E-01 -0.65090428731E-01 -0.61657705137E-01  0.94114220773E-01  0.51100000000E-03 0.  1.
</event>
<event>
 8    1  0.1126414E+005  0.1043930E+01  0.7957747E-01            NaN
         13   -1    0    0    0    0  0.00000000000E+00  0.00000000000E+00  0.74505805969E-08  0.10566000000E+00  0.10566000000E+00 0. -1.
     999900   -1    0    0    0    0 -0.00000000000E+00 -0.00000000000E+00 -0.74505805969E-08  0.93827000000E+00  0.93827000000E+00 0.  1.
     999902    2    1    2    0    0  0.68584824697E-02 -0.24859028994E-01 -0.10583423259E-01  0.10160549403E+01  0.10156724978E+01 0.  0.
     999903    2    3    3    0    0 -0.11888406160E+00 -0.60285376305E-02 -0.37754004588E-01  0.12650223514E+00  0.20191267051E-01 0.  0.
         14    1    1    2    0    0 -0.68584824697E-02  0.24859028994E-01  0.10583423259E-01  0.27875059680E-01  0.00000000000E+00 0.  1.
     999901    1    3    3    0    0  0.12574254407E+00 -0.18830491363E-01  0.27170581329E-01  0.88955270518E+00  0.88000000000E+00 0. -1.
        -11    1    4    4    0    0 -0.38602571367E-01 -0.10478671188E-01 -0.16967506110E-01  0.43452484976E-01  0.51100000000E-03 0. -1.
         11    1    4    4    0    0 -0.80281490235E-01  0.44501335571E-02 -0.20786498478E-01  0.83049750168E-01  0.51100000000E-03 0.  1.
</event>
<event>
 8    1  0.1126414E+005  0.1043930E+01  0.7957747E-01            NaN
         13   -1    0    0    0    0  0.00000000000E+00  0.00000000000E+00  0.74505805969E-08  0.10566000000E+00  0.10566000000E+00 0. -1.
     999900   -1    0    0    0    0 -0.00000000000E+00 -0.00000000000E+00 -0.74505805969E-08  0.93827000000E+00  0.93827000000E+00 0.  1.
     999902    2    1    2    0    0 -0.14304395814E-02 -0.21218669980E-01  0.96035968411E-02  0.10205953223E+01  0.10203285278E+01 0.  0.
     999903    2    3    3    0    0 -0.21994737169E-01  0.22385333117E-01  0.12604166313E+00  0.13161724452E+00  0.21253861008E-01 0.  0.
         14    1    1    2    0    0  0.14304395814E-02  0.21218669980E-01 -0.96035968411E-02  0.23334677743E-01  0.00000000000E+00 0.  1.
     999901    1    3    3    0    0  0.20564297588E-01 -0.43604003097E-01 -0.11643806629E+00  0.88897807774E+00  0.88000000000E+00 0.  1.
        -11    1    4    4    0    0  0.14458025592E-02 -0.29045875239E-02  0.82095076349E-02  0.88421779179E-02  0.51100000000E-03 0.  1.
         11    1    4    4    0    0 -0.23440539729E-01  0.25289920641E-01  0.11783215549E+00  0.12277506660E+00  0.51100000000E-03 0. -1.
</event>
<event>
 8    1  0.1126414E+005  0.1043930E+01  0.7957747E-01            NaN
         13   -1    0    0    0    0  0.00000000000E+00  0.00000000000E+00  0.74505805969E-08  0.10566000000E+00  0.10566000000E+00 0.  1.
     999900   -1    0    0    0    0 -0.00000000000E+00 -0.00000000000E+00 -0.74505805969E-08  0.93827000000E+00  0.93827000000E+00 0. -1.
     999902    2    1    2    0    0  0.17324481971E-01  0.14286358993E-01  0.11623487982E-01  0.10186447632E+01  0.10183308943E+01 0.  0.
     999903    2    3    3    0    0 -0.24383948229E-01  0.10187731614E+00  0.72832397703E-01  0.13119994823E+00  0.30582736728E-01 0.  0.
         14    1    1    2    0    0 -0.17324481971E-01 -0.14286358993E-01 -0.11623487982E-01  0.25285236834E-01  0.00000000000E+00 0. -1.
     999901    1    3    3    0    0  0.41708430201E-01 -0.87590957147E-01 -0.61208909720E-01  0.88744481493E+00  0.88000000000E+00 0. -1.
        -11    1    4    4    0    0 -0.14704108150E-01  0.65272033761E-01  0.63399076884E-01  0.92175665218E-01  0.51100000000E-03 0.  1.
         11    1    4    4    0    0 -0.96798400797E-02  0.36605282380E-01  0.94333208192E-02  0.39024283014E-01  0.51100000000E-03 0. -1.
</event>
<event>
 8    1  0.1126414E+005  0.1043930E+01  0.7957747E-01            NaN
         13   -1    0    0    0    0  0.00000000000E+00  0.00000000000E+00  0.74505805969E-08  0.10566000000E+00  0.10566000000E+00 0. -1.
     999900   -1    0    0    0    0 -0.00000000000E+00 -0.00000000000E+00 -0.74505805969E-08  0.93827000000E+00  0.93827000000E+00 0.  1.
     999902    2    1    2    0    0  0.10874223229E-01  0.17720900849E-01  0.10590659087E-01  0.10205967380E+01  0.10203299762E+01 0.  0.
     999903    2    3    3    0    0  0.17451422676E-01 -0.34455373802E-02 -0.12683811774E+00  0.12965457016E+00  0.20148835417E-01 0.  0.
         14    1    1    2    0    0 -0.10874223229E-01 -0.17720900849E-01 -0.10590659087E-01  0.23333262045E-01  0.00000000000E+00 0.  1.
     999901    1    3    3    0    0 -0.65771994467E-02  0.21166438229E-01  0.13742877683E+00  0.89094216780E+00  0.88000000000E+00 0. -1.
        -11    1    4    4    0    0  0.17651194521E-01  0.50478287668E-02 -0.87046228164E-01  0.88962644980E-01  0.51100000000E-03 0. -1.
         11    1    4    4    0    0 -0.19977184532E-03 -0.84933661470E-02 -0.39791889579E-01  0.40691925177E-01  0.51100000000E-03 0.  1.
</event>
<event>
 8    1  0.1126414E+005  0.1043930E+01  0.7957747E-01            NaN
         13   -1    0    0    0    0  0.00000000000E+00  0.00000000000E+00  0.74505805969E-08  0.10566000000E+00  0.10566000000E+00 0.  1.
     999900   -1    0    0    0    0 -0.00000000000E+00 -0.00000000000E+00 -0.74505805969E-08  0.93827000000E+00  0.93827000000E+00 0. -1.
     999902    2    1    2    0    0 -0.49894530095E-02  0.22918845807E-01  0.44452418293E-02  0.10200568287E+01  0.10197774293E+01 0.  0.
     999903    2    3    3    0    0  0.94408490893E-01  0.83401977538E-01  0.33550833827E-01  0.13192097422E+00  0.20214647617E-01 0.  0.
         14    1    1    2    0    0  0.49894530095E-02 -0.22918845807E-01 -0.44452418293E-02  0.23873171330E-01  0.00000000000E+00 0. -1.
     999901    1    3    3    0    0 -0.99397943903E-01 -0.60483131731E-01 -0.29105591998E-01  0.88813585445E+00  0.88000000000E+00 0. -1.
        -11    1    4    4    0    0  0.44068190439E-01  0.26526452527E-01  0.10031806828E-01  0.52407598318E-01  0.51100000000E-03 0.  1.
         11    1    4    4    0    0  0.50340300455E-01  0.56875525011E-01  0.23519027000E-01  0.79513375901E-01  0.51100000000E-03 0. -1.
</event>
<event>
 8    1  0.1126414E+005  0.1043930E+01  0.7957747E-01            NaN
         13   -1    0    0    0    0  0.00000000000E+00  0.00000000000E+00  0.74505805969E-08  0.10566000000E+00  0.10566000000E+00 0. -1.
     999900   -1    0    0    0    0 -0.00000000000E+00 -0.00000000000E+00 -0.74505805969E-08  0.93827000000E+00  0.93827000000E+00 0. -1.
     999902    2    1    2    0    0 -0.68210552546E-02 -0.19564126072E-01  0.10834969188E-01  0.10205488456E+01  0.10202809750E+01 0.  0.
     999903    2    3    3    0    0 -0.63942584006E-02 -0.86915010975E-01 -0.96209024056E-01  0.13150737281E+00  0.21045358634E-01 0.  0.
         14    1    1    2    0    0  0.68210552546E-02  0.19564126072E-01 -0.10834969188E-01  0.23381154400E-01  0.00000000000E+00 0.  1.
     999901    1    3    3    0    0 -0.42679685406E-03  0.67350884903E-01  0.10704399324E+00  0.88904147279E+00  0.88000000000E+00 0.  1.
        -11    1    4    4    0    0 -0.25614055534E-02 -0.25488826477E-01 -0.43448155399E-01  0.50440503587E-01  0.51100000000E-03 0.  1.
         11    1    4    4    0    0 -0.38328528472E-02 -0.61426184498E-01 -0.52760868657E-01  0.81066869222E-01  0.51100000000E-03 0. -1.
</event>
<event>
 7    1  0.1126414E+005  0.1043930E+01  0.7957747E-01            NaN
         13   -1    0    0    0    0  0.00000000000E+00  0.00000000000E+00  0.74505805969E-08  0.10566000000E+00  0.10566000000E+00 0.  1.
     999900   -1    0    0    0    0 -0.00000000000E+00 -0.00000000000E+00 -0.74505805969E-08  0.93827000000E+00  0.93827000000E+00 0.  1.
     999903    2    1    2    0    0  0.84131657165E-01  0.13533930958E-01  0.17945142079E-01  0.89403223892E-01  0.20238707803E-01 0.  0.
         14    1    1    2    0    0  0.50288263320E-01  0.43090307604E-02  0.36793422770E-01  0.62459852168E-01  0.00000000000E+00 0.  1.
     999901    1    1    2    0    0 -0.13441992048E+00 -0.17842961718E-01 -0.54738564848E-01  0.89206692394E+00  0.88000000000E+00 0.  1.
        -11    1    3    3    0    0  0.17172382228E-01  0.53711627602E-02  0.12109683769E-01  0.21694369379E-01  0.51100000000E-03 0.  1.
         11    1    3    3    0    0  0.66959274937E-01  0.81627681977E-02  0.58354583101E-02  0.67708854513E-01  0.51100000000E-03 0. -1.
</event>
<event>
 8    1  0.1126414E+005  0.1043930E+01  0.7957747E-01            NaN
         13   -1    0    0    0    0  0.00000000000E+00  0.00000000000E+00  0.74505805969E-08  0.10566000000E+00  0.10566000000E+00 0. -1.
     999900   -1    0    0    0    0 -0.00000000000E+00 -0.00000000000E+00 -0.74505805969E-08  0.93827000000E+00  0.93827000000E+00 0. -1.
     999902    2    1    2    0    0  0.29635835444E-01  0.68548381056E-02  0.65578073223E-02  0.10128128603E+01  0.10123347339E+01 0.  0.
     999903    2    3    3    0    0 -0.10407641604E+00 -0.39128591996E-01  0.43050495495E-01  0.12077857936E+00  0.19265850127E-01 0.  0.
         14    1    1    2    0    0 -0.29635835444E-01 -0.68548381056E-02 -0.65578073223E-02  0.31117139727E-01  0.00000000000E+00 0.  1.
     999901    1    3    3    0    0  0.13371225149E+00  0.45983430102E-01 -0.36492688172E-01  0.89203428092E+00  0.88000000000E+00 0.  1.
        -11    1    4    4    0    0 -0.68776929673E-01 -0.29914961635E-01  0.37560364403E-01  0.83882138027E-01  0.51100000000E-03 0.  1.
         11    1    4    4    0    0 -0.35299486368E-01 -0.92136303607E-02  0.54901310921E-02  0.36896441329E-01  0.51100000000E-03 0. -1.
</event>
<event>
 8    1  0.1126414E+005  0.1043930E+01  0.7957747E-01            NaN
         13   -1    0    0    0    0  0.00000000000E+00  0.00000000000E+00  0.74505805969E-08  0.10566000000E+00  0.10566000000E+00 0.  1.
     999900   -1    0    0    0    0 -0.00000000000E+00 -0.00000000000E+00 -0.74505805969E-08  0.93827000000E+00  0.93827000000E+00 0. -1.
     999902    2    1    2    0    0  0.24180951022E-01  0.13940294633E-02  0.75460282660E-02  0.10185606434E+01  0.10182446563E+01 0.  0.
     999903    2    3    3    0    0  0.20903306622E-01  0.82800465798E-01 -0.94634165502E-01  0.12890984517E+00  0.19216074998E-01 0.  0.
         14    1    1    2    0    0 -0.24180951022E-01 -0.13940294633E-02 -0.75460282660E-02  0.25369356576E-01  0.00000000000E+00 0. -1.
     999901    1    3    3    0    0  0.32776443998E-02 -0.81406436335E-01  0.10218019377E+00  0.88965079825E+00  0.88000000000E+00 0.  1.
        -11    1    4    4    0    0  0.86969354206E-03  0.35560608969E-01 -0.31195418862E-01  0.47315204280E-01  0.51100000000E-03 0.  1.
         11    1    4    4    0    0  0.20033613080E-01  0.47239856829E-01 -0.63438746640E-01  0.81594640893E-01  0.51100000000E-03 0. -1.
</event>
<event>
 8    1  0.1126414E+005  0.1043930E+01  0.7957747E-01            NaN
         13   -1    0    0    0    0  0.00000000000E+00  0.00000000000E+00  0.74505805969E-08  0.10566000000E+00  0.10566000000E+00 0.  1.
     999900   -1    0    0    0    0 -0.00000000000E+00 -0.00000000000E+00 -0.74505805969E-08  0.93827000000E+00  0.93827000000E+00 0. -1.
     999902    2    1    2    0    0  0.34946667156E-02 -0.20482650739E-01  0.10981750610E-01  0.10204278613E+01  0.10201571789E+01 0.  0.
     999903    2    3    3    0    0  0.67001422120E-01  0.10561971129E+00 -0.22088908370E-01  0.12855983173E+00  0.19874518418E-01 0.  0.
         14    1    1    2    0    0 -0.34946667156E-02  0.20482650739E-01 -0.10981750610E-01  0.23502138695E-01  0.00000000000E+00 0.  1.
     999901    1    3    3    0    0 -0.63506755404E-01 -0.12610236203E+00  0.33070658981E-01  0.89186802957E+00  0.88000000000E+00 0.  1.
        -11    1    4    4    0    0  0.10449497732E-01  0.99248065009E-02 -0.80620000242E-02  0.16521221272E-01  0.51100000000E-03 0.  1.
         11    1    4    4    0    0  0.56551924388E-01  0.95694904791E-01 -0.14026908346E-01  0.11203861046E+00  0.51100000000E-03 0. -1.
</event>
<event>
 8    1  0.1126414E+005  0.1043930E+01  0.7957747E-01            NaN
         13   -1    0    0    0    0  0.00000000000E+00  0.00000000000E+00  0.74505805969E-08  0.10566000000E+00  0.10566000000E+00 0.  1.
     999900   -1    0    0    0    0 -0.00000000000E+00 -0.00000000000E+00 -0.74505805969E-08  0.93827000000E+00  0.93827000000E+00 0.  1.
     999902    2    1    2    0    0 -0.96038064715E-02 -0.20491125357E-01 -0.95476074483E-02  0.10193683200E+01  0.10190723702E+01 0.  0.
     999903    2    3    3    0    0  0.11283361088E+00 -0.56292259171E-01  0.22174525596E-01  0.12960490420E+00  0.20136519570E-01 0.  0.
         14    1    1    2    0    0  0.96038064715E-02  0.20491125357E-01  0.95476074483E-02  0.24561680014E-01  0.00000000000E+00 0.  1.
     999901    1    3    3    0    0 -0.12243741735E+00  0.35801133814E-01 -0.31722133044E-01  0.88976341579E+00  0.88000000000E+00 0.  1.
        -11    1    4    4    0    0  0.88652315219E-01 -0.52902986029E-01  0.19073689853E-01  0.10498583566E+00  0.51100000000E-03 0.  1.
         11    1    4    4    0    0  0.24181295659E-01 -0.33892731426E-02  0.31008357428E-02  0.24619068534E-01  0.51100000000E-03 0. -1.
</event>
<event>
 8    1  0.1126414E+005  0.1043930E+01  0.7957747E-01            NaN
         13   -1    0    0    0    0  0.00000000000E+00  0.00000000000E+00  0.74505805969E-08  0.10566000000E+00  0.10566000000E+00 0. -1.
     999900   -1    0    0    0    0 -0.00000000000E+00 -0.00000000000E+00 -0.74505805969E-08  0.93827000000E+00  0.93827000000E+00 0.  1.
     999902    2    1    2    0    0  0.20498972740E-01 -0.35753475649E-02 -0.10292199704E-01  0.10207153415E+01  0.10204513159E+01 0.  0.
     999903    2    3    3    0    0  0.81222106399E-02  0.12317797686E+00 -0.40579866042E-01  0.13103172797E+00  0.16846480855E-01 0.  0.
         14    1    1    2    0    0 -0.20498972740E-01  0.35753475649E-02  0.10292199704E-01  0.23214658480E-01  0.00000000000E+00 0. -1.
     999901    1    3    3    0    0  0.12376762100E-01 -0.12675332442E+00  0.30287666338E-01  0.88968361355E+00  0.88000000000E+00 0. -1.
        -11    1    4    4    0    0 -0.16732541444E-02  0.56341926876E-02 -0.52621463902E-02  0.79053913442E-02  0.51100000000E-03 0. -1.
         11    1    4    4    0    0  0.97954647844E-02  0.11754378417E+00 -0.35317719652E-01  0.12312633662E+00  0.51100000000E-03 0.  1.
</event>
<event>
 8    1  0.1126414E+005  0.1043930E+01  0.7957747E-01            NaN
         13   -1    0    0    0    0  0.00000000000E+00  0.00000000000E+00  0.74505805969E-08  0.10566000000E+00  0.10566000000E+00 0. -1.
     999900   -1    0    0    0    0 -0.00000000000E+00 -0.00000000000E+00 -0.74505805969E-08  0.93827000000E+00  0.93827000000E+00 0.  1.
     999902    2    1    2    0    0 -0.12773500826E-01 -0.19205107945E-01  0.83601845927E-02  0.10193965294E+01  0.10191012673E+01 0.  0.
     999903    2    3    3    0    0 -0.12652913560E+00 -0.10558592964E-01 -0.26714265637E-01  0.13133947956E+00  0.20378931831E-01 0.  0.
         14    1    1    2    0    0  0.12773500826E-01  0.19205107945E-01 -0.83601845927E-02  0.24533470627E-01  0.00000000000E+00 0.  1.
     999901    1    3    3    0    0  0.11375563477E+00 -0.86465149817E-02  0.35074450230E-01  0.88805704981E+00  0.88000000000E+00 0.  1.
        -11    1    4    4    0    0 -0.74553022996E-01 -0.15723830905E-02 -0.24684730915E-01  0.78550765036E-01  0.51100000000E-03 0.  1.
         11    1    4    4    0    0 -0.51976112601E-01 -0.89862098733E-02 -0.20295347219E-02  0.52788714525E-01  0.51100000000E-03 0. -1.
</event>
<event>
 8    1  0.1126414E+005  0.1043930E+01  0.7957747E-01            NaN
         13   -1    0    0    0    0  0.00000000000E+00  0.00000000000E+00  0.74505805969E-08  0.10566000000E+00  0.10566000000E+00 0. -1.
     999900   -1    0    0    0    0 -0.00000000000E+00 -0.00000000000E+00 -0.74505805969E-08  0.93827000000E+00  0.93827000000E+00 0.  1.
     999902    2    1    2    0    0 -0.15460045208E-01 -0.14328633459E-01  0.12485461521E-01  0.10194308269E+01  0.10191363997E+01 0.  0.
     999903    2    3    3    0    0 -0.27506353516E-01 -0.71272469401E-01  0.10643393281E+00  0.13251818785E+00  0.19912902358E-01 0.  0.
         14    1    1    2    0    0  0.15460045208E-01  0.14328633459E-01 -0.12485461521E-01  0.24499173130E-01  0.00000000000E+00 0.  1.
     999901    1    3    3    0    0  0.12046308307E-01  0.56943835942E-01 -0.93948471285E-01  0.88691263902E+00  0.88000000000E+00 0.  1.
        -11    1    4    4    0    0 -0.10082632460E-01 -0.33455374607E-01  0.64867414060E-01  0.73681504432E-01  0.51100000000E-03 0.  1.
         11    1    4    4    0    0 -0.17423721056E-01 -0.37817094794E-01  0.41566518746E-01  0.58836683419E-01  0.51100000000E-03 0. -1.
</event>
<event>
 8    1  0.1126414E+005  0.1043930E+01  0.7957747E-01            NaN
         13   -1    0    0    0    0  0.00000000000E+00  0.00000000000E+00  0.74505805969E-08  0.10566000000E+00  0.10566000000E+00 0. -1.
     999900   -1    0    0    0    0 -0.00000000000E+00 -0.00000000000E+00 -0.74505805969E-08  0.93827000000E+00  0.93827000000E+00 0.  1.
     999902    2    1    2    0    0  0.12749463120E-01 -0.13661264318E-01 -0.94151120810E-02  0.10230057727E+01  0.10227917616E+01 0.  0.
     999903    2    3    3    0    0  0.62620557124E-01 -0.93417999501E-01  0.70779320512E-01  0.13436669532E+00  0.19910795920E-01 0.  0.
         14    1    1    2    0    0 -0.12749463120E-01  0.13661264318E-01  0.94151120810E-02  0.20924227300E-01  0.00000000000E+00 0.  1.
     999901    1    3    3    0    0 -0.49871094004E-01  0.79756735183E-01 -0.80194432593E-01  0.88863907738E+00  0.88000000000E+00 0.  1.
        -11    1    4    4    0    0  0.45539377195E-01 -0.55211030071E-01  0.36925688393E-01  0.80534839052E-01  0.51100000000E-03 0. -1.
         11    1    4    4    0    0  0.17081179929E-01 -0.38206969430E-01  0.33853632119E-01  0.53831856269E-01  0.51100000000E-03 0.  1.
</event>
<event>
 8    1  0.1126414E+005  0.1043930E+01  0.7957747E-01            NaN
         13   -1    0    0    0    0  0.00000000000E+00  0.00000000000E+00  0.74505805969E-08  0.10566000000E+00  0.10566000000E+00 0.  1.
     999900   -1    0    0    0    0 -0.00000000000E+00 -0.00000000000E+00 -0.74505805969E-08  0.93827000000E+00  0.93827000000E+00 0. -1.
     999902    2    1    2    0    0 -0.16364330295E-01 -0.20471202107E-01 -0.62109083910E-02  0.10169960659E+01  0.10166393467E+01 0.  0.
     999903    2    3    3    0    0 -0.13299434066E-01 -0.95976024613E-01 -0.86043218855E-01  0.13015697702E+00  0.12211916718E-01 0.  0.
         14    1    1    2    0    0  0.16364330295E-01  0.20471202107E-01  0.62109083910E-02  0.26933934075E-01  0.00000000000E+00 0.  1.
     999901    1    3    3    0    0 -0.30648962283E-02  0.75504822506E-01  0.79832310464E-01  0.88683908890E+00  0.88000000000E+00 0.  1.
        -11    1    4    4    0    0 -0.62582327761E-02 -0.15482407625E-01 -0.12110801877E-01  0.20634996158E-01  0.51100000000E-03 0. -1.
         11    1    4    4    0    0 -0.70412012901E-02 -0.80493616988E-01 -0.73932416978E-01  0.10952198086E+00  0.51100000000E-03 0.  1.
</event>
<event>
 8    1  0.1126414E+005  0.1043930E+01  0.7957747E-01            NaN
         13   -1    0    0    0    0  0.00000000000E+00  0.00000000000E+00  0.74505805969E-08  0.10566000000E+00  0.10566000000E+00 0. -1.
     999900   -1    0    0    0    0 -0.00000000000E+00 -0.00000000000E+00 -0.74505805969E-08  0.93827000000E+00  0.93827000000E+00 0.  1.
     999902    2    1    2    0    0 -0.13692564734E-01  0.16784319333E-01 -0.77128886754E-02  0.10209367759E+01  0.10206778199E+01 0.  0.
     999903    2    3    3    0    0 -0.11656047619E+00 -0.26179075105E-02 -0.61132723501E-01  0.13312377057E+00  0.19787126095E-01 0.  0.
         14    1    1    2    0    0  0.13692564734E-01 -0.16784319333E-01  0.77128886754E-02  0.22993224136E-01  0.00000000000E+00 0.  1.
     999901    1    3    3    0    0  0.10286791146E+00  0.19402226843E-01  0.53419834826E-01  0.88781300529E+00  0.88000000000E+00 0. -1.
        -11    1    4    4    0    0 -0.49150331882E-02  0.40613301731E-02 -0.28421229015E-02  0.69993383690E-02  0.51100000000E-03 0.  1.
         11    1    4    4    0    0 -0.11164544300E+00 -0.66792376835E-02 -0.58290600599E-01  0.12612443220E+00  0.51100000000E-03 0. -1.
</event>
<event>
 8    1  0.1126414E+005  0.1043930E+01  0.7957747E-01            NaN
         13   -1    0    0    0    0  0.00000000000E+00  0.00000000000E+00  0.74505805969E-08  0.10566000000E+00  0.10566000000E+00 0. -1.
     999900   -1    0    0    0    0 -0.00000000000E+00 -0.00000000000E+00 -0.74505805969E-08  0.93827000000E+00  0.93827000000E+00 0.  1.
     999902    2    1    2    0    0  0.77192904990E-03  0.24902589994E-01 -0.75800001581E-02  0.10178878944E+01  0.10175547033E+01 0.  0.
     999903    2    3    3    0    0  0.72718599541E-01 -0.36731195799E-01 -0.98286905739E-01  0.12816726987E+00  0.11373555438E-01 0.  0.
         14    1    1    2    0    0 -0.77192904990E-03 -0.24902589994E-01  0.75800001581E-02  0.26042105623E-01  0.00000000000E+00 0. -1.
     999901    1    3    3    0    0 -0.71946670491E-01  0.61633785793E-01  0.90706905580E-01  0.88972062450E+00  0.88000000000E+00 0. -1.
        -11    1    4    4    0    0  0.23604542775E-01 -0.11485397087E-01 -0.23768202506E-01  0.35415778365E-01  0.51100000000E-03 0.  1.
         11    1    4    4    0    0  0.49114056766E-01 -0.25245798712E-01 -0.74518703233E-01  0.92751491509E-01  0.51100000000E-03 0. -1.
</event>
<event>
 8    1  0.1126414E+005  0.1043930E+01  0.7957747E-01            NaN
         13   -1    0    0    0    0  0.00000000000E+00  0.00000000000E+00  0.74505805969E-08  0.10566000000E+00  0.10566000000E+00 0.  1.
     999900   -1    0    0    0    0 -0.00000000000E+00 -0.00000000000E+00 -0.74505805969E-08  0.93827000000E+00  0.93827000000E+00 0.  1.
     999902    2    1    2    0    0  0.17874377598E-01 -0.12584469924E-01 -0.93969615905E-02  0.10201357750E+01  0.10198582422E+01 0.  0.
     999903    2    3    3    0    0  0.12884113137E+00 -0.18722687715E-02  0.23481350100E-01  0.13249319201E+00  0.19988236609E-01 0.  0.
         14    1    1    2    0    0 -0.17874377598E-01  0.12584469924E-01  0.93969615905E-02  0.23794225033E-01  0.00000000000E+00 0.  1.
     999901    1    3    3    0    0 -0.11096675378E+00 -0.10712201153E-01 -0.32878311690E-01  0.88764258296E+00  0.88000000000E+00 0.  1.
        -11    1    4    4    0    0  0.68353466047E-01 -0.97672994122E-02  0.76686275360E-02  0.69474206924E-01  0.51100000000E-03 0.  1.
         11    1    4    4    0    0  0.60487665327E-01  0.78950306407E-02  0.15812722564E-01  0.63018985087E-01  0.51100000000E-03 0. -1.
</event>
<event>
 8    1  0.1126414E+005  0.1043930E+01  0.7957747E-01            NaN
         13   -1    0    0    0    0  0.00000000000E+00  0.00000000000E+00  0.74505805969E-08  0.10566000000E+00  0.10566000000E+00 0. -1.
     999900   -1    0    0    0    0 -0.00000000000E+00 -0.00000000000E+00 -0.74505805969E-08  0.93827000000E+00  0.93827000000E+00 0. -1.
     999902    2    1    2    0    0 -0.49217725280E-05 -0.24679264713E-01 -0.14347639355E-04  0.10192507306E+01  0.10189519054E+01 0.  0.
     999903    2    3    3    0    0  0.55447711238E-01 -0.11449237739E+00 -0.30927977499E-01  0.13240404589E+00  0.19782275226E-01 0.  0.
         14    1    1    2    0    0  0.49217725280E-05  0.24679264713E-01  0.14347639355E-04  0.24679269374E-01  0.00000000000E+00 0. -1.
     999901    1    3    3    0    0 -0.55452633011E-01  0.89813112679E-01  0.30913629860E-01  0.88684668474E+00  0.88000000000E+00 0.  1.
        -11    1    4    4    0    0  0.23232726422E-01 -0.68786121363E-01 -0.13672590252E-01  0.73881600648E-01  0.51100000000E-03 0.  1.
         11    1    4    4    0    0  0.32214984816E-01 -0.45706256030E-01 -0.17255387247E-01  0.58522445241E-01  0.51100000000E-03 0. -1.
</event>
<event>
 8    1  0.1126414E+005  0.1043930E+01  0.7957747E-01            NaN
         13   -1    0    0    0    0  0.00000000000E+00  0.00000000000E+00  0.74505805969E-08  0.10566000000E+00  0.10566000000E+00 0.  1.
     999900   -1    0    0    0    0 -0.00000000000E+00 -0.00000000000E+00 -0.74505805969E-08  0.93827000000E+00  0.93827000000E+00 0. -1.
     999902    2    1    2    0    0  0.77582003998E-02 -0.22228908702E-01  0.42897267492E-02  0.10199985184E+01  0.10197177363E+01 0.  0.
     999903    2    3    3    0    0  0.91403864245E-01  0.34526836934E-01  0.84346123169E-01  0.13060162256E+00  0.19893377127E-01 0.  0.
         14    1    1    2    0    0 -0.77582003998E-02  0.22228908702E-01 -0.42897267492E-02  0.23931481591E-01  0.00000000000E+00 0.  1.
     999901    1    3    3    0    0 -0.83645663845E-01 -0.56755745636E-01 -0.80056396420E-01  0.88939689585E+00  0.88000000000E+00 0. -1.
        -11    1    4    4    0    0  0.21729615579E-01  0.17664624964E-01  0.22645030174E-01  0.36017685669E-01  0.51100000000E-03 0. -1.
         11    1    4    4    0    0  0.69674248666E-01  0.16862211969E-01  0.61701092995E-01  0.94583936889E-01  0.51100000000E-03 0.  1.
</event>
<event>
 8    1  0.1126414E+005  0.1043930E+01  0.7957747E-01            NaN
         13   -1    0    0    0    0  0.00000000000E+00  0.00000000000E+00  0.74505805969E-08  0.10566000000E+00  0.10566000000E+00 0. -1.
     999900   -1    0    0    0    0 -0.00000000000E+00 -0.00000000000E+00 -0.74505805969E-08  0.93827000000E+00  0.93827000000E+00 0.  1.
     999902    2    1    2    0    0 -0.93603205737E-02  0.21585385048E-01  0.39611991646E-02  0.10200713423E+01  0.10197922866E+01 0.  0.
     999903    2    3    3    0    0 -0.10909673703E+00 -0.53305577136E-01  0.43190292633E-01  0.13041133377E+00  0.19953245662E-01 0.  0.
         14    1    1    2    0    0  0.93603205737E-02 -0.21585385048E-01 -0.39611991646E-02  0.23858657710E-01  0.00000000000E+00 0.  1.
     999901    1    3    3    0    0  0.99736416461E-01  0.74890962184E-01 -0.39229093469E-01  0.88966000852E+00  0.88000000000E+00 0. -1.
        -11    1    4    4    0    0 -0.18127776872E-02 -0.50897666455E-02  0.17228221508E-02  0.56939550940E-02  0.51100000000E-03 0.  1.
         11    1    4    4    0    0 -0.10728395935E+00 -0.48215810490E-01  0.41467470483E-01  0.12471737868E+00  0.51100000000E-03 0. -1.
</event>
<event>
 8    1  0.1126414E+005  0.1043930E+01  0.7957747E-01            NaN
         13   -1    0    0    0    0  0.00000000000E+00  0.00000000000E+00  0.74505805969E-08  0.10566000000E+00  0.10566000000E+00 0. -1.
     999900   -1    0    0    0    0 -0.00000000000E+00 -0.00000000000E+00 -0.74505805969E-08  0.93827000000E+00  0.93827000000E+00 0.  1.
     999902    2    1    2    0    0  0.10495536636E-01 -0.18830130167E-01  0.88539489528E-02  0.10206250112E+01  0.10203589030E+01 0.  0.
     999903    2    3    3    0    0 -0.11795475622E+00 -0.52229272612E-01 -0.20599988072E-03  0.13062666112E+00  0.20544116617E-01 0.  0.
         14    1    1    2    0    0 -0.10495536636E-01  0.18830130167E-01 -0.88539489528E-02  0.23304988810E-01  0.00000000000E+00 0. -1.
     999901    1    3    3    0    0  0.12845029286E+00  0.33399142445E-01  0.90599488336E-02  0.88999835007E+00  0.88000000000E+00 0. -1.
        -11    1    4    4    0    0 -0.91449431368E-01 -0.30694071029E-01 -0.75299288279E-03  0.96467365534E-01  0.51100000000E-03 0.  1.
         11    1    4    4    0    0 -0.26505324852E-01 -0.21535201583E-01  0.54699300207E-03  0.34159295588E-01  0.51100000000E-03 0. -1.
</event>
<event>
 8    1  0.1126414E+005  0.1043930E+01  0.7957747E-01            NaN
         13   -1    0    0    0    0  0.00000000000E+00  0.00000000000E+00  0.74505805969E-08  0.10566000000E+00  0.10566000000E+00 0. -1.
     999900   -1    0    0    0    0 -0.00000000000E+00 -0.00000000000E+00 -0.74505805969E-08  0.93827000000E+00  0.93827000000E+00 0.  1.
     999902    2    1    2    0    0 -0.22526770734E-01 -0.70871838846E-02 -0.24911634864E-02  0.10201836430E+01  0.10199072389E+01 0.  0.
     999903    2    3    3    0    0  0.15582645891E-01  0.35145263427E-02 -0.12758133060E+00  0.13045768868E+00  0.22069025098E-01 0.  0.
         14    1    1    2    0    0  0.22526770734E-01  0.70871838846E-02  0.24911634864E-02  0.23746356997E-01  0.00000000000E+00 0.  1.
     999901    1    3    3    0    0 -0.38109416625E-01 -0.10601710227E-01  0.12509016711E+00  0.88972595433E+00  0.88000000000E+00 0. -1.
        -11    1    4    4    0    0  0.10316183073E-01  0.12844621394E-01 -0.74012891621E-01  0.75825966391E-01  0.51100000000E-03 0. -1.
         11    1    4    4    0    0  0.52664628181E-02 -0.93300950516E-02 -0.53568438978E-01  0.54631722285E-01  0.51100000000E-03 0.  1.
</event>
<event>
 8    1  0.1126414E+005  0.1043930E+01  0.7957747E-01            NaN
         13   -1    0    0    0    0  0.00000000000E+00  0.00000000000E+00  0.74505805969E-08  0.10566000000E+00  0.10566000000E+00 0. -1.
     999900   -1    0    0    0    0 -0.00000000000E+00 -0.00000000000E+00 -0.74505805969E-08  0.93827000000E+00  0.93827000000E+00 0.  1.
     999902    2    1    2    0    0 -0.19751131652E-01  0.17737329221E-01  0.16616040880E-02  0.10173314854E+01  0.10169837119E+01 0.  0.
     999903    2    3    3    0    0  0.44573498733E-01 -0.11189350159E+00 -0.27126521334E-01  0.12504758075E+00  0.19851871602E-01 0.  0.
         14    1    1    2    0    0  0.19751131652E-01 -0.17737329221E-01 -0.16616040880E-02  0.26598514575E-01  0.00000000000E+00 0.  1.
     999901    1    3    3    0    0 -0.64324630385E-01  0.12963083081E+00  0.28788125422E-01  0.89228390467E+00  0.88000000000E+00 0. -1.
        -11    1    4    4    0    0  0.81426893439E-02 -0.35228958608E-01 -0.77573422035E-03  0.36169680658E-01  0.51100000000E-03 0. -1.
         11    1    4    4    0    0  0.36430809389E-01 -0.76664542979E-01 -0.26350787114E-01  0.88877900096E-01  0.51100000000E-03 0.  1.
</event>
<event>
 8    1  0.1126414E+005  0.1043930E+01  0.7957747E-01            NaN
         13   -1    0    0    0    0  0.00000000000E+00  0.00000000000E+00  0.74505805969E-08  0.10566000000E+00  0.10566000000E+00 0. -1.
     999900   -1    0    0    0    0 -0.00000000000E+00 -0.00000000000E+00 -0.74505805969E-08  0.93827000000E+00  0.93827000000E+00 0.  1.
     999902    2    1    2    0    0 -0.12179767671E-01  0.19530526606E-01  0.74747636462E-02  0.10197295805E+01  0.10194423756E+01 0.  0.
     999903    2    3    3    0    0 -0.77709599326E-01  0.18384477735E-02  0.10456107052E+00  0.13179212809E+00  0.19849076570E-01 0.  0.
         14    1    1    2    0    0  0.12179767671E-01 -0.19530526606E-01 -0.74747636462E-02  0.24200419451E-01  0.00000000000E+00 0.  1.
     999901    1    3    3    0    0  0.65529831656E-01  0.17692078833E-01 -0.97086306877E-01  0.88793745246E+00  0.88000000000E+00 0.  1.
        -11    1    4    4    0    0 -0.48662214172E-01 -0.83763015301E-02  0.62127025284E-01  0.79361211603E-01  0.51100000000E-03 0. -1.
         11    1    4    4    0    0 -0.29047385154E-01  0.10214749304E-01  0.42434045240E-01  0.52430916490E-01  0.51100000000E-03 0.  1.
</event>
<event>
 8    1  0.1126414E+005  0.1043930E+01  0.7957747E-01            NaN
         13   -1    0    0    0    0  0.00000000000E+00  0.00000000000E+00  0.74505805969E-08  0.10566000000E+00  0.10566000000E+00 0.  1.
     999900   -1    0    0    0    0 -0.00000000000E+00 -0.00000000000E+00 -0.74505805969E-08  0.93827000000E+00  0.93827000000E+00 0. -1.
     999902    2    1    2    0    0  0.12492944572E-01  0.30874052381E-02  0.19427679683E-01  0.10206267712E+01  0.10203607037E+01 0.  0.
     999903    2    3    3    0    0  0.22965712626E-01 -0.10476661207E+00 -0.69756944587E-01  0.12950609186E+00  0.20058154190E-01 0.  0.
         14    1    1    2    0    0 -0.12492944572E-01 -0.30874052381E-02 -0.19427679683E-01  0.23303228812E-01  0.00000000000E+00 0. -1.
     999901    1    3    3    0    0 -0.10472768054E-01  0.10785401731E+00  0.89184624270E-01  0.89112067933E+00  0.88000000000E+00 0.  1.
        -11    1    4    4    0    0  0.21976184341E-01 -0.53570566739E-01 -0.36876314211E-01  0.68650433135E-01  0.51100000000E-03 0.  1.
         11    1    4    4    0    0  0.98952828525E-03 -0.51196045332E-01 -0.32880630376E-01  0.60855658725E-01  0.51100000000E-03 0. -1.
</event>
<event>
 8    1  0.1126414E+005  0.1043930E+01  0.7957747E-01            NaN
         13   -1    0    0    0    0  0.00000000000E+00  0.00000000000E+00  0.74505805969E-08  0.10566000000E+00  0.10566000000E+00 0.  1.
     999900   -1    0    0    0    0 -0.00000000000E+00 -0.00000000000E+00 -0.74505805969E-08  0.93827000000E+00  0.93827000000E+00 0. -1.
     999902    2    1    2    0    0 -0.16679181843E-01 -0.16215471236E-01 -0.31333922999E-02  0.10204575744E+01  0.10201875840E+01 0.  0.
     999903    2    3    3    0    0 -0.96470547635E-01  0.85145584746E-01 -0.11148613665E-01  0.13101675601E+00  0.22017302396E-01 0.  0.
         14    1    1    2    0    0  0.16679181843E-01  0.16215471236E-01  0.31333922999E-02  0.23472425560E-01  0.00000000000E+00 0.  1.
     999901    1    3    3    0    0  0.79791365792E-01 -0.10136105598E+00  0.80152213650E-02  0.88944081843E+00  0.88000000000E+00 0.  1.
        -11    1    4    4    0    0 -0.24217214086E-01  0.12607246818E-01  0.37156866294E-02  0.27558729625E-01  0.51100000000E-03 0. -1.
         11    1    4    4    0    0 -0.72253333549E-01  0.72538337927E-01 -0.14864300294E-01  0.10345802638E+00  0.51100000000E-03 0.  1.
</event>
<event>
 8    1  0.1126414E+005  0.1043930E+01  0.7957747E-01            NaN
         13   -1    0    0    0    0  0.00000000000E+00  0.00000000000E+00  0.74505805969E-08  0.10566000000E+00  0.10566000000E+00 0.  1.
     999900   -1    0    0    0    0 -0.00000000000E+00 -0.00000000000E+00 -0.74505805969E-08  0.93827000000E+00  0.93827000000E+00 0. -1.
     999902    2    1    2    0    0  0.17713094414E-01  0.16550277594E-01  0.17927048839E-02  0.10196219932E+01  0.10193321980E+01 0.  0.
     999903    2    3    3    0    0  0.14401361432E-01  0.11087245256E+00  0.67682385777E-01  0.13212602687E+00  0.19397981437E-01 0.  0.
         14    1    1    2    0    0 -0.17713094414E-01 -0.16550277594E-01 -0.17927048839E-02  0.24308006767E-01  0.00000000000E+00 0.  1.
     999901    1    3    3    0    0  0.33117329827E-02 -0.94322174965E-01 -0.65889680893E-01  0.88749596636E+00  0.88000000000E+00 0.  1.
        -11    1    4    4    0    0  0.16447384667E-01  0.80108660059E-01  0.56160579970E-01  0.99207790735E-01  0.51100000000E-03 0.  1.
         11    1    4    4    0    0 -0.20460232358E-02  0.30763792500E-01  0.11521805807E-01  0.32918236133E-01  0.51100000000E-03 0. -1.
</event>
<event>
 8    1  0.1126414E+005  0.1043930E+01  0.7957747E-01            NaN
         13   -1    0    0    0    0  0.00000000000E+00  0.00000000000E+00  0.74505805969E-08  0.10566000000E+00  0.10566000000E+00 0.  1.
     999900   -1    0    0    0    0 -0.00000000000E+00 -0.00000000000E+00 -0.74505805969E-08  0.93827000000E+00  0.93827000000E+00 0.  1.
     999902    2    1    2    0    0  0.14243334562E-01 -0.12563964952E-01  0.38683259736E-02  0.10245472824E+01  0.10243639217E+01 0.  0.
     999903    2    3    3    0    0 -0.12035823404E+00 -0.51990070016E-01 -0.12198881769E-01  0.13329526689E+00  0.20730257496E-01 0.  0.
         14    1    1    2    0    0 -0.14243334562E-01  0.12563964952E-01 -0.38683259736E-02  0.19382717576E-01  0.00000000000E+00 0. -1.
     999901    1    3    3    0    0  0.13460156861E+00  0.39426105063E-01  0.16067207742E-01  0.89125201554E+00  0.88000000000E+00 0. -1.
        -11    1    4    4    0    0 -0.79054146337E-01 -0.24539385059E-01 -0.28545639719E-02  0.82826017220E-01  0.51100000000E-03 0.  1.
         11    1    4    4    0    0 -0.41304087708E-01 -0.27450684957E-01 -0.93443177969E-02  0.50469249668E-01  0.51100000000E-03 0. -1.
</event>
<event>
 8    1  0.1126414E+005  0.1043930E+01  0.7957747E-01            NaN
         13   -1    0    0    0    0  0.00000000000E+00  0.00000000000E+00  0.74505805969E-08  0.10566000000E+00  0.10566000000E+00 0.  1.
     999900   -1    0    0    0    0 -0.00000000000E+00 -0.00000000000E+00 -0.74505805969E-08  0.93827000000E+00  0.93827000000E+00 0.  1.
     999902    2    1    2    0    0  0.50046849481E-02 -0.21978347501E-01  0.93235758228E-02  0.10195368924E+01  0.10192450399E+01 0.  0.
     999903    2    3    3    0    0  0.78222074670E-01 -0.10444954684E+00 -0.95106115786E-02  0.13245346260E+00  0.20617158449E-01 0.  0.
         14    1    1    2    0    0 -0.50046849481E-02  0.21978347501E-01 -0.93235758228E-02  0.24393107560E-01  0.00000000000E+00 0. -1.
     999901    1    3    3    0    0 -0.73217389722E-01  0.82471199337E-01  0.18834187401E-01  0.88708342984E+00  0.88000000000E+00 0. -1.
        -11    1    4    4    0    0  0.23448825924E-01 -0.48163875890E-01 -0.36072933674E-02  0.53692458171E-01  0.51100000000E-03 0. -1.
         11    1    4    4    0    0  0.54773248746E-01 -0.56285670947E-01 -0.59033182112E-02  0.78761004432E-01  0.51100000000E-03 0.  1.
</event>
<event>
 8    1  0.1126414E+005  0.1043930E+01  0.7957747E-01            NaN
         13   -1    0    0    0    0  0.00000000000E+00  0.00000000000E+00  0.74505805969E-08  0.10566000000E+00  0.10566000000E+00 0.  1.
     999900   -1    0    0    0    0 -0.00000000000E+00 -0.00000000000E+00 -0.74505805969E-08  0.93827000000E+00  0.93827000000E+00 0.  1.
     999902    2    1    2    0    0  0.51737982652E-02 -0.99488155714E-02  0.21067554586E-01  0.10200639367E+01  0.10197847057E+01 0.  0.
     999903    2    3    3    0    0  0.11830671734E+00 -0.49929421313E-01 -0.16647809540E-01  0.13112076931E+00  0.20641707835E-01 0.  0.
         14    1    1    2    0    0 -0.51737982652E-02  0.99488155714E-02 -0.21067554586E-01  0.23866063270E-01  0.00000000000E+00 0. -1.
     999901    1    3    3    0    0 -0.11313291907E+00  0.39980605742E-01  0.37715364126E-01  0.88894316742E+00  0.88000000000E+00 0. -1.
        -11    1    4    4    0    0  0.73980365443E-01 -0.27378200746E-01 -0.69281587978E-03  0.78888538217E-01  0.51100000000E-03 0. -1.
         11    1    4    4    0    0  0.44326351893E-01 -0.22551220567E-01 -0.15954993660E-01  0.52232231092E-01  0.51100000000E-03 0.  1.
</event>
<event>
 8    1  0.1126414E+005  0.1043930E+01  0.7957747E-01            NaN
         13   -1    0    0    0    0  0.00000000000E+00  0.00000000000E+00  0.74505805969E-08  0.10566000000E+00  0.10566000000E+00 0.  1.
     999900   -1    0    0    0    0 -0.00000000000E+00 -0.00000000000E+00 -0.74505805969E-08  0.93827000000E+00  0.93827000000E+00 0. -1.
     999902    2    1    2    0    0 -0.48870815595E-02  0.15063339002E-01 -0.18244678511E-01  0.10197710256E+01  0.10194848153E+01 0.  0.
     999903    2    3    3    0    0 -0.28649377861E-01  0.32272080212E-01  0.11950817508E+00  0.12857147662E+00  0.19650615181E-01 0.  0.
         14    1    1    2    0    0  0.48870815595E-02 -0.15063339002E-01  0.18244678511E-01  0.24158974358E-01  0.00000000000E+00 0. -1.
     999901    1    3    3    0    0  0.23762296302E-01 -0.17208741210E-01 -0.13775285359E+00  0.89119954902E+00  0.88000000000E+00 0. -1.
        -11    1    4    4    0    0 -0.26468684639E-01  0.32630290738E-01  0.94016381673E-01  0.10297897011E+00  0.51100000000E-03 0. -1.
         11    1    4    4    0    0 -0.21806932222E-02 -0.35821052653E-03  0.25491793408E-01  0.25592506518E-01  0.51100000000E-03 0.  1.
</event>
<event>
 8    1  0.1126414E+005  0.1043930E+01  0.7957747E-01            NaN
         13   -1    0    0    0    0  0.00000000000E+00  0.00000000000E+00  0.74505805969E-08  0.10566000000E+00  0.10566000000E+00 0.  1.
     999900   -1    0    0    0    0 -0.00000000000E+00 -0.00000000000E+00 -0.74505805969E-08  0.93827000000E+00  0.93827000000E+00 0.  1.
     999902    2    1    2    0    0 -0.18232044561E-01 -0.34676638573E-02  0.15454635995E-01  0.10197788527E+01  0.10194928301E+01 0.  0.
     999903    2    3    3    0    0  0.50915021676E-01 -0.53259738304E-01 -0.10214602054E+00  0.12787612155E+00  0.22125862552E-01 0.  0.
         14    1    1    2    0    0  0.18232044561E-01  0.34676638573E-02 -0.15454635995E-01  0.24151147287E-01  0.00000000000E+00 0. -1.
     999901    1    3    3    0    0 -0.69147066238E-01  0.49792074447E-01  0.11760065653E+00  0.89190273117E+00  0.88000000000E+00 0. -1.
        -11    1    4    4    0    0  0.23093289302E-01 -0.16684471906E-01 -0.24170112748E-01  0.37364784019E-01  0.51100000000E-03 0. -1.
         11    1    4    4    0    0  0.27821732375E-01 -0.36575266398E-01 -0.77975907789E-01  0.90511337527E-01  0.51100000000E-03 0.  1.
</event>
<event>
 8    1  0.1126414E+005  0.1043930E+01  0.7957747E-01            NaN
         13   -1    0    0    0    0  0.00000000000E+00  0.00000000000E+00  0.74505805969E-08  0.10566000000E+00  0.10566000000E+00 0.  1.
     999900   -1    0    0    0    0 -0.00000000000E+00 -0.00000000000E+00 -0.74505805969E-08  0.93827000000E+00  0.93827000000E+00 0.  1.
     999902    2    1    2    0    0  0.72697331575E-02  0.84732413765E-02  0.21127467717E-01  0.10200340855E+01  0.10197541472E+01 0.  0.
     999903    2    3    3    0    0  0.10738703946E+00  0.33378524466E-02 -0.69698072164E-01  0.12969756148E+00  0.20506552317E-01 0.  0.
         14    1    1    2    0    0 -0.72697331575E-02 -0.84732413765E-02 -0.21127467717E-01  0.23895914541E-01  0.00000000000E+00 0. -1.
     999901    1    3    3    0    0 -0.10011730630E+00  0.51353889299E-02  0.90825539882E-01  0.89033652398E+00  0.88000000000E+00 0. -1.
        -11    1    4    4    0    0  0.10144006848E-01  0.49959406876E-02 -0.28229334109E-02  0.11665777828E-01  0.51100000000E-03 0. -1.
         11    1    4    4    0    0  0.97243032608E-01 -0.16580882411E-02 -0.66875138753E-01  0.11803178365E+00  0.51100000000E-03 0.  1.
</event>
<event>
 8    1  0.1126414E+005  0.1043930E+01  0.7957747E-01            NaN
         13   -1    0    0    0    0  0.00000000000E+00  0.00000000000E+00  0.74505805969E-08  0.10566000000E+00  0.10566000000E+00 0. -1.
     999900   -1    0    0    0    0 -0.00000000000E+00 -0.00000000000E+00 -0.74505805969E-08  0.93827000000E+00  0.93827000000E+00 0.  1.
     999902    2    1    2    0    0 -0.43496947818E-02 -0.20132252760E-01  0.12061138134E-01  0.10200616423E+01  0.10197823570E+01 0.  0.
     999903    2    3    3    0    0  0.48354259150E-01 -0.65831680330E-01  0.10310390601E+00  0.13261872582E+00  0.16892794066E-01 0.  0.
         14    1    1    2    0    0  0.43496947818E-02  0.20132252760E-01 -0.12061138134E-01  0.23868357694E-01  0.00000000000E+00 0.  1.
     999901    1    3    3    0    0 -0.52703953932E-01  0.45699427569E-01 -0.91042767872E-01  0.88744291649E+00  0.88000000000E+00 0.  1.
        -11    1    4    4    0    0  0.16639935178E-01 -0.10702471583E-01  0.23350194064E-01  0.30609198364E-01  0.51100000000E-03 0. -1.
         11    1    4    4    0    0  0.31714323973E-01 -0.55129208747E-01  0.79753711943E-01  0.10200952746E+00  0.51100000000E-03 0.  1.
</event>
<event>
 8    1  0.1126414E+005  0.1043930E+01  0.7957747E-01            NaN
         13   -1    0    0    0    0  0.00000000000E+00  0.00000000000E+00  0.74505805969E-08  0.10566000000E+00  0.10566000000E+00 0.  1.
     999900   -1    0    0    0    0 -0.00000000000E+00 -0.00000000000E+00 -0.74505805969E-08  0.93827000000E+00  0.93827000000E+00 0.  1.
     999902    2    1    2    0    0  0.88778031431E-02 -0.18378394471E-01 -0.14134968153E-02  0.10234708029E+01  0.10232662927E+01 0.  0.
     999903    2    3    3    0    0 -0.90182175180E-01 -0.79164376670E-01 -0.56336343843E-01  0.13413153466E+00  0.20436773213E-01 0.  0.
         14    1    1    2    0    0 -0.88778031431E-02  0.18378394471E-01  0.14134968153E-02  0.20459197082E-01  0.00000000000E+00 0.  1.
     999901    1    3    3    0    0  0.99059978323E-01  0.60785982199E-01  0.54922847028E-01  0.88933926826E+00  0.88000000000E+00 0. -1.
        -11    1    4    4    0    0 -0.67961637582E-01 -0.69683358422E-01 -0.48322257254E-01  0.10867316270E+00  0.51100000000E-03 0. -1.
         11    1    4    4    0    0 -0.22220537598E-01 -0.94810182484E-02 -0.80140865891E-02  0.25458371963E-01  0.51100000000E-03 0.  1.
</event>
<event>
 8    1  0.1126414E+005  0.1043930E+01  0.7957747E-01            NaN
         13   -1    0    0    0    0  0.00000000000E+00  0.00000000000E+00  0.74505805969E-08  0.10566000000E+00  0.10566000000E+00 0. -1.
     999900   -1    0    0    0    0 -0.00000000000E+00 -0.00000000000E+00 -0.74505805969E-08  0.93827000000E+00  0.93827000000E+00 0. -1.
     999902    2    1    2    0    0 -0.15677277159E-02  0.49362243997E-02 -0.23859954944E-01  0.10195143998E+01  0.10192220023E+01 0.  0.
     999903    2    3    3    0    0 -0.98530443842E-01 -0.79399752392E-01  0.16951162395E-01  0.12924484931E+00  0.20107712998E-01 0.  0.
         14    1    1    2    0    0  0.15677277159E-02 -0.49362243997E-02  0.23859954944E-01  0.24415600166E-01  0.00000000000E+00 0. -1.
     999901    1    3    3    0    0  0.96962716126E-01  0.84335976792E-01 -0.40811117339E-01  0.89026955053E+00  0.88000000000E+00 0. -1.
        -11    1    4    4    0    0 -0.32206997752E-01 -0.38467132637E-01  0.76560605125E-02  0.50753200698E-01  0.51100000000E-03 0. -1.
         11    1    4    4    0    0 -0.66323446089E-01 -0.40932619755E-01  0.92951018824E-02  0.78491648608E-01  0.51100000000E-03 0.  1.
</event>
<event>
 8    1  0.1126414E+005  0.1043930E+01  0.7957747E-01            NaN
         13   -1    0    0    0    0  0.00000000000E+00  0.00000000000E+00  0.74505805969E-08  0.10566000000E+00  0.10566000000E+00 0.  1.
     999900   -1    0    0    0    0 -0.00000000000E+00 -0.00000000000E+00 -0.74505805969E-08  0.93827000000E+00  0.93827000000E+00 0.  1.
     999902    2    1    2    0    0 -0.19254338275E-01 -0.10146434031E-01 -0.96469584541E-02  0.10201236254E+01  0.10198458058E+01 0.  0.
     999903    2    3    3    0    0 -0.36610084709E-01  0.77005685903E-01 -0.97671036515E-01  0.13127889637E+00  0.20599594503E-01 0.  0.
         14    1    1    2    0    0  0.19254338275E-01  0.10146434031E-01  0.96469584541E-02  0.23806374638E-01  0.00000000000E+00 0.  1.
     999901    1    3    3    0    0  0.17355746434E-01 -0.87152119935E-01  0.88024078061E-01  0.88884472899E+00  0.88000000000E+00 0. -1.
        -11    1    4    4    0    0 -0.14688985263E-01  0.13490182794E-01 -0.16387529349E-01  0.25817892227E-01  0.51100000000E-03 0. -1.
         11    1    4    4    0    0 -0.21921099446E-01  0.63515503110E-01 -0.81283507166E-01  0.10546100414E+00  0.51100000000E-03 0.  1.
</event>
<event>
 8    1  0.1126414E+005  0.1043930E+01  0.7957747E-01            NaN
         13   -1    0    0    0    0  0.00000000000E+00  0.00000000000E+00  0.74505805969E-08  0.10566000000E+00  0.10566000000E+00 0. -1.
     999900   -1    0    0    0    0 -0.00000000000E+00 -0.00000000000E+00 -0.74505805969E-08  0.93827000000E+00  0.93827000000E+00 0. -1.
     999902    2    1    2    0    0 -0.15027519129E-01  0.13835876300E-01 -0.11183531565E-01  0.10206420378E+01  0.10203763228E+01 0.  0.
     999903    2    3    3    0    0  0.78085762783E-01  0.26802417809E-02 -0.10307699950E+00  0.13090109749E+00  0.20140989390E-01 0.  0.
         14    1    1    2    0    0  0.15027519129E-01 -0.13835876300E-01  0.11183531565E-01  0.23287962179E-01  0.00000000000E+00 0. -1.
     999901    1    3    3    0    0 -0.93113281912E-01  0.11155634519E-01  0.91893467933E-01  0.88974094033E+00  0.88000000000E+00 0.  1.
        -11    1    4    4    0    0  0.72060909618E-01 -0.33548063345E-02 -0.91857474981E-01  0.11679934183E+00  0.51100000000E-03 0.  1.
         11    1    4    4    0    0  0.60248531648E-02  0.60350481154E-02 -0.11219524517E-01  0.14101755664E-01  0.51100000000E-03 0. -1.
</event>
<event>
 8    1  0.1126414E+005  0.1043930E+01  0.7957747E-01            NaN
         13   -1    0    0    0    0  0.00000000000E+00  0.00000000000E+00  0.74505805969E-08  0.10566000000E+00  0.10566000000E+00 0. -1.
     999900   -1    0    0    0    0 -0.00000000000E+00 -0.00000000000E+00 -0.74505805969E-08  0.93827000000E+00  0.93827000000E+00 0.  1.
     999902    2    1    2    0    0  0.12685406445E-01 -0.10549565839E-01  0.17221072209E-01  0.10200809287E+01  0.10198020998E+01 0.  0.
     999903    2    3    3    0    0 -0.67143973693E-01 -0.33368588514E-01 -0.10202554728E+00  0.12816546518E+00  0.19884623804E-01 0.  0.
         14    1    1    2    0    0 -0.12685406445E-01  0.10549565839E-01 -0.17221072209E-01  0.23849071347E-01  0.00000000000E+00 0.  1.
     999901    1    3    3    0    0  0.79829380138E-01  0.22819022674E-01  0.11924661949E+00  0.89191546348E+00  0.88000000000E+00 0. -1.
        -11    1    4    4    0    0 -0.54355323913E-01 -0.22806127902E-01 -0.65942204618E-01  0.88449172854E-01  0.51100000000E-03 0. -1.
         11    1    4    4    0    0 -0.12788649780E-01 -0.10562460612E-01 -0.36083342660E-01  0.39716292323E-01  0.51100000000E-03 0.  1.
</event>
<event>
 8    1  0.1126414E+005  0.1043930E+01  0.7957747E-01            NaN
         13   -1    0    0    0    0  0.00000000000E+00  0.00000000000E+00  0.74505805969E-08  0.10566000000E+00  0.10566000000E+00 0. -1.
     999900   -1    0    0    0    0 -0.00000000000E+00 -0.00000000000E+00 -0.74505805969E-08  0.93827000000E+00  0.93827000000E+00 0.  1.
     999902    2    1    2    0    0  0.59377089745E-03 -0.10026567739E-01 -0.17447796451E-01  0.10237976821E+01  0.10235997184E+01 0.  0.
     999903    2    3    3    0    0  0.62418072562E-01  0.84059272652E-01 -0.80969450036E-01  0.13435437858E+00  0.23088310963E-01 0.  0.
         14    1    1    2    0    0 -0.59377089745E-03  0.10026567739E-01  0.17447796451E-01  0.20132317937E-01  0.00000000000E+00 0. -1.
     999901    1    3    3    0    0 -0.61824301665E-01 -0.94085840391E-01  0.63521653585E-01  0.88944330348E+00  0.88000000000E+00 0. -1.
        -11    1    4    4    0    0  0.34378979283E-01  0.27445239513E-01 -0.31382798056E-01  0.54039767980E-01  0.51100000000E-03 0. -1.
         11    1    4    4    0    0  0.28039093279E-01  0.56614033139E-01 -0.49586651979E-01  0.80314610599E-01  0.51100000000E-03 0.  1.
</event>
<event>
 8    1  0.1126414E+005  0.1043930E+01  0.7957747E-01            NaN
         13   -1    0    0    0    0  0.00000000000E+00  0.00000000000E+00  0.74505805969E-08  0.10566000000E+00  0.10566000000E+00 0. -1.
     999900   -1    0    0    0    0 -0.00000000000E+00 -0.00000000000E+00 -0.74505805969E-08  0.93827000000E+00  0.93827000000E+00 0. -1.
     999902    2    1    2    0    0  0.14186389195E-01 -0.98051914415E-02 -0.15804525507E-01  0.10205381543E+01  0.10202700358E+01 0.  0.
     999903    2    3    3    0    0  0.87047510379E-01 -0.62730494249E-01  0.73192276333E-01  0.13147670459E+00  0.20411530178E-01 0.  0.
         14    1    1    2    0    0 -0.14186389195E-01  0.98051914415E-02  0.15804525507E-01  0.23391845676E-01  0.00000000000E+00 0. -1.
     999901    1    3    3    0    0 -0.72861121184E-01  0.52925302808E-01 -0.88996801841E-01  0.88906144973E+00  0.88000000000E+00 0. -1.
        -11    1    4    4    0    0  0.51100155677E-01 -0.39315369850E-01  0.55481497499E-01  0.85061048091E-01  0.51100000000E-03 0. -1.
         11    1    4    4    0    0  0.35947354702E-01 -0.23415124399E-01  0.17710778835E-01  0.46415656504E-01  0.51100000000E-03 0.  1.
</event>
<event>
 8    1  0.1126414E+005  0.1043930E+01  0.7957747E-01            NaN
         13   -1    0    0    0    0  0.00000000000E+00  0.00000000000E+00  0.74505805969E-08  0.10566000000E+00  0.10566000000E+00 0. -1.
     999900   -1    0    0    0    0 -0.00000000000E+00 -0.00000000000E+00 -0.74505805969E-08  0.93827000000E+00  0.93827000000E+00 0.  1.
     999902    2    1    2    0    0  0.64636136013E-02 -0.22083416782E-01  0.53499256214E-02  0.10203063402E+01  0.10200328184E+01 0.  0.
     999903    2    3    3    0    0 -0.27179423166E-02  0.12094179744E+00  0.37359196316E-01  0.12813757463E+00  0.19728732988E-01 0.  0.
         14    1    1    2    0    0 -0.64636136013E-02  0.22083416782E-01 -0.53499256214E-02  0.23623659786E-01  0.00000000000E+00 0.  1.
     999901    1    3    3    0    0  0.91815559179E-02 -0.14302521422E+00 -0.32009270694E-01  0.89216876558E+00  0.88000000000E+00 0. -1.
        -11    1    4    4    0    0 -0.11042431740E-01  0.55883590973E-01  0.18313201064E-01  0.59837659488E-01  0.51100000000E-03 0.  1.
         11    1    4    4    0    0  0.83244894238E-02  0.65058206464E-01  0.19045995252E-01  0.68299915143E-01  0.51100000000E-03 0. -1.
</event>
<event>
 8    1  0.1126414E+005  0.1043930E+01  0.7957747E-01            NaN
         13   -1    0    0    0    0  0.00000000000E+00  0.00000000000E+00  0.74505805969E-08  0.10566000000E+00  0.10566000000E+00 0. -1.
     999900   -1    0    0    0    0 -0.00000000000E+00 -0.00000000000E+00 -0.74505805969E-08  0.93827000000E+00  0.93827000000E+00 0.  1.
     999902    2    1    2    0    0 -0.98486147168E-02  0.30188719006E-02  0.22254731214E-01  0.10194069117E+01  0.10191119025E+01 0.  0.
     999903    2    3    3    0    0 -0.28507877233E-01  0.73264618880E-01 -0.99249183841E-01  0.12809000147E+00  0.19397024004E-01 0.  0.
         14    1    1    2    0    0  0.98486147168E-02 -0.30188719006E-02 -0.22254731214E-01  0.24523088321E-01  0.00000000000E+00 0.  1.
     999901    1    3    3    0    0  0.18659262516E-01 -0.70245746980E-01  0.12150391505E+00  0.89131691021E+00  0.88000000000E+00 0. -1.
        -11    1    4    4    0    0 -0.51271329437E-03  0.26146257201E-01 -0.31283177217E-01  0.40777296849E-01  0.51100000000E-03 0.  1.
         11    1    4    4    0    0 -0.27995163938E-01  0.47118361680E-01 -0.67966006624E-01  0.87312704624E-01  0.51100000000E-03 0. -1.
</event>
<event>
 8    1  0.1126414E+005  0.1043930E+01  0.7957747E-01            NaN
         13   -1    0    0    0    0  0.00000000000E+00  0.00000000000E+00  0.74505805969E-08  0.10566000000E+00  0.10566000000E+00 0.  1.
     999900   -1    0    0    0    0 -0.00000000000E+00 -0.00000000000E+00 -0.74505805969E-08  0.93827000000E+00  0.93827000000E+00 0. -1.
     999902    2    1    2    0    0  0.14007801814E-01 -0.19050692005E-02 -0.17613578112E-01  0.10213449179E+01  0.10210951745E+01 0.  0.
     999903    2    3    3    0    0 -0.28701723241E-01  0.11877900473E+00  0.39800663436E-01  0.13023036612E+00  0.21062159655E-01 0.  0.
         14    1    1    2    0    0 -0.14007801814E-01  0.19050692005E-02  0.17613578112E-01  0.22585082117E-01  0.00000000000E+00 0.  1.
     999901    1    3    3    0    0  0.42709525055E-01 -0.12068407393E+00 -0.57414241549E-01  0.89111455176E+00  0.88000000000E+00 0. -1.
        -11    1    4    4    0    0 -0.10507523718E-01  0.70838762460E-01  0.14580487831E-01  0.73084814209E-01  0.51100000000E-03 0.  1.
         11    1    4    4    0    0 -0.18194199523E-01  0.47940242266E-01  0.25220175605E-01  0.57145551912E-01  0.51100000000E-03 0. -1.
</event>
<event>
 8    1  0.1126414E+005  0.1043930E+01  0.7957747E-01            NaN
         13   -1    0    0    0    0  0.00000000000E+00  0.00000000000E+00  0.74505805969E-08  0.10566000000E+00  0.10566000000E+00 0.  1.
     999900   -1    0    0    0    0 -0.00000000000E+00 -0.00000000000E+00 -0.74505805969E-08  0.93827000000E+00  0.93827000000E+00 0.  1.
     999902    2    1    2    0    0  0.13330482431E-02 -0.59087135161E-02 -0.23807319080E-01  0.10193642036E+01  0.10190681533E+01 0.  0.
     999903    2    3    3    0    0 -0.15765858420E-01 -0.80976495503E-02  0.12398980576E+00  0.12687266065E+00  0.20225376852E-01 0.  0.
         14    1    1    2    0    0 -0.13330482431E-02  0.59087135161E-02  0.23807319080E-01  0.24565796442E-01  0.00000000000E+00 0.  1.
     999901    1    3    3    0    0  0.17098906663E-01  0.21889360342E-02 -0.14779712484E+00  0.89249154291E+00  0.88000000000E+00 0.  1.
        -11    1    4    4    0    0 -0.22199062814E-03 -0.10721328548E-01  0.40050376251E-01  0.41464321103E-01  0.51100000000E-03 0.  1.
         11    1    4    4    0    0 -0.15543867792E-01  0.26236789977E-02  0.83939429507E-01  0.85408339548E-01  0.51100000000E-03 0. -1.
</event>
<event>
 8    1  0.1126414E+005  0.1043930E+01  0.7957747E-01            NaN
         13   -1    0    0    0    0  0.00000000000E+00  0.00000000000E+00  0.74505805969E-08  0.10566000000E+00  0.10566000000E+00 0. -1.
     999900   -1    0    0    0    0 -0.00000000000E+00 -0.00000000000E+00 -0.74505805969E-08  0.93827000000E+00  0.93827000000E+00 0. -1.
     999902    2    1    2    0    0  0.22956291449E-01  0.25283933716E-03 -0.55062154967E-02  0.10203212378E+01  0.10200480648E+01 0.  0.
     999903    2    3    3    0    0 -0.36714790271E-01 -0.70123449795E-02 -0.12330914774E+00  0.13043868836E+00  0.20296716459E-01 0.  0.
         14    1    1    2    0    0 -0.22956291449E-01 -0.25283933716E-03  0.55062154967E-02  0.23608762228E-01  0.00000000000E+00 0. -1.
     999901    1    3    3    0    0  0.59671081720E-01  0.72651843166E-02  0.11780293224E+00  0.88988254941E+00  0.88000000000E+00 0.  1.
        -11    1    4    4    0    0 -0.37359000689E-01 -0.36865682703E-02 -0.98829336184E-01  0.10572031276E+00  0.51100000000E-03 0.  1.
         11    1    4    4    0    0  0.64421041796E-03 -0.33257767091E-02 -0.24479811556E-01  0.24718375606E-01  0.51100000000E-03 0. -1.
</event>
<event>
 8    1  0.1126414E+005  0.1043930E+01  0.7957747E-01            NaN
         13   -1    0    0    0    0  0.00000000000E+00  0.00000000000E+00  0.74505805969E-08  0.10566000000E+00  0.10566000000E+00 0. -1.
     999900   -1    0    0    0    0 -0.00000000000E+00 -0.00000000000E+00 -0.74505805969E-08  0.93827000000E+00  0.93827000000E+00 0. -1.
     999902    2    1    2    0    0 -0.21205650721E-01  0.95057986317E-02 -0.35414964074E-02  0.10204229367E+01  0.10201521395E+01 0.  0.
     999903    2    3    3    0    0 -0.10021327181E+00  0.62634181310E-02  0.84156675046E-01  0.13253573296E+00  0.20036075035E-01 0.  0.
         14    1    1    2    0    0  0.21205650721E-01 -0.95057986317E-02  0.35414964074E-02  0.23507063341E-01  0.00000000000E+00 0. -1.
     999901    1    3    3    0    0  0.79007621086E-01  0.32423805007E-02 -0.87698171453E-01  0.88788720370E+00  0.88000000000E+00 0. -1.
        -11    1    4    4    0    0 -0.32320353525E-01 -0.32300101807E-02  0.37479172341E-01  0.49598263056E-01  0.51100000000E-03 0. -1.
         11    1    4    4    0    0 -0.67892918282E-01  0.94934283117E-02  0.46677502705E-01  0.82937469902E-01  0.51100000000E-03 0.  1.
</event>
<event>
 8    1  0.1126414E+005  0.1043930E+01  0.7957747E-01            NaN
         13   -1    0    0    0    0  0.00000000000E+00  0.00000000000E+00  0.74505805969E-08  0.10566000000E+00  0.10566000000E+00 0. -1.
     999900   -1    0    0    0    0 -0.00000000000E+00 -0.00000000000E+00 -0.74505805969E-08  0.93827000000E+00  0.93827000000E+00 0. -1.
     999902    2    1    2    0    0  0.66038206903E-02 -0.11124057714E-01 -0.19255664190E-01  0.10207322477E+01  0.10204686109E+01 0.  0.
     999903    2    3    3    0    0  0.54140316979E-03  0.11382142299E+00 -0.61603081631E-01  0.13087752372E+00  0.19451917602E-01 0.  0.
         14    1    1    2    0    0 -0.66038206903E-02  0.11124057714E-01  0.19255664190E-01  0.23197752286E-01  0.00000000000E+00 0. -1.
     999901    1    3    3    0    0  0.60624175206E-02 -0.12494548071E+00  0.42347417442E-01  0.88985472400E+00  0.88000000000E+00 0.  1.
        -11    1    4    4    0    0 -0.36123492596E-02  0.30251352233E-01 -0.79914524992E-02  0.31501076381E-01  0.51100000000E-03 0. -1.
         11    1    4    4    0    0  0.41537524294E-02  0.83570070760E-01 -0.53611629132E-01  0.99376447337E-01  0.51100000000E-03 0.  1.
</event>
<event>
 8    1  0.1126414E+005  0.1043930E+01  0.7957747E-01            NaN
         13   -1    0    0    0    0  0.00000000000E+00  0.00000000000E+00  0.74505805969E-08  0.10566000000E+00  0.10566000000E+00 0.  1.
     999900   -1    0    0    0    0 -0.00000000000E+00 -0.00000000000E+00 -0.74505805969E-08  0.93827000000E+00  0.93827000000E+00 0. -1.
     999902    2    1    2    0    0  0.14953325311E-01 -0.47887342209E-03  0.21119946547E-01  0.10180478942E+01  0.10177188372E+01 0.  0.
     999903    2    3    3    0    0  0.70691030984E-01  0.25696155028E-01 -0.10085586767E+00  0.12750316025E+00  0.20679351651E-01 0.  0.
         14    1    1    2    0    0 -0.14953325311E-01  0.47887342209E-03 -0.21119946547E-01  0.25882105783E-01  0.00000000000E+00 0. -1.
     999901    1    3    3    0    0 -0.55737705673E-01 -0.26175028450E-01  0.12197581422E+00  0.89054473397E+00  0.88000000000E+00 0.  1.
        -11    1    4    4    0    0  0.15816479306E-01  0.10041812713E-01 -0.39444215690E-01  0.43670428124E-01  0.51100000000E-03 0. -1.
         11    1    4    4    0    0  0.54874551678E-01  0.15654342315E-01 -0.61411651980E-01  0.83832732122E-01  0.51100000000E-03 0.  1.
</event>
<event>
 8    1  0.1126414E+005  0.1043930E+01  0.7957747E-01            NaN
         13   -1    0    0    0    0  0.00000000000E+00  0.00000000000E+00  0.74505805969E-08  0.10566000000E+00  0.10566000000E+00 0. -1.
     999900   -1    0    0    0    0 -0.00000000000E+00 -0.00000000000E+00 -0.74505805969E-08  0.93827000000E+00  0.93827000000E+00 0.  1.
     999902    2    1    2    0    0  0.15864811714E-01  0.14757859794E-01 -0.72316373404E-02  0.10210874245E+01  0.10208318888E+01 0.  0.
     999903    2    3    3    0    0 -0.11539267567E-01  0.12061952865E+00  0.49960309056E-01  0.13247693885E+00  0.19284228234E-01 0.  0.
         14    1    1    2    0    0 -0.15864811714E-01 -0.14757859794E-01  0.72316373404E-02  0.22842575491E-01  0.00000000000E+00 0.  1.
     999901    1    3    3    0    0  0.27404079281E-01 -0.10586166885E+00 -0.57191946397E-01  0.88861048566E+00  0.88000000000E+00 0.  1.
        -11    1    4    4    0    0 -0.13960119163E-01  0.54933314177E-01  0.27607279413E-01  0.63047418116E-01  0.51100000000E-03 0.  1.
         11    1    4    4    0    0  0.24208515967E-02  0.65686214471E-01  0.22353029643E-01  0.69429520733E-01  0.51100000000E-03 0. -1.
</event>
<event>
 8    1  0.1126414E+005  0.1043930E+01  0.7957747E-01            NaN
         13   -1    0    0    0    0  0.00000000000E+00  0.00000000000E+00  0.74505805969E-08  0.10566000000E+00  0.10566000000E+00 0.  1.
     999900   -1    0    0    0    0 -0.00000000000E+00 -0.00000000000E+00 -0.74505805969E-08  0.93827000000E+00  0.93827000000E+00 0. -1.
     999902    2    1    2    0    0  0.15551044709E-01  0.11740343503E-01  0.14651080957E-01  0.10195512217E+01  0.10192597161E+01 0.  0.
     999903    2    3    3    0    0 -0.52927016379E-03  0.12942356425E+00 -0.97186485160E-02  0.13123720028E+00  0.19442517780E-01 0.  0.
         14    1    1    2    0    0 -0.15551044709E-01 -0.11740343503E-01 -0.14651080957E-01  0.24378778277E-01  0.00000000000E+00 0. -1.
     999901    1    3    3    0    0  0.16080314873E-01 -0.11768322075E+00  0.24369729473E-01  0.88831402144E+00  0.88000000000E+00 0.  1.
        -11    1    4    4    0    0  0.70293279742E-02  0.29043915945E-01 -0.61247847715E-02  0.30507943469E-01  0.51100000000E-03 0. -1.
         11    1    4    4    0    0 -0.75585981380E-02  0.10037964831E+00 -0.35938637445E-02  0.10072925681E+00  0.51100000000E-03 0.  1.
</event>
<event>
 8    1  0.1433112E+005  0.1043930E+01  0.7957747E-01            NaN
         13   -1    0    0    0    0  0.00000000000E+00  0.00000000000E+00  0.74505805969E-08  0.10566000000E+00  0.10566000000E+00 0. -1.
     999900   -1    0    0    0    0 -0.00000000000E+00 -0.00000000000E+00 -0.74505805969E-08  0.93827000000E+00  0.93827000000E+00 0.  1.
     999902    2    1    2    0    0  0.41280224716E-02  0.55411167330E-02  0.23498291549E-01  0.10194368530E+01  0.10191425725E+01 0.  0.
     999903    2    3    3    0    0 -0.53058416433E-01 -0.11210355059E+00  0.32303223256E-01  0.12972449310E+00  0.20063505826E-01 0.  0.
         14    1    1    2    0    0 -0.41280224716E-02 -0.55411167330E-02 -0.23498291549E-01  0.24493146999E-01  0.00000000000E+00 0.  1.
     999901    1    3    3    0    0  0.57186438904E-01  0.11764466733E+00 -0.88049317065E-02  0.88971235990E+00  0.88000000000E+00 0. -1.
        -11    1    4    4    0    0 -0.47632724109E-01 -0.83734926904E-01  0.20352229281E-01  0.98462626145E-01  0.51100000000E-03 0. -1.
         11    1    4    4    0    0 -0.54256923241E-02 -0.28368623691E-01  0.11950993974E-01  0.31261866951E-01  0.51100000000E-03 0.  1.
</event>
<event>
 8    1  0.1126414E+005  0.1043930E+01  0.7957747E-01            NaN
         13   -1    0    0    0    0  0.00000000000E+00  0.00000000000E+00  0.74505805969E-08  0.10566000000E+00  0.10566000000E+00 0. -1.
     999900   -1    0    0    0    0 -0.00000000000E+00 -0.00000000000E+00 -0.74505805969E-08  0.93827000000E+00  0.93827000000E+00 0. -1.
     999902    2    1    2    0    0  0.46442334436E-03  0.14030709249E-01 -0.16060595767E-01  0.10225988203E+01  0.10223763143E+01 0.  0.
     999903    2    3    3    0    0 -0.71825700382E-02 -0.12424307847E+00 -0.37261839635E-01  0.13151655158E+00  0.20499433821E-01 0.  0.
         14    1    1    2    0    0 -0.46442334436E-03 -0.14030709249E-01  0.16060595767E-01  0.21331179702E-01  0.00000000000E+00 0. -1.
     999901    1    3    3    0    0  0.76469933825E-02  0.13827378772E+00  0.21201243868E-01  0.89108226872E+00  0.88000000000E+00 0.  1.
        -11    1    4    4    0    0 -0.12824817925E-01 -0.48814257332E-01 -0.13994820784E-01  0.52377703305E-01  0.51100000000E-03 0.  1.
         11    1    4    4    0    0  0.56422478864E-02 -0.75428821138E-01 -0.23267018851E-01  0.79138848277E-01  0.51100000000E-03 0. -1.
</event>
<event>
 8    1  0.1126414E+005  0.1043930E+01  0.7957747E-01            NaN
         13   -1    0    0    0    0  0.00000000000E+00  0.00000000000E+00  0.74505805969E-08  0.10566000000E+00  0.10566000000E+00 0. -1.
     999900   -1    0    0    0    0 -0.00000000000E+00 -0.00000000000E+00 -0.74505805969E-08  0.93827000000E+00  0.93827000000E+00 0. -1.
     999902    2    1    2    0    0 -0.12327191512E-01  0.15515212787E-01  0.95580798611E-02  0.10219291280E+01  0.10216922747E+01 0.  0.
     999903    2    3    3    0    0 -0.10072087856E+00  0.69997447747E-01  0.52293335852E-01  0.13479438065E+00  0.19763451388E-01 0.  0.
         14    1    1    2    0    0  0.12327191512E-01 -0.15515212787E-01 -0.95580798611E-02  0.22000872006E-01  0.00000000000E+00 0.  1.
     999901    1    3    3    0    0  0.88393687053E-01 -0.54482234961E-01 -0.42735255991E-01  0.88713474734E+00  0.88000000000E+00 0. -1.
        -11    1    4    4    0    0 -0.96950172616E-02  0.10711228334E-01  0.54431019414E-03  0.14466553380E-01  0.51100000000E-03 0.  1.
         11    1    4    4    0    0 -0.91025861303E-01  0.59286219414E-01  0.51749025658E-01  0.12032782727E+00  0.51100000000E-03 0. -1.
</event>
<event>
 8    1  0.1126414E+005  0.1043930E+01  0.7957747E-01            NaN
         13   -1    0    0    0    0  0.00000000000E+00  0.00000000000E+00  0.74505805969E-08  0.10566000000E+00  0.10566000000E+00 0. -1.
     999900   -1    0    0    0    0 -0.00000000000E+00 -0.00000000000E+00 -0.74505805969E-08  0.93827000000E+00  0.93827000000E+00 0. -1.
     999902    2    1    2    0    0 -0.20894807544E-03  0.20657319384E-01  0.13271617138E-01  0.10193758899E+01  0.10190801247E+01 0.  0.
     999903    2    3    3    0    0  0.57540118534E-01  0.74714661659E-01  0.91002720537E-01  0.13241519435E+00  0.18951059096E-01 0.  0.
         14    1    1    2    0    0  0.20894807544E-03 -0.20657319384E-01 -0.13271617138E-01  0.24554110142E-01  0.00000000000E+00 0.  1.
     999901    1    3    3    0    0 -0.57749066609E-01 -0.54057342275E-01 -0.77731103399E-01  0.88696069551E+00  0.88000000000E+00 0. -1.
        -11    1    4    4    0    0  0.45301316893E-01  0.50867165599E-01  0.74439482622E-01  0.10090181139E+00  0.51100000000E-03 0.  1.
         11    1    4    4    0    0  0.12238801641E-01  0.23847496060E-01  0.16563237915E-01  0.31513382953E-01  0.51100000000E-03 0. -1.
</event>
<event>
 8    1  0.1126414E+005  0.1043930E+01  0.7957747E-01            NaN
         13   -1    0    0    0    0  0.00000000000E+00  0.00000000000E+00  0.74505805969E-08  0.10566000000E+00  0.10566000000E+00 0.  1.
     999900   -1    0    0    0    0 -0.00000000000E+00 -0.00000000000E+00 -0.74505805969E-08  0.93827000000E+00  0.93827000000E+00 0.  1.
     999902    2    1    2    0    0  0.39489078278E-02  0.14552042292E-01  0.16865308452E-01  0.10213071258E+01  0.10210565365E+01 0.  0.
     999903    2    3    3    0    0  0.42613921558E-02 -0.40470167445E-01 -0.12070185434E+00  0.12892141015E+00  0.19894683683E-01 0.  0.
         14    1    1    2    0    0 -0.39489078278E-02 -0.14552042292E-01 -0.16865308452E-01  0.22622874200E-01  0.00000000000E+00 0.  1.
     999901    1    3    3    0    0 -0.31248432804E-03  0.55022209737E-01  0.13756716279E+00  0.89238571565E+00  0.88000000000E+00 0. -1.
        -11    1    4    4    0    0 -0.68548253053E-02 -0.86148497786E-02 -0.38959140664E-01  0.40488023278E-01  0.51100000000E-03 0.  1.
         11    1    4    4    0    0  0.11116217461E-01 -0.31855317666E-01 -0.81742713676E-01  0.88433386876E-01  0.51100000000E-03 0. -1.
</event>
<event>
 8    1  0.1126414E+005  0.1043930E+01  0.7957747E-01            NaN
         13   -1    0    0    0    0  0.00000000000E+00  0.00000000000E+00  0.74505805969E-08  0.10566000000E+00  0.10566000000E+00 0. -1.
     999900   -1    0    0    0    0 -0.00000000000E+00 -0.00000000000E+00 -0.74505805969E-08  0.93827000000E+00  0.93827000000E+00 0.  1.
     999902    2    1    2    0    0  0.19469691212E-01  0.85258140490E-02  0.10949339190E-01  0.10200208718E+01  0.10197406202E+01 0.  0.
     999903    2    3    3    0    0 -0.94287483110E-04 -0.57195503372E-01 -0.11296654078E+00  0.12869759370E+00  0.23028173901E-01 0.  0.
         14    1    1    2    0    0 -0.19469691212E-01 -0.85258140490E-02 -0.10949339190E-01  0.23909128169E-01  0.00000000000E+00 0. -1.
     999901    1    3    3    0    0  0.19563978695E-01  0.65721317421E-01  0.12391587997E+00  0.89132327813E+00  0.88000000000E+00 0. -1.
        -11    1    4    4    0    0 -0.13073421885E-02 -0.34091036565E-01 -0.89302704743E-01  0.95598860417E-01  0.51100000000E-03 0.  1.
         11    1    4    4    0    0  0.12130547054E-02 -0.23104466807E-01 -0.23663836035E-01  0.33098733285E-01  0.51100000000E-03 0. -1.
</event>
<event>
 8    1  0.1126414E+005  0.1043930E+01  0.7957747E-01            NaN
         13   -1    0    0    0    0  0.00000000000E+00  0.00000000000E+00  0.74505805969E-08  0.10566000000E+00  0.10566000000E+00 0. -1.
     999900   -1    0    0    0    0 -0.00000000000E+00 -0.00000000000E+00 -0.74505805969E-08  0.93827000000E+00  0.93827000000E+00 0.  1.
     999902    2    1    2    0    0 -0.24468835391E-02  0.15216484986E-01  0.17214753040E-01  0.10208242350E+01  0.10205627087E+01 0.  0.
     999903    2    3    3    0    0 -0.24238833632E-01 -0.54473739691E-01 -0.11195568631E+00  0.12840246312E+00  0.19955136347E-01 0.  0.
         14    1    1    2    0    0  0.24468835391E-02 -0.15216484986E-01 -0.17214753040E-01  0.23105765008E-01  0.00000000000E+00 0.  1.
     999901    1    3    3    0    0  0.21791950092E-01  0.69690224677E-01  0.12917043935E+00  0.89242177187E+00  0.88000000000E+00 0. -1.
        -11    1    4    4    0    0 -0.11366684823E-01 -0.20919559138E-01 -0.65307037047E-01  0.69513305829E-01  0.51100000000E-03 0.  1.
         11    1    4    4    0    0 -0.12872148809E-01 -0.33554180553E-01 -0.46648649265E-01  0.58889157294E-01  0.51100000000E-03 0. -1.
</event>
<event>
 8    1  0.1126414E+005  0.1043930E+01  0.7957747E-01            NaN
         13   -1    0    0    0    0  0.00000000000E+00  0.00000000000E+00  0.74505805969E-08  0.10566000000E+00  0.10566000000E+00 0. -1.
     999900   -1    0    0    0    0 -0.00000000000E+00 -0.00000000000E+00 -0.74505805969E-08  0.93827000000E+00  0.93827000000E+00 0.  1.
     999902    2    1    2    0    0 -0.10131453128E-02 -0.16703642964E-01 -0.15819095948E-01  0.10209021484E+01  0.10206424030E+01 0.  0.
     999903    2    3    3    0    0  0.85235612059E-01  0.68514790470E-01 -0.69259477240E-01  0.13098254312E+00  0.20004133047E-01 0.  0.
         14    1    1    2    0    0  0.10131453128E-02  0.16703642964E-01  0.15819095948E-01  0.23027851578E-01  0.00000000000E+00 0. -1.
     999901    1    3    3    0    0 -0.86248757371E-01 -0.85218433434E-01  0.53440381292E-01  0.88991960530E+00  0.88000000000E+00 0. -1.
        -11    1    4    4    0    0  0.47679437760E-01  0.34558913872E-01 -0.48377885596E-01  0.76212389077E-01  0.51100000000E-03 0. -1.
         11    1    4    4    0    0  0.37556174299E-01  0.33955876599E-01 -0.20881591644E-01  0.54770154045E-01  0.51100000000E-03 0.  1.
</event>
<event>
 8    1  0.1126414E+005  0.1043930E+01  0.7957747E-01            NaN
         13   -1    0    0    0    0  0.00000000000E+00  0.00000000000E+00  0.74505805969E-08  0.10566000000E+00  0.10566000000E+00 0. -1.
     999900   -1    0    0    0    0 -0.00000000000E+00 -0.00000000000E+00 -0.74505805969E-08  0.93827000000E+00  0.93827000000E+00 0.  1.
     999902    2    1    2    0    0 -0.17676502341E-01 -0.16899148468E-01 -0.38031484967E-03  0.10194721875E+01  0.10191787657E+01 0.  0.
     999903    2    3    3    0    0 -0.11675831901E+00  0.25113779525E-01 -0.51226134717E-01  0.13145890497E+00  0.19852451694E-01 0.  0.
         14    1    1    2    0    0  0.17676502341E-01  0.16899148468E-01  0.38031484967E-03  0.24457812522E-01  0.00000000000E+00 0.  1.
     999901    1    3    3    0    0  0.99081816668E-01 -0.42012927993E-01  0.50845819867E-01  0.88801328251E+00  0.88000000000E+00 0. -1.
        -11    1    4    4    0    0 -0.21173342152E-01  0.32689550167E-02 -0.17827224136E-01  0.27875930947E-01  0.51100000000E-03 0.  1.
         11    1    4    4    0    0 -0.95584976857E-01  0.21844824508E-01 -0.33398910581E-01  0.10358297402E+00  0.51100000000E-03 0. -1.
</event>
<event>
 8    1  0.1126414E+005  0.1043930E+01  0.7957747E-01            NaN
         13   -1    0    0    0    0  0.00000000000E+00  0.00000000000E+00  0.74505805969E-08  0.10566000000E+00  0.10566000000E+00 0.  1.
     999900   -1    0    0    0    0 -0.00000000000E+00 -0.00000000000E+00 -0.74505805969E-08  0.93827000000E+00  0.93827000000E+00 0.  1.
     999902    2    1    2    0    0 -0.10258025884E-01  0.20158733379E-01  0.66732427760E-02  0.10203475108E+01  0.10200749527E+01 0.  0.
     999903    2    3    3    0    0 -0.56971726710E-01  0.11892075025E+00  0.72209890845E-02  0.13359139675E+00  0.20164228721E-01 0.  0.
         14    1    1    2    0    0  0.10258025884E-01 -0.20158733379E-01 -0.66732427760E-02  0.23582489174E-01  0.00000000000E+00 0.  1.
     999901    1    3    3    0    0  0.46713700826E-01 -0.98762016866E-01 -0.54774630854E-03  0.88675611407E+00  0.88000000000E+00 0.  1.
        -11    1    4    4    0    0 -0.50622338755E-01  0.92971643529E-01  0.11675307977E-01  0.10650315309E+00  0.51100000000E-03 0. -1.
         11    1    4    4    0    0 -0.63493879554E-02  0.25949106716E-01 -0.44543188929E-02  0.27088243659E-01  0.51100000000E-03 0.  1.
</event>
<event>
 8    1  0.1126414E+005  0.1043930E+01  0.7957747E-01            NaN
         13   -1    0    0    0    0  0.00000000000E+00  0.00000000000E+00  0.74505805969E-08  0.10566000000E+00  0.10566000000E+00 0. -1.
     999900   -1    0    0    0    0 -0.00000000000E+00 -0.00000000000E+00 -0.74505805969E-08  0.93827000000E+00  0.93827000000E+00 0.  1.
     999902    2    1    2    0    0 -0.19720283420E-01  0.96180215373E-02 -0.42989250360E-02  0.10215720781E+01  0.10213273883E+01 0.  0.
     999903    2    3    3    0    0  0.12298036168E+00  0.69369386404E-02  0.33727070427E-01  0.12926235682E+00  0.19973761154E-01 0.  0.
         14    1    1    2    0    0  0.19720283420E-01 -0.96180215373E-02  0.42989250360E-02  0.22357921928E-01  0.00000000000E+00 0.  1.
     999901    1    3    3    0    0 -0.14270064510E+00  0.26810828969E-02 -0.38025995463E-01  0.89230972126E+00  0.88000000000E+00 0. -1.
        -11    1    4    4    0    0  0.54223268558E-01  0.11454027375E-01  0.20532092266E-01  0.59103176987E-01  0.51100000000E-03 0. -1.
         11    1    4    4    0    0  0.68757093118E-01 -0.45170887342E-02  0.13194978162E-01  0.70159179829E-01  0.51100000000E-03 0.  1.
</event>
<event>
 8    1  0.1126414E+005  0.1043930E+01  0.7957747E-01            NaN
         13   -1    0    0    0    0  0.00000000000E+00  0.00000000000E+00  0.74505805969E-08  0.10566000000E+00  0.10566000000E+00 0.  1.
     999900   -1    0    0    0    0 -0.00000000000E+00 -0.00000000000E+00 -0.74505805969E-08  0.93827000000E+00  0.93827000000E+00 0. -1.
     999902    2    1    2    0    0 -0.43110332754E-02  0.15360492858E-01  0.16486975811E-01  0.10209876784E+01  0.10207298807E+01 0.  0.
     999903    2    3    3    0    0 -0.19400335630E-01  0.79253292543E-01  0.10496730040E+00  0.13411748230E+00  0.17660903248E-01 0.  0.
         14    1    1    2    0    0  0.43110332754E-02 -0.15360492858E-01 -0.16486975811E-01  0.22942321594E-01  0.00000000000E+00 0. -1.
     999901    1    3    3    0    0  0.15089302354E-01 -0.63892799685E-01 -0.88480324593E-01  0.88687019610E+00  0.88000000000E+00 0. -1.
        -11    1    4    4    0    0 -0.57599369015E-02  0.71711194672E-02  0.18901539341E-01  0.21026914609E-01  0.51100000000E-03 0.  1.
         11    1    4    4    0    0 -0.13640398728E-01  0.72082173076E-01  0.86065761063E-01  0.11309056769E+00  0.51100000000E-03 0. -1.
</event>
<event>
 8    1  0.1126414E+005  0.1043930E+01  0.7957747E-01            NaN
         13   -1    0    0    0    0  0.00000000000E+00  0.00000000000E+00  0.74505805969E-08  0.10566000000E+00  0.10566000000E+00 0.  1.
     999900   -1    0    0    0    0 -0.00000000000E+00 -0.00000000000E+00 -0.74505805969E-08  0.93827000000E+00  0.93827000000E+00 0.  1.
     999902    2    1    2    0    0 -0.22402674022E-01 -0.67224250008E-02 -0.40973147019E-02  0.10201842890E+01  0.10199079002E+01 0.  0.
     999903    2    3    3    0    0 -0.18781157782E-01 -0.95986408629E-01 -0.86099581592E-01  0.13186815954E+00  0.20247247249E-01 0.  0.
         14    1    1    2    0    0  0.22402674022E-01  0.67224250008E-02  0.40973147019E-02  0.23745710960E-01  0.00000000000E+00 0. -1.
     999901    1    3    3    0    0 -0.36215162403E-02  0.89263983629E-01  0.82002266890E-01  0.88831612950E+00  0.88000000000E+00 0. -1.
        -11    1    4    4    0    0 -0.18345625210E-01 -0.46836657883E-01 -0.37489597664E-01  0.62737273929E-01  0.51100000000E-03 0. -1.
         11    1    4    4    0    0 -0.43553257252E-03 -0.49149750746E-01 -0.48609983928E-01  0.69130885612E-01  0.51100000000E-03 0.  1.
</event>
<event>
 8    1  0.1126414E+005  0.1043930E+01  0.7957747E-01            NaN
         13   -1    0    0    0    0  0.00000000000E+00  0.00000000000E+00  0.74505805969E-08  0.10566000000E+00  0.10566000000E+00 0.  1.
     999900   -1    0    0    0    0 -0.00000000000E+00 -0.00000000000E+00 -0.74505805969E-08  0.93827000000E+00  0.93827000000E+00 0. -1.
     999902    2    1    2    0    0  0.78256401075E-02  0.16697723025E-01 -0.79100230722E-03  0.10254724736E+01  0.10253063512E+01 0.  0.
     999903    2    3    3    0    0 -0.11462518001E-01  0.18346779321E-02  0.13249620065E+00  0.13510265062E+00  0.23721881361E-01 0.  0.
         14    1    1    2    0    0 -0.78256401075E-02 -0.16697723025E-01  0.79100230722E-03  0.18457526431E-01  0.00000000000E+00 0. -1.
     999901    1    3    3    0    0  0.19288158109E-01  0.14863045093E-01 -0.13328720296E+00  0.89036982295E+00  0.88000000000E+00 0. -1.
        -11    1    4    4    0    0  0.16923366954E-02 -0.90186158634E-02  0.53660107514E-01  0.54441415255E-01  0.51100000000E-03 0.  1.
         11    1    4    4    0    0 -0.13154854697E-01  0.10853293796E-01  0.78836093135E-01  0.80661235361E-01  0.51100000000E-03 0. -1.
</event>
<event>
 8    1  0.1126414E+005  0.1043930E+01  0.7957747E-01            NaN
         13   -1    0    0    0    0  0.00000000000E+00  0.00000000000E+00  0.74505805969E-08  0.10566000000E+00  0.10566000000E+00 0. -1.
     999900   -1    0    0    0    0 -0.00000000000E+00 -0.00000000000E+00 -0.74505805969E-08  0.93827000000E+00  0.93827000000E+00 0.  1.
     999902    2    1    2    0    0  0.81175972345E-02  0.61076327044E-02 -0.21639300207E-01  0.10200248149E+01  0.10197446568E+01 0.  0.
     999903    2    3    3    0    0  0.40858173037E-01 -0.36811940971E-01 -0.11934271152E+00  0.13297352454E+00  0.20365807983E-01 0.  0.
         14    1    1    2    0    0 -0.81175972345E-02 -0.61076327044E-02  0.21639300207E-01  0.23905185119E-01  0.00000000000E+00 0. -1.
     999901    1    3    3    0    0 -0.32740575802E-01  0.42919573675E-01  0.97703411311E-01  0.88705129034E+00  0.88000000000E+00 0.  1.
        -11    1    4    4    0    0  0.51807333151E-02 -0.16742297599E-01 -0.31232090054E-01  0.35816882845E-01  0.51100000000E-03 0.  1.
         11    1    4    4    0    0  0.35677439722E-01 -0.20069643372E-01 -0.88110621464E-01  0.97156641698E-01  0.51100000000E-03 0. -1.
</event>
<event>
 8    1  0.1126414E+005  0.1043930E+01  0.7957747E-01            NaN
         13   -1    0    0    0    0  0.00000000000E+00  0.00000000000E+00  0.74505805969E-08  0.10566000000E+00  0.10566000000E+00 0.  1.
     999900   -1    0    0    0    0 -0.00000000000E+00 -0.00000000000E+00 -0.74505805969E-08  0.93827000000E+00  0.93827000000E+00 0.  1.
     999902    2    1    2    0    0  0.22720966625E-01 -0.55344297255E-02  0.54745318102E-02  0.10199124494E+01  0.10196296199E+01 0.  0.
     999903    2    3    3    0    0 -0.10243507340E+00 -0.37833696079E-01 -0.63206096436E-01  0.12782259653E+00  0.20476150364E-01 0.  0.
         14    1    1    2    0    0 -0.22720966625E-01  0.55344297255E-02 -0.54745318102E-02  0.24017550568E-01  0.00000000000E+00 0.  1.
     999901    1    3    3    0    0  0.12515604003E+00  0.32299266354E-01  0.68680628246E-01  0.89208985291E+00  0.88000000000E+00 0.  1.
        -11    1    4    4    0    0 -0.17891986968E-01 -0.10721745471E-01 -0.20684347663E-01  0.29379965672E-01  0.51100000000E-03 0.  1.
         11    1    4    4    0    0 -0.84543086435E-01 -0.27111950608E-01 -0.42521748773E-01  0.98442630854E-01  0.51100000000E-03 0. -1.
</event>
<event>
 8    1  0.1126414E+005  0.1043930E+01  0.7957747E-01            NaN
         13   -1    0    0    0    0  0.00000000000E+00  0.00000000000E+00  0.74505805969E-08  0.10566000000E+00  0.10566000000E+00 0. -1.
     999900   -1    0    0    0    0 -0.00000000000E+00 -0.00000000000E+00 -0.74505805969E-08  0.93827000000E+00  0.93827000000E+00 0. -1.
     999902    2    1    2    0    0  0.33946364116E-02 -0.17029273529E-01 -0.20540282358E-01  0.10170334777E+01  0.10166777620E+01 0.  0.
     999903    2    3    3    0    0  0.87992250513E-01 -0.61250796234E-01  0.67484425008E-01  0.12750514846E+00  0.14460950043E-01 0.  0.
         14    1    1    2    0    0 -0.33946364116E-02  0.17029273529E-01  0.20540282358E-01  0.26896522315E-01  0.00000000000E+00 0. -1.
     999901    1    3    3    0    0 -0.84597614102E-01  0.44221522706E-01 -0.88024707366E-01  0.88952832922E+00  0.88000000000E+00 0. -1.
        -11    1    4    4    0    0  0.13043291547E-01 -0.14067873453E-01  0.78529106090E-02  0.20735521308E-01  0.51100000000E-03 0. -1.
         11    1    4    4    0    0  0.74948958966E-01 -0.47182922781E-01  0.59631514399E-01  0.10676962716E+00  0.51100000000E-03 0.  1.
</event>
<event>
 8    1  0.1126414E+005  0.1043930E+01  0.7957747E-01            NaN
         13   -1    0    0    0    0  0.00000000000E+00  0.00000000000E+00  0.74505805969E-08  0.10566000000E+00  0.10566000000E+00 0.  1.
     999900   -1    0    0    0    0 -0.00000000000E+00 -0.00000000000E+00 -0.74505805969E-08  0.93827000000E+00  0.93827000000E+00 0. -1.
     999902    2    1    2    0    0 -0.55888872069E-02  0.34878728080E-02 -0.22440616861E-01  0.10205423494E+01  0.10202743281E+01 0.  0.
     999903    2    3    3    0    0  0.78742616808E-01 -0.38096150294E-01  0.91693242676E-01  0.12820408871E+00  0.19414459557E-01 0.  0.
         14    1    1    2    0    0  0.55888872069E-02 -0.34878728080E-02  0.22440616861E-01  0.23387650631E-01  0.00000000000E+00 0.  1.
     999901    1    3    3    0    0 -0.84331504015E-01  0.41584023102E-01 -0.11413385954E+00  0.89233826066E+00  0.88000000000E+00 0. -1.
        -11    1    4    4    0    0  0.35406637650E-01 -0.13408015798E-01  0.52707672781E-01  0.64898110668E-01  0.51100000000E-03 0.  1.
         11    1    4    4    0    0  0.43335979158E-01 -0.24688134496E-01  0.38985569895E-01  0.63305978039E-01  0.51100000000E-03 0. -1.
</event>
<event>
 8    1  0.1126414E+005  0.1043930E+01  0.7957747E-01            NaN
         13   -1    0    0    0    0  0.00000000000E+00  0.00000000000E+00  0.74505805969E-08  0.10566000000E+00  0.10566000000E+00 0.  1.
     999900   -1    0    0    0    0 -0.00000000000E+00 -0.00000000000E+00 -0.74505805969E-08  0.93827000000E+00  0.93827000000E+00 0.  1.
     999902    2    1    2    0    0  0.21429565547E-01  0.83982950200E-02  0.20137780561E-04  0.10209135267E+01  0.10206540408E+01 0.  0.
     999903    2    3    3    0    0  0.91617350503E-01  0.77526784190E-02 -0.94171283462E-01  0.13310793657E+00  0.19890932968E-01 0.  0.
         14    1    1    2    0    0 -0.21429565547E-01 -0.83982950200E-02 -0.20137780561E-04  0.23016473325E-01  0.00000000000E+00 0.  1.
     999901    1    3    3    0    0 -0.70187784956E-01  0.64561660101E-03  0.94191421243E-01  0.88780559010E+00  0.88000000000E+00 0. -1.
        -11    1    4    4    0    0  0.63342772144E-01  0.14510255112E-01 -0.64123057864E-01  0.91295574685E-01  0.51100000000E-03 0. -1.
         11    1    4    4    0    0  0.28274578359E-01 -0.67575766933E-02 -0.30048225598E-01  0.41812361889E-01  0.51100000000E-03 0.  1.
</event>
<event>
 8    1  0.1126414E+005  0.1043930E+01  0.7957747E-01            NaN
         13   -1    0    0    0    0  0.00000000000E+00  0.00000000000E+00  0.74505805969E-08  0.10566000000E+00  0.10566000000E+00 0. -1.
     999900   -1    0    0    0    0 -0.00000000000E+00 -0.00000000000E+00 -0.74505805969E-08  0.93827000000E+00  0.93827000000E+00 0. -1.
     999902    2    1    2    0    0  0.74537401891E-02 -0.16166676005E-01 -0.15493797619E-01  0.10203296309E+01  0.10200566545E+01 0.  0.
     999903    2    3    3    0    0  0.10855000010E+00 -0.56864752363E-01  0.43502553607E-01  0.13164669723E+00  0.20534803097E-01 0.  0.
         14    1    1    2    0    0 -0.74537401891E-02  0.16166676005E-01  0.15493797619E-01  0.23600369076E-01  0.00000000000E+00 0. -1.
     999901    1    3    3    0    0 -0.10109625991E+00  0.40698076359E-01 -0.58996351226E-01  0.88868293370E+00  0.88000000000E+00 0. -1.
        -11    1    4    4    0    0  0.10375635007E+00 -0.52042404640E-01  0.36053417685E-01  0.12154794160E+00  0.51100000000E-03 0.  1.
         11    1    4    4    0    0  0.47936500274E-02 -0.48223477236E-02  0.74491359226E-02  0.10098755624E-01  0.51100000000E-03 0. -1.
</event>
<event>
 8    1  0.1126414E+005  0.1043930E+01  0.7957747E-01            NaN
         13   -1    0    0    0    0  0.00000000000E+00  0.00000000000E+00  0.74505805969E-08  0.10566000000E+00  0.10566000000E+00 0.  1.
     999900   -1    0    0    0    0 -0.00000000000E+00 -0.00000000000E+00 -0.74505805969E-08  0.93827000000E+00  0.93827000000E+00 0. -1.
     999902    2    1    2    0    0 -0.18287741395E-01 -0.15828858567E-01 -0.33190142576E-02  0.10195166818E+01  0.10192243396E+01 0.  0.
     999903    2    3    3    0    0 -0.22092610592E-02  0.90537587167E-01  0.87532055330E-01  0.12832295700E+00  0.24555754104E-01 0.  0.
         14    1    1    2    0    0  0.18287741395E-01  0.15828858567E-01  0.33190142576E-02  0.24413318179E-01  0.00000000000E+00 0.  1.
     999901    1    3    3    0    0 -0.16078480336E-01 -0.10636644573E+00 -0.90851069588E-01  0.89119372482E+00  0.88000000000E+00 0.  1.
        -11    1    4    4    0    0 -0.37665996461E-02  0.43999637573E-01  0.59043543636E-01  0.73733008521E-01  0.51100000000E-03 0. -1.
         11    1    4    4    0    0  0.15573385868E-02  0.46537949594E-01  0.28488511694E-01  0.54589948483E-01  0.51100000000E-03 0.  1.
</event>
<event>
 8    1  0.1126414E+005  0.1043930E+01  0.7957747E-01            NaN
         13   -1    0    0    0    0  0.00000000000E+00  0.00000000000E+00  0.74505805969E-08  0.10566000000E+00  0.10566000000E+00 0.  1.
     999900   -1    0    0    0    0 -0.00000000000E+00 -0.00000000000E+00 -0.74505805969E-08  0.93827000000E+00  0.93827000000E+00 0.  1.
     999902    2    1    2    0    0  0.18336946714E-01 -0.37943043022E-02  0.15110909528E-01  0.10198679979E+01  0.10195841079E+01 0.  0.
     999903    2    3    3    0    0  0.50648606797E-01 -0.86776890327E-01  0.84146257607E-01  0.13268366964E+00  0.20708777254E-01 0.  0.
         14    1    1    2    0    0 -0.18336946714E-01  0.37943043022E-02 -0.15110909528E-01  0.24062002134E-01  0.00000000000E+00 0. -1.
     999901    1    3    3    0    0 -0.32311660083E-01  0.82982586025E-01 -0.69035348079E-01  0.88718432822E+00  0.88000000000E+00 0.  1.
        -11    1    4    4    0    0  0.14774950729E-01 -0.45480161425E-01  0.36969833321E-01  0.60446455223E-01  0.51100000000E-03 0.  1.
         11    1    4    4    0    0  0.35873656068E-01 -0.41296728902E-01  0.47176424286E-01  0.72237214420E-01  0.51100000000E-03 0. -1.
</event>
<event>
 8    1  0.1126414E+005  0.1043930E+01  0.7957747E-01            NaN
         13   -1    0    0    0    0  0.00000000000E+00  0.00000000000E+00  0.74505805969E-08  0.10566000000E+00  0.10566000000E+00 0. -1.
     999900   -1    0    0    0    0 -0.00000000000E+00 -0.00000000000E+00 -0.74505805969E-08  0.93827000000E+00  0.93827000000E+00 0. -1.
     999902    2    1    2    0    0 -0.19225843387E-01  0.12913235302E-01 -0.28264840925E-02  0.10205981824E+01  0.10203314541E+01 0.  0.
     999903    2    3    3    0    0 -0.57338382014E-01  0.33022831452E-01  0.11228554514E+00  0.13205570130E+00  0.21271275199E-01 0.  0.
         14    1    1    2    0    0  0.19225843387E-01 -0.12913235302E-01  0.28264840925E-02  0.23331817594E-01  0.00000000000E+00 0. -1.
     999901    1    3    3    0    0  0.38112538627E-01 -0.20109596150E-01 -0.11511202923E+00  0.88854248111E+00  0.88000000000E+00 0. -1.
        -11    1    4    4    0    0 -0.52051788612E-01  0.32399482293E-01  0.88422039436E-01  0.10760034075E+00  0.51100000000E-03 0.  1.
         11    1    4    4    0    0 -0.52865934015E-02  0.62334915964E-03  0.23863505706E-01  0.24455360549E-01  0.51100000000E-03 0. -1.
</event>
<event>
 8    1  0.1126414E+005  0.1043930E+01  0.7957747E-01            NaN
         13   -1    0    0    0    0  0.00000000000E+00  0.00000000000E+00  0.74505805969E-08  0.10566000000E+00  0.10566000000E+00 0. -1.
     999900   -1    0    0    0    0 -0.00000000000E+00 -0.00000000000E+00 -0.74505805969E-08  0.93827000000E+00  0.93827000000E+00 0.  1.
     999902    2    1    2    0    0  0.14700256944E-01  0.13445014245E-01 -0.24417928875E-01  0.10124164916E+01  0.10119259119E+01 0.  0.
     999903    2    3    3    0    0  0.92819108681E-01 -0.78251062442E-01 -0.17230714616E-01  0.12418094764E+00  0.19631467606E-01 0.  0.
         14    1    1    2    0    0 -0.14700256944E-01 -0.13445014245E-01  0.24417928875E-01  0.31513508418E-01  0.00000000000E+00 0. -1.
     999901    1    3    3    0    0 -0.78118851737E-01  0.91696076687E-01 -0.71872142591E-02  0.88823554394E+00  0.88000000000E+00 0. -1.
        -11    1    4    4    0    0  0.40752849899E-01 -0.35839125029E-01 -0.17500954764E-01  0.57024400009E-01  0.51100000000E-03 0.  1.
         11    1    4    4    0    0  0.52066258782E-01 -0.42411937413E-01  0.27024014762E-03  0.67156547629E-01  0.51100000000E-03 0. -1.
</event>
<event>
 8    1  0.1126414E+005  0.1043930E+01  0.7957747E-01            NaN
         13   -1    0    0    0    0  0.00000000000E+00  0.00000000000E+00  0.74505805969E-08  0.10566000000E+00  0.10566000000E+00 0.  1.
     999900   -1    0    0    0    0 -0.00000000000E+00 -0.00000000000E+00 -0.74505805969E-08  0.93827000000E+00  0.93827000000E+00 0.  1.
     999902    2    1    2    0    0  0.48540451591E-02 -0.19005573007E-01  0.25051569709E-01  0.10121124780E+01  0.10116122347E+01 0.  0.
     999903    2    3    3    0    0 -0.45553263180E-01  0.10389139402E+00 -0.34339310220E-01  0.12016413991E+00  0.19791684046E-01 0.  0.
         14    1    1    2    0    0 -0.48540451591E-02  0.19005573007E-01 -0.25051569709E-01  0.31817521975E-01  0.00000000000E+00 0. -1.
     999901    1    3    3    0    0  0.50407308339E-01 -0.12289696703E+00  0.59390879930E-01  0.89194833811E+00  0.88000000000E+00 0. -1.
        -11    1    4    4    0    0 -0.16691898322E-01  0.61820631109E-01 -0.16682355912E-01  0.66173801615E-01  0.51100000000E-03 0. -1.
         11    1    4    4    0    0 -0.28861364858E-01  0.42070762910E-01 -0.17656954308E-01  0.53990338300E-01  0.51100000000E-03 0.  1.
</event>
<event>
 8    1  0.1126414E+005  0.1043930E+01  0.7957747E-01            NaN
         13   -1    0    0    0    0  0.00000000000E+00  0.00000000000E+00  0.74505805969E-08  0.10566000000E+00  0.10566000000E+00 0.  1.
     999900   -1    0    0    0    0 -0.00000000000E+00 -0.00000000000E+00 -0.74505805969E-08  0.93827000000E+00  0.93827000000E+00 0. -1.
     999902    2    1    2    0    0 -0.15262769119E-01  0.37509263990E-02 -0.17641738361E-01  0.10203026323E+01  0.10200290236E+01 0.  0.
     999903    2    3    3    0    0  0.10236170113E+00 -0.55372804838E-01  0.49404433961E-01  0.12798748576E+00  0.19898066321E-01 0.  0.
         14    1    1    2    0    0  0.15262769119E-01 -0.37509263990E-02  0.17641738361E-01  0.23627367658E-01  0.00000000000E+00 0.  1.
     999901    1    3    3    0    0 -0.11762447024E+00  0.59123731237E-01 -0.67046172322E-01  0.89231514658E+00  0.88000000000E+00 0.  1.
        -11    1    4    4    0    0  0.15072743010E-01 -0.11841341181E-01  0.15711613406E-01  0.24789531250E-01  0.51100000000E-03 0.  1.
         11    1    4    4    0    0  0.87288958116E-01 -0.43531463658E-01  0.33692820555E-01  0.10319795451E+00  0.51100000000E-03 0. -1.
</event>
<event>
 8    1  0.1126414E+005  0.1043930E+01  0.7957747E-01            NaN
         13   -1    0    0    0    0  0.00000000000E+00  0.00000000000E+00  0.74505805969E-08  0.10566000000E+00  0.10566000000E+00 0. -1.
     999900   -1    0    0    0    0 -0.00000000000E+00 -0.00000000000E+00 -0.74505805969E-08  0.93827000000E+00  0.93827000000E+00 0.  1.
     999902    2    1    2    0    0 -0.26751847134E-01 -0.84102083427E-02 -0.79717297084E-03  0.10158759733E+01  0.10154885350E+01 0.  0.
     999903    2    3    3    0    0 -0.12785716837E+00  0.82745127745E-02 -0.86217345511E-02  0.12989522313E+00  0.19557904278E-01 0.  0.
         14    1    1    2    0    0  0.26751847134E-01  0.84102083427E-02  0.79717297084E-03  0.28054026702E-01  0.00000000000E+00 0.  1.
     999901    1    3    3    0    0  0.10110532124E+00 -0.16684721117E-01  0.78245615803E-02  0.88598075017E+00  0.88000000000E+00 0. -1.
        -11    1    4    4    0    0 -0.59477663635E-01  0.11167521395E-01  0.24208804090E-02  0.60567547322E-01  0.51100000000E-03 0. -1.
         11    1    4    4    0    0 -0.68379504737E-01 -0.28930086203E-02 -0.11042614960E-01  0.69327675809E-01  0.51100000000E-03 0.  1.
</event>
<event>
 8    1  0.1126414E+005  0.1043930E+01  0.7957747E-01            NaN
         13   -1    0    0    0    0  0.00000000000E+00  0.00000000000E+00  0.74505805969E-08  0.10566000000E+00  0.10566000000E+00 0. -1.
     999900   -1    0    0    0    0 -0.00000000000E+00 -0.00000000000E+00 -0.74505805969E-08  0.93827000000E+00  0.93827000000E+00 0. -1.
     999902    2    1    2    0    0 -0.15854180811E-01 -0.71163052537E-02 -0.17565671465E-01  0.10192206968E+01  0.10189211349E+01 0.  0.
     999903    2    3    3    0    0  0.63099253237E-01 -0.11148550444E+00 -0.65146889507E-02  0.12947427300E+00  0.17624208811E-01 0.  0.
         14    1    1    2    0    0  0.15854180811E-01  0.71163052537E-02  0.17565671465E-01  0.24709303181E-01  0.00000000000E+00 0. -1.
     999901    1    3    3    0    0 -0.78953434048E-01  0.10436919919E+00 -0.11050982514E-01  0.88974642382E+00  0.88000000000E+00 0.  1.
        -11    1    4    4    0    0  0.27515717845E-01 -0.34526427123E-01 -0.68752244029E-02  0.44684658777E-01  0.51100000000E-03 0.  1.
         11    1    4    4    0    0  0.35583535392E-01 -0.76959077320E-01  0.36053545221E-03  0.84789614221E-01  0.51100000000E-03 0. -1.
</event>
<event>
 8    1  0.1126414E+005  0.1043930E+01  0.7957747E-01            NaN
         13   -1    0    0    0    0  0.00000000000E+00  0.00000000000E+00  0.74505805969E-08  0.10566000000E+00  0.10566000000E+00 0. -1.
     999900   -1    0    0    0    0 -0.00000000000E+00 -0.00000000000E+00 -0.74505805969E-08  0.93827000000E+00  0.93827000000E+00 0.  1.
     999902    2    1    2    0    0  0.22403599918E-01 -0.10431789641E-01  0.18334206711E-02  0.10191488589E+01  0.10188475311E+01 0.  0.
     999903    2    3    3    0    0  0.11576846398E+00  0.39026308613E-01  0.45119013918E-01  0.13177253289E+00  0.20071995187E-01 0.  0.
         14    1    1    2    0    0 -0.22403599918E-01  0.10431789641E-01 -0.18334206711E-02  0.24781141131E-01  0.00000000000E+00 0.  1.
     999901    1    3    3    0    0 -0.93364864063E-01 -0.49458098254E-01 -0.43285593247E-01  0.88737632598E+00  0.88000000000E+00 0. -1.
        -11    1    4    4    0    0  0.48255736925E-01  0.64929158468E-02  0.14411536167E-01  0.50781173658E-01  0.51100000000E-03 0.  1.
         11    1    4    4    0    0  0.67512727056E-01  0.32533392767E-01  0.30707477752E-01  0.80991359233E-01  0.51100000000E-03 0. -1.
</event>
<event>
 8    1  0.1126414E+005  0.1043930E+01  0.7957747E-01            NaN
         13   -1    0    0    0    0  0.00000000000E+00  0.00000000000E+00  0.74505805969E-08  0.10566000000E+00  0.10566000000E+00 0.  1.
     999900   -1    0    0    0    0 -0.00000000000E+00 -0.00000000000E+00 -0.74505805969E-08  0.93827000000E+00  0.93827000000E+00 0.  1.
     999902    2    1    2    0    0  0.38665106740E-02  0.13181524155E-01 -0.18534361729E-01  0.10208599968E+01  0.10205992886E+01 0.  0.
     999903    2    3    3    0    0 -0.14113284275E-01  0.41562703946E-01 -0.12482469995E+00  0.13382764089E+00  0.20049653304E-01 0.  0.
         14    1    1    2    0    0 -0.38665106740E-02 -0.13181524155E-01  0.18534361729E-01  0.23070003219E-01  0.00000000000E+00 0.  1.
     999901    1    3    3    0    0  0.17979794949E-01 -0.28381179791E-01  0.10629033822E+00  0.88703235589E+00  0.88000000000E+00 0. -1.
        -11    1    4    4    0    0 -0.50496412238E-02  0.11448817101E-01 -0.65444089081E-01  0.66631555633E-01  0.51100000000E-03 0. -1.
         11    1    4    4    0    0 -0.90636430514E-02  0.30113886845E-01 -0.59380610867E-01  0.67196085260E-01  0.51100000000E-03 0.  1.
</event>
<event>
 8    1  0.1126414E+005  0.1043930E+01  0.7957747E-01            NaN
         13   -1    0    0    0    0  0.00000000000E+00  0.00000000000E+00  0.74505805969E-08  0.10566000000E+00  0.10566000000E+00 0.  1.
     999900   -1    0    0    0    0 -0.00000000000E+00 -0.00000000000E+00 -0.74505805969E-08  0.93827000000E+00  0.93827000000E+00 0. -1.
     999902    2    1    2    0    0  0.79666617691E-02 -0.49592135141E-02 -0.22067636488E-01  0.10199499650E+01  0.10196680288E+01 0.  0.
     999903    2    3    3    0    0  0.27657472340E-01 -0.12601672183E+00 -0.15409614065E-01  0.13141916778E+00  0.19707650761E-01 0.  0.
         14    1    1    2    0    0 -0.79666617691E-02  0.49592135141E-02  0.22067636488E-01  0.23980035000E-01  0.00000000000E+00 0.  1.
     999901    1    3    3    0    0 -0.19690810571E-01  0.12105750831E+00 -0.66580224235E-02  0.88853079722E+00  0.88000000000E+00 0. -1.
        -11    1    4    4    0    0  0.13294305566E-01 -0.24008364076E-01 -0.47072308884E-02  0.27848864425E-01  0.51100000000E-03 0. -1.
         11    1    4    4    0    0  0.14363166774E-01 -0.10200835775E+00 -0.10702383176E-01  0.10357030336E+00  0.51100000000E-03 0.  1.
</event>
<event>
 8    1  0.1126414E+005  0.1043930E+01  0.7957747E-01            NaN
         13   -1    0    0    0    0  0.00000000000E+00  0.00000000000E+00  0.74505805969E-08  0.10566000000E+00  0.10566000000E+00 0. -1.
     999900   -1    0    0    0    0 -0.00000000000E+00 -0.00000000000E+00 -0.74505805969E-08  0.93827000000E+00  0.93827000000E+00 0.  1.
     999902    2    1    2    0    0  0.84106919268E-02 -0.21293962253E-01  0.59185353076E-02  0.10202825556E+01  0.10200084762E+01 0.  0.
     999903    2    3    3    0    0 -0.38959127370E-01  0.10008233660E+00 -0.66325144059E-01  0.12776070436E+00  0.19735377883E-01 0.  0.
         14    1    1    2    0    0 -0.84106919268E-02  0.21293962253E-01 -0.59185353076E-02  0.23647444414E-01  0.00000000000E+00 0. -1.
     999901    1    3    3    0    0  0.47369819297E-01 -0.12137629885E+00  0.72243679367E-01  0.89252185122E+00  0.88000000000E+00 0. -1.
        -11    1    4    4    0    0 -0.94251832513E-02  0.35802312971E-01 -0.32852019092E-01  0.49499050222E-01  0.51100000000E-03 0. -1.
         11    1    4    4    0    0 -0.29533944119E-01  0.64280023628E-01 -0.33473124966E-01  0.78261654140E-01  0.51100000000E-03 0.  1.
</event>
<event>
 8    1  0.1126414E+005  0.1043930E+01  0.7957747E-01            NaN
         13   -1    0    0    0    0  0.00000000000E+00  0.00000000000E+00  0.74505805969E-08  0.10566000000E+00  0.10566000000E+00 0. -1.
     999900   -1    0    0    0    0 -0.00000000000E+00 -0.00000000000E+00 -0.74505805969E-08  0.93827000000E+00  0.93827000000E+00 0. -1.
     999902    2    1    2    0    0  0.98477479262E-02 -0.16518654358E-01  0.18997348019E-01  0.10168977357E+01  0.10165383719E+01 0.  0.
     999903    2    3    3    0    0 -0.10684575576E+00 -0.63629228144E-01  0.21675518213E-01  0.12794107053E+00  0.20842150587E-01 0.  0.
         14    1    1    2    0    0 -0.98477479262E-02  0.16518654358E-01 -0.18997348019E-01  0.27032264292E-01  0.00000000000E+00 0.  1.
     999901    1    3    3    0    0  0.11669350369E+00  0.47110573786E-01 -0.26781701941E-02  0.88895666518E+00  0.88000000000E+00 0. -1.
        -11    1    4    4    0    0 -0.19122810591E-01 -0.15581201221E-01 -0.31848028584E-02  0.24876893026E-01  0.51100000000E-03 0.  1.
         11    1    4    4    0    0 -0.87722945168E-01 -0.48048026924E-01  0.24860321071E-01  0.10306417751E+00  0.51100000000E-03 0. -1.
</event>
<event>
 8    1  0.1126414E+005  0.1043930E+01  0.7957747E-01            NaN
         13   -1    0    0    0    0  0.00000000000E+00  0.00000000000E+00  0.74505805969E-08  0.10566000000E+00  0.10566000000E+00 0. -1.
     999900   -1    0    0    0    0 -0.00000000000E+00 -0.00000000000E+00 -0.74505805969E-08  0.93827000000E+00  0.93827000000E+00 0.  1.
     999902    2    1    2    0    0  0.15090133213E-01 -0.12886598413E-01 -0.15547610451E-01  0.10187207809E+01  0.10184088200E+01 0.  0.
     999903    2    3    3    0    0 -0.11753751893E+00  0.35616020922E-01 -0.27297197156E-01  0.12738433990E+00  0.19951535661E-01 0.  0.
         14    1    1    2    0    0 -0.15090133213E-01  0.12886598413E-01  0.15547610451E-01  0.25209219143E-01  0.00000000000E+00 0. -1.
     999901    1    3    3    0    0  0.13262765215E+00 -0.48502619335E-01  0.11749586705E-01  0.89133644096E+00  0.88000000000E+00 0. -1.
        -11    1    4    4    0    0 -0.32446597157E-01  0.17802691907E-01 -0.31003637288E-02  0.37142844296E-01  0.51100000000E-03 0. -1.
         11    1    4    4    0    0 -0.85090921776E-01  0.17813329015E-01 -0.24196833428E-01  0.90241495601E-01  0.51100000000E-03 0.  1.
</event>
<event>
 8    1  0.1126414E+005  0.1043930E+01  0.7957747E-01            NaN
         13   -1    0    0    0    0  0.00000000000E+00  0.00000000000E+00  0.74505805969E-08  0.10566000000E+00  0.10566000000E+00 0.  1.
     999900   -1    0    0    0    0 -0.00000000000E+00 -0.00000000000E+00 -0.74505805969E-08  0.93827000000E+00  0.93827000000E+00 0. -1.
     999902    2    1    2    0    0 -0.22193431798E-02 -0.23801881172E-01 -0.39991129671E-02  0.10196926747E+01  0.10194045826E+01 0.  0.
     999903    2    3    3    0    0 -0.99754377655E-02  0.82412904219E-01 -0.95944732463E-01  0.12851607350E+00  0.20483977172E-01 0.  0.
         14    1    1    2    0    0  0.22193431798E-02  0.23801881172E-01  0.39991129671E-02  0.24237325265E-01  0.00000000000E+00 0.  1.
     999901    1    3    3    0    0  0.77560945857E-02 -0.10621478539E+00  0.91945619496E-01  0.89117660123E+00  0.88000000000E+00 0. -1.
        -11    1    4    4    0    0  0.40868643469E-02  0.31338157901E-01 -0.45208911938E-01  0.55162391540E-01  0.51100000000E-03 0. -1.
         11    1    4    4    0    0 -0.14062302112E-01  0.51074746318E-01 -0.50735820526E-01  0.73353681963E-01  0.51100000000E-03 0.  1.
</event>
<event>
 8    1  0.1126414E+005  0.1043930E+01  0.7957747E-01            NaN
         13   -1    0    0    0    0  0.00000000000E+00  0.00000000000E+00  0.74505805969E-08  0.10566000000E+00  0.10566000000E+00 0.  1.
     999900   -1    0    0    0    0 -0.00000000000E+00 -0.00000000000E+00 -0.74505805969E-08  0.93827000000E+00  0.93827000000E+00 0.  1.
     999902    2    1    2    0    0  0.66390202572E-02 -0.11321328094E-01  0.18634184144E-01  0.10211378549E+01  0.10208834590E+01 0.  0.
     999903    2    3    3    0    0  0.10405277801E+00  0.67104784697E-01  0.41316431583E-01  0.13200649243E+00  0.19713796781E-01 0.  0.
         14    1    1    2    0    0 -0.66390202572E-02  0.11321328094E-01 -0.18634184144E-01  0.22792145105E-01  0.00000000000E+00 0. -1.
     999901    1    3    3    0    0 -0.97413757756E-01 -0.78426112792E-01 -0.22682247439E-01  0.88913136246E+00  0.88000000000E+00 0. -1.
        -11    1    4    4    0    0  0.90178837143E-01  0.62637096951E-01  0.30836751543E-01  0.11404733644E+00  0.51100000000E-03 0. -1.
         11    1    4    4    0    0  0.13873940871E-01  0.44676877466E-02  0.10479680040E-01  0.17959155988E-01  0.51100000000E-03 0.  1.
</event>
<event>
 8    1  0.1126414E+005  0.1043930E+01  0.7957747E-01            NaN
         13   -1    0    0    0    0  0.00000000000E+00  0.00000000000E+00  0.74505805969E-08  0.10566000000E+00  0.10566000000E+00 0.  1.
     999900   -1    0    0    0    0 -0.00000000000E+00 -0.00000000000E+00 -0.74505805969E-08  0.93827000000E+00  0.93827000000E+00 0. -1.
     999902    2    1    2    0    0  0.11962337953E-01 -0.14669256045E-01 -0.14509365122E-01  0.10200803401E+01  0.10198014973E+01 0.  0.
     999903    2    3    3    0    0  0.11518431488E+00 -0.30699960677E-01  0.51561211110E-01  0.13144257301E+00  0.20215774263E-01 0.  0.
         14    1    1    2    0    0 -0.11962337953E-01  0.14669256045E-01  0.14509365122E-01  0.23849659924E-01  0.00000000000E+00 0.  1.
     999901    1    3    3    0    0 -0.10322197693E+00  0.16030704631E-01 -0.66070576232E-01  0.88863776707E+00  0.88000000000E+00 0.  1.
        -11    1    4    4    0    0  0.20075020276E-01 -0.27736154997E-02  0.17024631321E-01  0.26472600451E-01  0.51100000000E-03 0. -1.
         11    1    4    4    0    0  0.95109294603E-01 -0.27926345177E-01  0.34536579789E-01  0.10496997256E+00  0.51100000000E-03 0.  1.
</event>
<event>
 8    1  0.1126414E+005  0.1043930E+01  0.7957747E-01            NaN
         13   -1    0    0    0    0  0.00000000000E+00  0.00000000000E+00  0.74505805969E-08  0.10566000000E+00  0.10566000000E+00 0. -1.
     999900   -1    0    0    0    0 -0.00000000000E+00 -0.00000000000E+00 -0.74505805969E-08  0.93827000000E+00  0.93827000000E+00 0.  1.
     999902    2    1    2    0    0  0.23460216929E-01 -0.27698742633E-02 -0.39125986287E-02  0.10199850128E+01  0.10197039100E+01 0.  0.
     999903    2    3    3    0    0 -0.80516717640E-01  0.12954886384E-01 -0.97669129514E-01  0.12877866294E+00  0.19847273593E-01 0.  0.
         14    1    1    2    0    0 -0.23460216929E-01  0.27698742633E-02  0.39125986287E-02  0.23944987155E-01  0.00000000000E+00 0.  1.
     999901    1    3    3    0    0  0.10397693457E+00 -0.15724760647E-01  0.93756530885E-01  0.89120634990E+00  0.88000000000E+00 0. -1.
        -11    1    4    4    0    0 -0.35078246490E-01  0.15626660290E-01 -0.45575104378E-01  0.59598885465E-01  0.51100000000E-03 0. -1.
         11    1    4    4    0    0 -0.45438471150E-01 -0.26717739064E-02 -0.52094025136E-01  0.69179777480E-01  0.51100000000E-03 0.  1.
</event>
<event>
 8    1  0.1126414E+005  0.1043930E+01  0.7957747E-01            NaN
         13   -1    0    0    0    0  0.00000000000E+00  0.00000000000E+00  0.74505805969E-08  0.10566000000E+00  0.10566000000E+00 0. -1.
     999900   -1    0    0    0    0 -0.00000000000E+00 -0.00000000000E+00 -0.74505805969E-08  0.93827000000E+00  0.93827000000E+00 0. -1.
     999902    2    1    2    0    0  0.92438120824E-02 -0.20515993688E-03  0.21379496485E-01  0.10206368031E+01  0.10203709672E+01 0.  0.
     999903    2    3    3    0    0  0.53022417146E-02 -0.13008591459E+00 -0.26783193840E-02  0.13076977655E+00  0.11962529951E-01 0.  0.
         14    1    1    2    0    0 -0.92438120824E-02  0.20515993688E-03 -0.21379496485E-01  0.23293196912E-01  0.00000000000E+00 0.  1.
     999901    1    3    3    0    0  0.39415703678E-02  0.12988075466E+00  0.24057815869E-01  0.88986702653E+00  0.88000000000E+00 0. -1.
        -11    1    4    4    0    0 -0.24388683917E-02 -0.17679260831E-01 -0.29459004080E-02  0.18095408058E-01  0.51100000000E-03 0.  1.
         11    1    4    4    0    0  0.77411101063E-02 -0.11240665376E+00  0.26758102399E-03  0.11267436850E+00  0.51100000000E-03 0. -1.
</event>
<event>
 8    1  0.1126414E+005  0.1043930E+01  0.7957747E-01            NaN
         13   -1    0    0    0    0  0.00000000000E+00  0.00000000000E+00  0.74505805969E-08  0.10566000000E+00  0.10566000000E+00 0.  1.
     999900   -1    0    0    0    0 -0.00000000000E+00 -0.00000000000E+00 -0.74505805969E-08  0.93827000000E+00  0.93827000000E+00 0.  1.
     999902    2    1    2    0    0 -0.18749758174E-01  0.62300612697E-02  0.12853986494E-01  0.10203589995E+01  0.10200867100E+01 0.  0.
     999903    2    3    3    0    0  0.22144899078E-01  0.12645190460E+00 -0.14448955419E-01  0.13082478700E+00  0.20636662686E-01 0.  0.
         14    1    1    2    0    0  0.18749758174E-01 -0.62300612697E-02 -0.12853986494E-01  0.23571000484E-01  0.00000000000E+00 0.  1.
     999901    1    3    3    0    0 -0.40894657252E-01 -0.12022184333E+00  0.27302941913E-01  0.88953421252E+00  0.88000000000E+00 0. -1.
        -11    1    4    4    0    0  0.17794172944E-01  0.60274226614E-01 -0.14514262115E-01  0.64502247329E-01  0.51100000000E-03 0.  1.
         11    1    4    4    0    0  0.43507261335E-02  0.66177677989E-01  0.65306695979E-04  0.66322539667E-01  0.51100000000E-03 0. -1.
</event>
<event>
 8    1  0.1126414E+005  0.1043930E+01  0.7957747E-01            NaN
         13   -1    0    0    0    0  0.00000000000E+00  0.00000000000E+00  0.74505805969E-08  0.10566000000E+00  0.10566000000E+00 0.  1.
     999900   -1    0    0    0    0 -0.00000000000E+00 -0.00000000000E+00 -0.74505805969E-08  0.93827000000E+00  0.93827000000E+00 0.  1.
     999902    2    1    2    0    0 -0.15300020997E-01  0.25013080957E-01  0.12326373425E-01  0.10121230142E+01  0.10116231075E+01 0.  0.
     999903    2    3    3    0    0 -0.58276729505E-01 -0.86813495722E-01 -0.58148835188E-01  0.12121396402E+00  0.19462214649E-01 0.  0.
         14    1    1    2    0    0  0.15300020997E-01 -0.25013080957E-01 -0.12326373425E-01  0.31806985762E-01  0.00000000000E+00 0. -1.
     999901    1    3    3    0    0  0.42976708508E-01  0.11182657668E+00  0.70475208613E-01  0.89090905021E+00  0.88000000000E+00 0. -1.
        -11    1    4    4    0    0 -0.23827276715E-01 -0.48973478921E-01 -0.36984557596E-01  0.65835092275E-01  0.51100000000E-03 0.  1.
         11    1    4    4    0    0 -0.34449452790E-01 -0.37840016801E-01 -0.21164277592E-01  0.55378871748E-01  0.51100000000E-03 0. -1.
</event>
<event>
 8    1  0.1126414E+005  0.1043930E+01  0.7957747E-01            NaN
         13   -1    0    0    0    0  0.00000000000E+00  0.00000000000E+00  0.74505805969E-08  0.10566000000E+00  0.10566000000E+00 0.  1.
     999900   -1    0    0    0    0 -0.00000000000E+00 -0.00000000000E+00 -0.74505805969E-08  0.93827000000E+00  0.93827000000E+00 0.  1.
     999902    2    1    2    0    0 -0.19007919189E-01 -0.70532737786E-02 -0.12971024953E-01  0.10198614074E+01  0.10195773600E+01 0.  0.
     999903    2    3    3    0    0  0.63703785707E-01  0.79889291846E-01  0.73610728270E-01  0.12750686133E+00  0.19974711632E-01 0.  0.
         14    1    1    2    0    0  0.19007919189E-01  0.70532737786E-02  0.12971024953E-01  0.24068592631E-01  0.00000000000E+00 0.  1.
     999901    1    3    3    0    0 -0.82711704897E-01 -0.86942565624E-01 -0.86581753223E-01  0.89235454604E+00  0.88000000000E+00 0.  1.
        -11    1    4    4    0    0  0.28347977888E-01  0.44930735433E-01  0.47881896657E-01  0.71521437243E-01  0.51100000000E-03 0. -1.
         11    1    4    4    0    0  0.35355807820E-01  0.34958556413E-01  0.25728831614E-01  0.55985424088E-01  0.51100000000E-03 0.  1.
</event>
<event>
 8    1  0.1126414E+005  0.1043930E+01  0.7957747E-01            NaN
         13   -1    0    0    0    0  0.00000000000E+00  0.00000000000E+00  0.74505805969E-08  0.10566000000E+00  0.10566000000E+00 0. -1.
     999900   -1    0    0    0    0 -0.00000000000E+00 -0.00000000000E+00 -0.74505805969E-08  0.93827000000E+00  0.93827000000E+00 0. -1.
     999902    2    1    2    0    0  0.18511722986E-01  0.57975985576E-02 -0.13303777686E-01  0.10204079563E+01  0.10201368099E+01 0.  0.
     999903    2    3    3    0    0  0.47771186212E-01 -0.72846870775E-01  0.94442454197E-01  0.12987422917E+00  0.18952188132E-01 0.  0.
         14    1    1    2    0    0 -0.18511722986E-01 -0.57975985576E-02  0.13303777686E-01  0.23522043654E-01  0.00000000000E+00 0.  1.
     999901    1    3    3    0    0 -0.29259463225E-01  0.78644469332E-01 -0.10774623188E+00  0.89053372717E+00  0.88000000000E+00 0. -1.
        -11    1    4    4    0    0  0.18262447252E-01 -0.26867672299E-01  0.49085737187E-01  0.58864756099E-01  0.51100000000E-03 0.  1.
         11    1    4    4    0    0  0.29508738959E-01 -0.45979198476E-01  0.45356717011E-01  0.71009473075E-01  0.51100000000E-03 0. -1.
</event>
<event>
 8    1  0.1126414E+005  0.1043930E+01  0.7957747E-01            NaN
         13   -1    0    0    0    0  0.00000000000E+00  0.00000000000E+00  0.74505805969E-08  0.10566000000E+00  0.10566000000E+00 0. -1.
     999900   -1    0    0    0    0 -0.00000000000E+00 -0.00000000000E+00 -0.74505805969E-08  0.93827000000E+00  0.93827000000E+00 0.  1.
     999902    2    1    2    0    0  0.38478253043E-02  0.19198833537E-01 -0.12082605612E-01  0.10209215162E+01  0.10206622124E+01 0.  0.
     999903    2    3    3    0    0  0.63645378683E-01 -0.10635029572E+00  0.29390823824E-01  0.12903678340E+00  0.20628895170E-01 0.  0.
         14    1    1    2    0    0 -0.38478253043E-02 -0.19198833537E-01  0.12082605612E-01  0.23008483807E-01  0.00000000000E+00 0.  1.
     999901    1    3    3    0    0 -0.59797553379E-01  0.12554912926E+00 -0.41473429436E-01  0.89188473280E+00  0.88000000000E+00 0. -1.
        -11    1    4    4    0    0  0.37833011474E-01 -0.80649148327E-01  0.23534117352E-01  0.92139772539E-01  0.51100000000E-03 0.  1.
         11    1    4    4    0    0  0.25812367210E-01 -0.25701147395E-01  0.58567064726E-02  0.36897010856E-01  0.51100000000E-03 0. -1.
</event>
<event>
 8    1  0.1126414E+005  0.1043930E+01  0.7957747E-01            NaN
         13   -1    0    0    0    0  0.00000000000E+00  0.00000000000E+00  0.74505805969E-08  0.10566000000E+00  0.10566000000E+00 0.  1.
     999900   -1    0    0    0    0 -0.00000000000E+00 -0.00000000000E+00 -0.74505805969E-08  0.93827000000E+00  0.93827000000E+00 0.  1.
     999902    2    1    2    0    0 -0.44495929507E-02 -0.14873613077E-01  0.17525904195E-01  0.10205167439E+01  0.10202481287E+01 0.  0.
     999903    2    3    3    0    0  0.12520361665E+00 -0.30540771194E-01 -0.71025309351E-02  0.13053810684E+00  0.19520939150E-01 0.  0.
         14    1    1    2    0    0  0.44495929507E-02  0.14873613077E-01 -0.17525904195E-01  0.23413256101E-01  0.00000000000E+00 0. -1.
     999901    1    3    3    0    0 -0.12965320960E+00  0.15667158117E-01  0.24628435130E-01  0.88997863706E+00  0.88000000000E+00 0.  1.
        -11    1    4    4    0    0  0.78510255530E-01 -0.13385675242E-01  0.33053676142E-02  0.79713380942E-01  0.51100000000E-03 0. -1.
         11    1    4    4    0    0  0.46693361117E-01 -0.17155095952E-01 -0.10407898549E-01  0.50824725899E-01  0.51100000000E-03 0.  1.
</event>
<event>
 8    1  0.1126414E+005  0.1043930E+01  0.7957747E-01            NaN
         13   -1    0    0    0    0  0.00000000000E+00  0.00000000000E+00  0.74505805969E-08  0.10566000000E+00  0.10566000000E+00 0. -1.
     999900   -1    0    0    0    0 -0.00000000000E+00 -0.00000000000E+00 -0.74505805969E-08  0.93827000000E+00  0.93827000000E+00 0.  1.
     999902    2    1    2    0    0  0.18154947720E-01  0.13115532771E-01  0.40860248322E-02  0.10211634692E+01  0.10209096512E+01 0.  0.
     999903    2    3    3    0    0 -0.11078536353E-01 -0.10279923309E+00 -0.75447706054E-01  0.12952652295E+00  0.19858184887E-01 0.  0.
         14    1    1    2    0    0 -0.18154947720E-01 -0.13115532771E-01 -0.40860248322E-02  0.22766530818E-01  0.00000000000E+00 0. -1.
     999901    1    3    3    0    0  0.29233484073E-01  0.11591476586E+00  0.79533730886E-01  0.89163694623E+00  0.88000000000E+00 0. -1.
        -11    1    4    4    0    0  0.21407780984E-02 -0.19278022658E-01 -0.22694971414E-01  0.29858799992E-01  0.51100000000E-03 0. -1.
         11    1    4    4    0    0 -0.13219314452E-01 -0.83521210433E-01 -0.52752734640E-01  0.99667722959E-01  0.51100000000E-03 0.  1.
</event>
<event>
 8    1  0.1126414E+005  0.1043930E+01  0.7957747E-01            NaN
         13   -1    0    0    0    0  0.00000000000E+00  0.00000000000E+00  0.74505805969E-08  0.10566000000E+00  0.10566000000E+00 0. -1.
     999900   -1    0    0    0    0 -0.00000000000E+00 -0.00000000000E+00 -0.74505805969E-08  0.93827000000E+00  0.93827000000E+00 0.  1.
     999902    2    1    2    0    0 -0.18908499437E-01  0.16181006729E-01 -0.62623036091E-02  0.10182673272E+01  0.10179438967E+01 0.  0.
     999903    2    3    3    0    0 -0.39728227637E-01  0.10965043486E+00 -0.57582468721E-01  0.13158601215E+00  0.19939607625E-01 0.  0.
         14    1    1    2    0    0  0.18908499437E-01 -0.16181006729E-01  0.62623036091E-02  0.25662672819E-01  0.00000000000E+00 0. -1.
     999901    1    3    3    0    0  0.20819728200E-01 -0.93469428136E-01  0.51320165112E-01  0.88668131503E+00  0.88000000000E+00 0. -1.
        -11    1    4    4    0    0 -0.30784523434E-01  0.90794789920E-01 -0.38538126965E-01  0.10332874291E+00  0.51100000000E-03 0. -1.
         11    1    4    4    0    0 -0.89437042033E-02  0.18855644944E-01 -0.19044341756E-01  0.28257269243E-01  0.51100000000E-03 0.  1.
</event>
<event>
 8    1  0.1126414E+005  0.1043930E+01  0.7957747E-01            NaN
         13   -1    0    0    0    0  0.00000000000E+00  0.00000000000E+00  0.74505805969E-08  0.10566000000E+00  0.10566000000E+00 0. -1.
     999900   -1    0    0    0    0 -0.00000000000E+00 -0.00000000000E+00 -0.74505805969E-08  0.93827000000E+00  0.93827000000E+00 0. -1.
     999902    2    1    2    0    0 -0.22315735867E-01 -0.29708821963E-02  0.10668466574E-01  0.10190174653E+01  0.10187128939E+01 0.  0.
     999903    2    3    3    0    0  0.11919234724E+00  0.24714979162E-01 -0.28639627157E-01  0.12641667502E+00  0.18528400955E-01 0.  0.
         14    1    1    2    0    0  0.22315735867E-01  0.29708821963E-02 -0.10668466574E-01  0.24912534743E-01  0.00000000000E+00 0. -1.
     999901    1    3    3    0    0 -0.14150808311E+00 -0.27685861359E-01  0.39308093731E-01  0.89260079024E+00  0.88000000000E+00 0.  1.
        -11    1    4    4    0    0  0.47924405018E-01  0.18476325868E-01 -0.15722545337E-01  0.53717620636E-01  0.51100000000E-03 0. -1.
         11    1    4    4    0    0  0.71267942226E-01  0.62386532947E-02 -0.12917081820E-01  0.72699054380E-01  0.51100000000E-03 0.  1.
</event>
<event>
 7    1  0.1126414E+005  0.1043930E+01  0.7957747E-01            NaN
         13   -1    0    0    0    0  0.00000000000E+00  0.00000000000E+00  0.74505805969E-08  0.10566000000E+00  0.10566000000E+00 0.  1.
     999900   -1    0    0    0    0 -0.00000000000E+00 -0.00000000000E+00 -0.74505805969E-08  0.93827000000E+00  0.93827000000E+00 0.  1.
     999903    2    1    2    0    0  0.78507566722E-01 -0.69270436534E-01 -0.68616543268E-02  0.10702994400E+00  0.21130433075E-01 0.  0.
         14    1    1    2    0    0  0.29107345835E-01  0.26651755740E-03  0.37091129993E-01  0.47149342915E-01  0.00000000000E+00 0.  1.
     999901    1    1    2    0    0 -0.10761491256E+00  0.69003918977E-01 -0.30229475666E-01  0.88975071309E+00  0.88000000000E+00 0.  1.
        -11    1    3    3    0    0  0.48783642551E-01 -0.44614123718E-01  0.58524211791E-02  0.66368484767E-01  0.51100000000E-03 0.  1.
         11    1    3    3    0    0  0.29723924171E-01 -0.24656312816E-01 -0.12714075506E-01  0.40661459231E-01  0.51100000000E-03 0. -1.
</event>
<event>
 8    1  0.1126414E+005  0.1043930E+01  0.7957747E-01            NaN
         13   -1    0    0    0    0  0.00000000000E+00  0.00000000000E+00  0.74505805969E-08  0.10566000000E+00  0.10566000000E+00 0.  1.
     999900   -1    0    0    0    0 -0.00000000000E+00 -0.00000000000E+00 -0.74505805969E-08  0.93827000000E+00  0.93827000000E+00 0. -1.
     999902    2    1    2    0    0 -0.75134214874E-02  0.57965700210E-02  0.21731240196E-01  0.10202171654E+01  0.10199415503E+01 0.  0.
     999903    2    3    3    0    0  0.83314292926E-01  0.66620420706E-01 -0.69468485770E-01  0.12877641885E+00  0.19440773523E-01 0.  0.
         14    1    1    2    0    0  0.75134214874E-02 -0.57965700210E-02 -0.21731240196E-01  0.23712834645E-01  0.00000000000E+00 0. -1.
     999901    1    3    3    0    0 -0.90827714414E-01 -0.60823850685E-01  0.91199725966E-01  0.89144074651E+00  0.88000000000E+00 0. -1.
        -11    1    4    4    0    0  0.51985545129E-01  0.38050613256E-01 -0.30879979997E-01  0.71443546645E-01  0.51100000000E-03 0. -1.
         11    1    4    4    0    0  0.31328747797E-01  0.28569807449E-01 -0.38588505773E-01  0.57332872203E-01  0.51100000000E-03 0.  1.
</event>
<event>
 8    1  0.1126414E+005  0.1043930E+01  0.7957747E-01            NaN
         13   -1    0    0    0    0  0.00000000000E+00  0.00000000000E+00  0.74505805969E-08  0.10566000000E+00  0.10566000000E+00 0. -1.
     999900   -1    0    0    0    0 -0.00000000000E+00 -0.00000000000E+00 -0.74505805969E-08  0.93827000000E+00  0.93827000000E+00 0. -1.
     999902    2    1    2    0    0 -0.14532431234E-01 -0.32817410749E-02  0.20325175529E-01  0.10187293226E+01  0.10184175757E+01 0.  0.
     999903    2    3    3    0    0 -0.22586232149E-01 -0.93218508753E-01  0.86041429026E-01  0.13167120055E+00  0.27098879838E-01 0.  0.
         14    1    1    2    0    0  0.14532431234E-01  0.32817410749E-02 -0.20325175529E-01  0.25200677419E-01  0.00000000000E+00 0.  1.
     999901    1    3    3    0    0  0.80538009148E-02  0.89936767678E-01 -0.65716253496E-01  0.88705812203E+00  0.88000000000E+00 0.  1.
        -11    1    4    4    0    0 -0.14101267613E-01 -0.68732351579E-01  0.45752428155E-01  0.83764716348E-01  0.51100000000E-03 0.  1.
         11    1    4    4    0    0 -0.84849645359E-02 -0.24486157174E-01  0.40289000871E-01  0.47906484201E-01  0.51100000000E-03 0. -1.
</event>
<event>
 8    1  0.1126414E+005  0.1043930E+01  0.7957747E-01            NaN
         13   -1    0    0    0    0  0.00000000000E+00  0.00000000000E+00  0.74505805969E-08  0.10566000000E+00  0.10566000000E+00 0.  1.
     999900   -1    0    0    0    0 -0.00000000000E+00 -0.00000000000E+00 -0.74505805969E-08  0.93827000000E+00  0.93827000000E+00 0. -1.
     999902    2    1    2    0    0  0.11241273018E-01  0.18081754628E-01  0.10074659536E-01  0.10203754923E+01  0.10201035881E+01 0.  0.
     999903    2    3    3    0    0  0.52902756581E-01  0.10409955775E+00 -0.59334138905E-01  0.13248342509E+00  0.19897193434E-01 0.  0.
         14    1    1    2    0    0 -0.11241273018E-01 -0.18081754628E-01 -0.10074659536E-01  0.23554507727E-01  0.00000000000E+00 0. -1.
     999901    1    3    3    0    0 -0.41661483563E-01 -0.86017803121E-01  0.69408798441E-01  0.88789206718E+00  0.88000000000E+00 0.  1.
        -11    1    4    4    0    0  0.33878070160E-01  0.66407778801E-01 -0.26960545747E-01  0.79277038738E-01  0.51100000000E-03 0. -1.
         11    1    4    4    0    0  0.19024686421E-01  0.37691778948E-01 -0.32373593158E-01  0.53206386352E-01  0.51100000000E-03 0.  1.
</event>
<event>
 8    1  0.1391611E+005  0.1043930E+01  0.7957747E-01            NaN
         13   -1    0    0    0    0  0.00000000000E+00  0.00000000000E+00  0.74505805969E-08  0.10566000000E+00  0.10566000000E+00 0. -1.
     999900   -1    0    0    0    0 -0.00000000000E+00 -0.00000000000E+00 -0.74505805969E-08  0.93827000000E+00  0.93827000000E+00 0. -1.
     999902    2    1    2    0    0  0.16954050004E-01  0.23580260022E-01 -0.10752314432E-01  0.10129609713E+01  0.10124874560E+01 0.  0.
     999903    2    3    3    0    0  0.22800939898E-02  0.30988923518E-01 -0.12029619769E+00  0.12601673648E+00  0.21060163492E-01 0.  0.
         14    1    1    2    0    0 -0.16954050004E-01 -0.23580260022E-01  0.10752314432E-01  0.30969028721E-01  0.00000000000E+00 0. -1.
     999901    1    3    3    0    0  0.14673956015E-01 -0.74086634954E-02  0.10954388326E+00  0.88694423480E+00  0.88000000000E+00 0.  1.
        -11    1    4    4    0    0  0.94190582684E-02  0.20359246251E-01 -0.53709535866E-01  0.58208186112E-01  0.51100000000E-03 0.  1.
         11    1    4    4    0    0 -0.71389642786E-02  0.10629677266E-01 -0.66586661822E-01  0.67808550370E-01  0.51100000000E-03 0. -1.
</event>
<event>
 8    1  0.1126414E+005  0.1043930E+01  0.7957747E-01            NaN
         13   -1    0    0    0    0  0.00000000000E+00  0.00000000000E+00  0.74505805969E-08  0.10566000000E+00  0.10566000000E+00 0.  1.
     999900   -1    0    0    0    0 -0.00000000000E+00 -0.00000000000E+00 -0.74505805969E-08  0.93827000000E+00  0.93827000000E+00 0.  1.
     999902    2    1    2    0    0 -0.10514105195E-01  0.21286198867E-01 -0.67629138019E-02  0.10192442617E+01  0.10189452779E+01 0.  0.
     999903    2    3    3    0    0  0.99640913956E-01 -0.47092197165E-01  0.60380654160E-01  0.12721399768E+00  0.19788659385E-01 0.  0.
         14    1    1    2    0    0  0.10514105195E-01 -0.21286198867E-01  0.67629138019E-02  0.24685738259E-01  0.00000000000E+00 0.  1.
     999901    1    3    3    0    0 -0.11015501915E+00  0.68378396033E-01 -0.67143567962E-01  0.89203026406E+00  0.88000000000E+00 0.  1.
        -11    1    4    4    0    0  0.33770508232E-01 -0.26580052193E-01  0.23161411683E-01  0.48822725374E-01  0.51100000000E-03 0. -1.
         11    1    4    4    0    0  0.65870405724E-01 -0.20512144972E-01  0.37219242478E-01  0.78391272303E-01  0.51100000000E-03 0.  1.
</event>
<event>
 8    1  0.1126414E+005  0.1043930E+01  0.7957747E-01            NaN
         13   -1    0    0    0    0  0.00000000000E+00  0.00000000000E+00  0.74505805969E-08  0.10566000000E+00  0.10566000000E+00 0. -1.
     999900   -1    0    0    0    0 -0.00000000000E+00 -0.00000000000E+00 -0.74505805969E-08  0.93827000000E+00  0.93827000000E+00 0. -1.
     999902    2    1    2    0    0  0.93875107186E-02  0.68019490461E-02 -0.22104904472E-01  0.10189696581E+01  0.10186639021E+01 0.  0.
     999903    2    3    3    0    0 -0.36487949840E-01 -0.10685355022E+00 -0.61392999972E-01  0.12960714207E+00  0.16728991371E-01 0.  0.
         14    1    1    2    0    0 -0.93875107186E-02 -0.68019490461E-02  0.22104904472E-01  0.24960341946E-01  0.00000000000E+00 0. -1.
     999901    1    3    3    0    0  0.45875460559E-01  0.11365549926E+00  0.39288095500E-01  0.88936251599E+00  0.88000000000E+00 0.  1.
        -11    1    4    4    0    0 -0.86992173956E-02 -0.44143321051E-01 -0.30629842947E-01  0.54431218769E-01  0.51100000000E-03 0. -1.
         11    1    4    4    0    0 -0.27788732445E-01 -0.62710229164E-01 -0.30763157025E-01  0.75175923299E-01  0.51100000000E-03 0.  1.
</event>
<event>
 8    1  0.1126414E+005  0.1043930E+01  0.7957747E-01            NaN
         13   -1    0    0    0    0  0.00000000000E+00  0.00000000000E+00  0.74505805969E-08  0.10566000000E+00  0.10566000000E+00 0.  1.
     999900   -1    0    0    0    0 -0.00000000000E+00 -0.00000000000E+00 -0.74505805969E-08  0.93827000000E+00  0.93827000000E+00 0. -1.
     999902    2    1    2    0    0 -0.12299552108E-01  0.10327770083E-02  0.21547885315E-01  0.10190974212E+01  0.10187948257E+01 0.  0.
     999903    2    3    3    0    0 -0.53442187833E-01  0.60830296215E-01 -0.97219021421E-01  0.12815744680E+00  0.20405897812E-01 0.  0.
         14    1    1    2    0    0  0.12299552108E-01 -0.10327770083E-02 -0.21547885315E-01  0.24832578843E-01  0.00000000000E+00 0. -1.
     999901    1    3    3    0    0  0.41142635725E-01 -0.59797519206E-01  0.11876690674E+00  0.89093997436E+00  0.88000000000E+00 0.  1.
        -11    1    4    4    0    0 -0.12046139909E-01  0.19645960348E-01 -0.41347622038E-01  0.47338781288E-01  0.51100000000E-03 0. -1.
         11    1    4    4    0    0 -0.41396047924E-01  0.41184335867E-01 -0.55871399383E-01  0.80818665509E-01  0.51100000000E-03 0.  1.
</event>
<event>
 8    1  0.1126414E+005  0.1043930E+01  0.7957747E-01            NaN
         13   -1    0    0    0    0  0.00000000000E+00  0.00000000000E+00  0.74505805969E-08  0.10566000000E+00  0.10566000000E+00 0. -1.
     999900   -1    0    0    0    0 -0.00000000000E+00 -0.00000000000E+00 -0.74505805969E-08  0.93827000000E+00  0.93827000000E+00 0.  1.
     999902    2    1    2    0    0  0.21297127446E-01  0.49551786259E-02 -0.47615940936E-02  0.10215515682E+01  0.10213064243E+01 0.  0.
     999903    2    3    3    0    0  0.93366262335E-01 -0.34793949293E-01 -0.87119616702E-01  0.13388226192E+00  0.20168157909E-01 0.  0.
         14    1    1    2    0    0 -0.21297127446E-01 -0.49551786259E-02  0.47615940936E-02  0.22378431826E-01  0.00000000000E+00 0. -1.
     999901    1    3    3    0    0 -0.72069134888E-01  0.39749127919E-01  0.82358022608E-01  0.88766930625E+00  0.88000000000E+00 0. -1.
        -11    1    4    4    0    0  0.25114833402E-01 -0.17312815942E-01 -0.33743860886E-01  0.45490633334E-01  0.51100000000E-03 0. -1.
         11    1    4    4    0    0  0.68251428932E-01 -0.17481133351E-01 -0.53375755816E-01  0.88391628588E-01  0.51100000000E-03 0.  1.
</event>
<event>
 8    1  0.1126414E+005  0.1043930E+01  0.7957747E-01            NaN
         13   -1    0    0    0    0  0.00000000000E+00  0.00000000000E+00  0.74505805969E-08  0.10566000000E+00  0.10566000000E+00 0.  1.
     999900   -1    0    0    0    0 -0.00000000000E+00 -0.00000000000E+00 -0.74505805969E-08  0.93827000000E+00  0.93827000000E+00 0. -1.
     999902    2    1    2    0    0  0.21390325822E-01 -0.74927891436E-02  0.62136149302E-02  0.10204290013E+01  0.10201583455E+01 0.  0.
     999903    2    3    3    0    0  0.66787770327E-01 -0.11314108170E+00  0.47037409982E-02  0.13294673705E+00  0.19778753225E-01 0.  0.
         14    1    1    2    0    0 -0.21390325822E-01  0.74927891436E-02 -0.62136149302E-02  0.23500998669E-01  0.00000000000E+00 0.  1.
     999901    1    3    3    0    0 -0.45397444505E-01  0.10564829256E+00  0.15098739320E-02  0.88748226428E+00  0.88000000000E+00 0. -1.
        -11    1    4    4    0    0  0.30419735909E-01 -0.33424226254E-01  0.32189638129E-02  0.45311831595E-01  0.51100000000E-03 0. -1.
         11    1    4    4    0    0  0.36368034418E-01 -0.79716855451E-01  0.14847771853E-02  0.87634905459E-01  0.51100000000E-03 0.  1.
</event>
<event>
 8    1  0.1126414E+005  0.1043930E+01  0.7957747E-01            NaN
         13   -1    0    0    0    0  0.00000000000E+00  0.00000000000E+00  0.74505805969E-08  0.10566000000E+00  0.10566000000E+00 0. -1.
     999900   -1    0    0    0    0 -0.00000000000E+00 -0.00000000000E+00 -0.74505805969E-08  0.93827000000E+00  0.93827000000E+00 0.  1.
     999902    2    1    2    0    0  0.17695173976E-01  0.40602431886E-02  0.51175817488E-02  0.10250674869E+01  0.10248939254E+01 0.  0.
     999903    2    3    3    0    0  0.46641187217E-01 -0.27591073887E-01 -0.12192904173E+00  0.13490990419E+00  0.19932970859E-01 0.  0.
         14    1    1    2    0    0 -0.17695173976E-01 -0.40602431886E-02 -0.51175817488E-02  0.18862513082E-01  0.00000000000E+00 0.  1.
     999901    1    3    3    0    0 -0.28946013241E-01  0.31651317076E-01  0.12704662348E+00  0.89015758273E+00  0.88000000000E+00 0. -1.
        -11    1    4    4    0    0  0.61802467684E-02 -0.10784301071E-01 -0.41448495381E-01  0.43275113981E-01  0.51100000000E-03 0.  1.
         11    1    4    4    0    0  0.40460940449E-01 -0.16806772816E-01 -0.80480546350E-01  0.91634790207E-01  0.51100000000E-03 0. -1.
</event>
<event>
 8    1  0.1126414E+005  0.1043930E+01  0.7957747E-01            NaN
         13   -1    0    0    0    0  0.00000000000E+00  0.00000000000E+00  0.74505805969E-08  0.10566000000E+00  0.10566000000E+00 0. -1.
     999900   -1    0    0    0    0 -0.00000000000E+00 -0.00000000000E+00 -0.74505805969E-08  0.93827000000E+00  0.93827000000E+00 0. -1.
     999902    2    1    2    0    0 -0.15261880364E-02 -0.23032566313E-01  0.59185374186E-02  0.10201002403E+01  0.10198218682E+01 0.  0.
     999903    2    3    3    0    0  0.64082053544E-01 -0.87821703060E-01  0.73369823989E-01  0.13271545926E+00  0.20275624293E-01 0.  0.
         14    1    1    2    0    0  0.15261880364E-02  0.23032566313E-01 -0.59185374186E-02  0.23829759673E-01  0.00000000000E+00 0.  1.
     999901    1    3    3    0    0 -0.65608241581E-01  0.64789136747E-01 -0.67451286571E-01  0.88738478106E+00  0.88000000000E+00 0. -1.
        -11    1    4    4    0    0  0.41404145481E-01 -0.66738470843E-01  0.60668694629E-01  0.99243530683E-01  0.51100000000E-03 0.  1.
         11    1    4    4    0    0  0.22677908064E-01 -0.21083232217E-01  0.12701129360E-01  0.33471928580E-01  0.51100000000E-03 0. -1.
</event>
<event>
 8    1  0.1126414E+005  0.1043930E+01  0.7957747E-01            NaN
         13   -1    0    0    0    0  0.00000000000E+00  0.00000000000E+00  0.74505805969E-08  0.10566000000E+00  0.10566000000E+00 0. -1.
     999900   -1    0    0    0    0 -0.00000000000E+00 -0.00000000000E+00 -0.74505805969E-08  0.93827000000E+00  0.93827000000E+00 0.  1.
     999902    2    1    2    0    0 -0.84276307126E-02 -0.93156985493E-02  0.20326621175E-01  0.10200348388E+01  0.10197549184E+01 0.  0.
     999903    2    3    3    0    0  0.11949417483E+00 -0.36797621370E-01  0.30542045565E-01  0.13030251992E+00  0.20322583320E-01 0.  0.
         14    1    1    2    0    0  0.84276307126E-02  0.93156985493E-02 -0.20326621175E-01  0.23895161169E-01  0.00000000000E+00 0. -1.
     999901    1    3    3    0    0 -0.12792180555E+00  0.27481922821E-01 -0.10215424390E-01  0.88973231891E+00  0.88000000000E+00 0.  1.
        -11    1    4    4    0    0  0.75777926887E-01 -0.27297058888E-01  0.10318483288E-01  0.81204407797E-01  0.51100000000E-03 0.  1.
         11    1    4    4    0    0  0.43716247947E-01 -0.95005624826E-02  0.20223562278E-01  0.49098112125E-01  0.51100000000E-03 0. -1.
</event>
<event>
 8    1  0.1126414E+005  0.1043930E+01  0.7957747E-01            NaN
         13   -1    0    0    0    0  0.00000000000E+00  0.00000000000E+00  0.74505805969E-08  0.10566000000E+00  0.10566000000E+00 0. -1.
     999900   -1    0    0    0    0 -0.00000000000E+00 -0.00000000000E+00 -0.74505805969E-08  0.93827000000E+00  0.93827000000E+00 0. -1.
     999902    2    1    2    0    0  0.11267052792E-01  0.20202685231E-02 -0.19955666584E-01  0.10209244226E+01  0.10206651851E+01 0.  0.
     999903    2    3    3    0    0 -0.33053293338E-01  0.10219296049E+00 -0.73900702529E-01  0.13249382417E+00  0.23608859244E-01 0.  0.
         14    1    1    2    0    0 -0.11267052792E-01 -0.20202685231E-02  0.19955666584E-01  0.23005577418E-01  0.00000000000E+00 0. -1.
     999901    1    3    3    0    0  0.44320346131E-01 -0.10017269196E+00  0.53945035945E-01  0.88843059841E+00  0.88000000000E+00 0.  1.
        -11    1    4    4    0    0 -0.33653487342E-01  0.72427552946E-01 -0.58280629726E-01  0.98869613928E-01  0.51100000000E-03 0.  1.
         11    1    4    4    0    0  0.60019400329E-03  0.29765407540E-01 -0.15620072803E-01  0.33624210239E-01  0.51100000000E-03 0. -1.
</event>
<event>
 8    1  0.1126414E+005  0.1043930E+01  0.7957747E-01            NaN
         13   -1    0    0    0    0  0.00000000000E+00  0.00000000000E+00  0.74505805969E-08  0.10566000000E+00  0.10566000000E+00 0. -1.
     999900   -1    0    0    0    0 -0.00000000000E+00 -0.00000000000E+00 -0.74505805969E-08  0.93827000000E+00  0.93827000000E+00 0.  1.
     999902    2    1    2    0    0  0.15360454568E-02 -0.94425174976E-02 -0.22237471567E-01  0.10197220320E+01  0.10194346457E+01 0.  0.
     999903    2    3    3    0    0 -0.43654229356E-02  0.61978157681E-01  0.10898072331E+00  0.12711127987E+00  0.20497084474E-01 0.  0.
         14    1    1    2    0    0 -0.15360454568E-02  0.94425174976E-02  0.22237471567E-01  0.24207967986E-01  0.00000000000E+00 0. -1.
     999901    1    3    3    0    0  0.59014683924E-02 -0.71420675178E-01 -0.13121819487E+00  0.89261075214E+00  0.88000000000E+00 0.  1.
        -11    1    4    4    0    0 -0.53137207360E-03  0.12989803120E-01  0.42455814779E-01  0.44404669472E-01  0.51100000000E-03 0. -1.
         11    1    4    4    0    0 -0.38340508620E-02  0.48988354561E-01  0.66524908526E-01  0.82706610401E-01  0.51100000000E-03 0.  1.
</event>
<event>
 8    1  0.1126414E+005  0.1043930E+01  0.7957747E-01            NaN
         13   -1    0    0    0    0  0.00000000000E+00  0.00000000000E+00  0.74505805969E-08  0.10566000000E+00  0.10566000000E+00 0. -1.
     999900   -1    0    0    0    0 -0.00000000000E+00 -0.00000000000E+00 -0.74505805969E-08  0.93827000000E+00  0.93827000000E+00 0. -1.
     999902    2    1    2    0    0 -0.79518952216E-02  0.98403837984E-02 -0.10922874034E-01  0.10272154863E+01  0.10270794908E+01 0.  0.
     999903    2    3    3    0    0 -0.30424611077E-02  0.13294910944E+00  0.24362820275E-01  0.13793210003E+00  0.27331208130E-01 0.  0.
         14    1    1    2    0    0  0.79518952216E-02 -0.98403837984E-02  0.10922874034E-01  0.16714513696E-01  0.00000000000E+00 0.  1.
     999901    1    3    3    0    0 -0.49094341140E-02 -0.12310872564E+00 -0.35285694309E-01  0.88928338627E+00  0.88000000000E+00 0. -1.
        -11    1    4    4    0    0 -0.10483902742E-01  0.53792585262E-01  0.10666871354E-03  0.54807179686E-01  0.51100000000E-03 0.  1.
         11    1    4    4    0    0  0.74414416341E-02  0.79156524178E-01  0.24256151561E-01  0.83124920349E-01  0.51100000000E-03 0. -1.
</event>
<event>
 8    1  0.1126414E+005  0.1043930E+01  0.7957747E-01            NaN
         13   -1    0    0    0    0  0.00000000000E+00  0.00000000000E+00  0.74505805969E-08  0.10566000000E+00  0.10566000000E+00 0.  1.
     999900   -1    0    0    0    0 -0.00000000000E+00 -0.00000000000E+00 -0.74505805969E-08  0.93827000000E+00  0.93827000000E+00 0.  1.
     999902    2    1    2    0    0  0.12817437483E-01 -0.91675963666E-02  0.19495212422E-01  0.10188621953E+01  0.10185537679E+01 0.  0.
     999903    2    3    3    0    0  0.10414611295E+00 -0.13892266011E-01 -0.72885341291E-01  0.12931319933E+00  0.19241170682E-01 0.  0.
         14    1    1    2    0    0 -0.12817437483E-01  0.91675963666E-02 -0.19495212422E-01  0.25067804734E-01  0.00000000000E+00 0.  1.
     999901    1    3    3    0    0 -0.91328675464E-01  0.47246696442E-02  0.92380553714E-01  0.88954899594E+00  0.88000000000E+00 0. -1.
        -11    1    4    4    0    0  0.53309862653E-01 -0.92395081794E-02 -0.26127422533E-01  0.60085050526E-01  0.51100000000E-03 0.  1.
         11    1    4    4    0    0  0.50836250294E-01 -0.46527578314E-02 -0.46757918758E-01  0.69228148805E-01  0.51100000000E-03 0. -1.
</event>
<event>
 8    1  0.1126414E+005  0.1043930E+01  0.7957747E-01            NaN
         13   -1    0    0    0    0  0.00000000000E+00  0.00000000000E+00  0.74505805969E-08  0.10566000000E+00  0.10566000000E+00 0. -1.
     999900   -1    0    0    0    0 -0.00000000000E+00 -0.00000000000E+00 -0.74505805969E-08  0.93827000000E+00  0.93827000000E+00 0.  1.
     999902    2    1    2    0    0  0.13541154914E-01 -0.21456720731E-01  0.24215994625E-02  0.10184423974E+01  0.10181234203E+01 0.  0.
     999903    2    3    3    0    0  0.46291687803E-01  0.10953862456E+00 -0.39829671245E-01  0.12714135526E+00  0.20901934736E-01 0.  0.
         14    1    1    2    0    0 -0.13541154914E-01  0.21456720731E-01 -0.24215994625E-02  0.25487602573E-01  0.00000000000E+00 0. -1.
     999901    1    3    3    0    0 -0.32750532888E-01 -0.13099534529E+00  0.42251270708E-01  0.89130104217E+00  0.88000000000E+00 0. -1.
        -11    1    4    4    0    0  0.15440135423E-01  0.51571169004E-01 -0.27019713268E-01  0.60235448703E-01  0.51100000000E-03 0.  1.
         11    1    4    4    0    0  0.30851552379E-01  0.57967455556E-01 -0.12809957977E-01  0.66905906557E-01  0.51100000000E-03 0. -1.
</event>
<event>
 8    1  0.1126414E+005  0.1043930E+01  0.7957747E-01            NaN
         13   -1    0    0    0    0  0.00000000000E+00  0.00000000000E+00  0.74505805969E-08  0.10566000000E+00  0.10566000000E+00 0. -1.
     999900   -1    0    0    0    0 -0.00000000000E+00 -0.00000000000E+00 -0.74505805969E-08  0.93827000000E+00  0.93827000000E+00 0.  1.
     999902    2    1    2    0    0 -0.92877778758E-02 -0.90496814552E-02  0.20274006233E-01  0.10198635320E+01  0.10195795354E+01 0.  0.
     999903    2    3    3    0    0  0.10423433376E+00  0.48567893929E-01  0.56432016072E-01  0.12996777605E+00  0.21986671351E-01 0.  0.
         14    1    1    2    0    0  0.92877778758E-02  0.90496814552E-02 -0.20274006233E-01  0.24066467980E-01  0.00000000000E+00 0.  1.
     999901    1    3    3    0    0 -0.11352211164E+00 -0.57617575384E-01 -0.36158009839E-01  0.88989575597E+00  0.88000000000E+00 0. -1.
        -11    1    4    4    0    0  0.35216962141E-01  0.25121980092E-01  0.13256077957E-01  0.45247464348E-01  0.51100000000E-03 0. -1.
         11    1    4    4    0    0  0.69017371621E-01  0.23445913838E-01  0.43175938115E-01  0.84720311698E-01  0.51100000000E-03 0.  1.
</event>
<event>
 8    1  0.1126414E+005  0.1043930E+01  0.7957747E-01            NaN
         13   -1    0    0    0    0  0.00000000000E+00  0.00000000000E+00  0.74505805969E-08  0.10566000000E+00  0.10566000000E+00 0.  1.
     999900   -1    0    0    0    0 -0.00000000000E+00 -0.00000000000E+00 -0.74505805969E-08  0.93827000000E+00  0.93827000000E+00 0. -1.
     999902    2    1    2    0    0  0.92155264214E-02 -0.21364827323E-01 -0.95836530691E-02  0.10187659745E+01  0.10184551451E+01 0.  0.
     999903    2    3    3    0    0 -0.25551289084E-01  0.96700327070E-01 -0.76757128840E-01  0.12766531351E+00  0.20073709611E-01 0.  0.
         14    1    1    2    0    0 -0.92155264214E-02  0.21364827323E-01  0.95836530691E-02  0.25164025511E-01  0.00000000000E+00 0. -1.
     999901    1    3    3    0    0  0.34766815505E-01 -0.11806515439E+00  0.67173475771E-01  0.89110066097E+00  0.88000000000E+00 0.  1.
        -11    1    4    4    0    0 -0.13500468984E-01  0.69355598539E-01 -0.63386526764E-01  0.94924046520E-01  0.51100000000E-03 0.  1.
         11    1    4    4    0    0 -0.12050820100E-01  0.27344728531E-01 -0.13370602077E-01  0.32741266994E-01  0.51100000000E-03 0. -1.
</event>
<event>
 8    1  0.1126414E+005  0.1043930E+01  0.7957747E-01            NaN
         13   -1    0    0    0    0  0.00000000000E+00  0.00000000000E+00  0.74505805969E-08  0.10566000000E+00  0.10566000000E+00 0. -1.
     999900   -1    0    0    0    0 -0.00000000000E+00 -0.00000000000E+00 -0.74505805969E-08  0.93827000000E+00  0.93827000000E+00 0.  1.
     999902    2    1    2    0    0  0.17031314292E-01 -0.82222384560E-02  0.13126445470E-01  0.10209088262E+01  0.10206492331E+01 0.  0.
     999903    2    3    3    0    0  0.79133633170E-01 -0.34670246098E-01  0.10023912973E+00  0.13403520789E+00  0.21293096602E-01 0.  0.
         14    1    1    2    0    0 -0.17031314292E-01  0.82222384560E-02 -0.13126445470E-01  0.23021173785E-01  0.00000000000E+00 0.  1.
     999901    1    3    3    0    0 -0.62102318877E-01  0.26448007642E-01 -0.87112684259E-01  0.88687361832E+00  0.88000000000E+00 0.  1.
        -11    1    4    4    0    0  0.25284121215E-01 -0.14538783572E-01  0.48990541858E-01  0.57017517711E-01  0.51100000000E-03 0.  1.
         11    1    4    4    0    0  0.53849511954E-01 -0.20131462526E-01  0.51248587870E-01  0.77017690181E-01  0.51100000000E-03 0. -1.
</event>
<event>
 8    1  0.1126414E+005  0.1043930E+01  0.7957747E-01            NaN
         13   -1    0    0    0    0  0.00000000000E+00  0.00000000000E+00  0.74505805969E-08  0.10566000000E+00  0.10566000000E+00 0.  1.
     999900   -1    0    0    0    0 -0.00000000000E+00 -0.00000000000E+00 -0.74505805969E-08  0.93827000000E+00  0.93827000000E+00 0. -1.
     999902    2    1    2    0    0  0.23691455237E-01  0.20093546798E-02  0.40523305927E-02  0.10198106314E+01  0.10195253700E+01 0.  0.
     999903    2    3    3    0    0  0.82199187591E-01  0.51691129282E-01  0.87815743723E-01  0.13250699520E+00  0.20440637068E-01 0.  0.
         14    1    1    2    0    0 -0.23691455237E-01 -0.20093546798E-02 -0.40523305927E-02  0.24119368580E-01  0.00000000000E+00 0.  1.
     999901    1    3    3    0    0 -0.58507732354E-01 -0.49681774602E-01 -0.83763413131E-01  0.88730363622E+00  0.88000000000E+00 0. -1.
        -11    1    4    4    0    0  0.37410844593E-01  0.12897096467E-01  0.29416634108E-01  0.49310301902E-01  0.51100000000E-03 0.  1.
         11    1    4    4    0    0  0.44788342998E-01  0.38794032815E-01  0.58399109615E-01  0.83196693296E-01  0.51100000000E-03 0. -1.
</event>
<event>
 8    1  0.1126414E+005  0.1043930E+01  0.7957747E-01            NaN
         13   -1    0    0    0    0  0.00000000000E+00  0.00000000000E+00  0.74505805969E-08  0.10566000000E+00  0.10566000000E+00 0. -1.
     999900   -1    0    0    0    0 -0.00000000000E+00 -0.00000000000E+00 -0.74505805969E-08  0.93827000000E+00  0.93827000000E+00 0. -1.
     999902    2    1    2    0    0 -0.88875478968E-02  0.21659289842E-01 -0.46128084093E-02  0.10200680775E+01  0.10197889445E+01 0.  0.
     999903    2    3    3    0    0 -0.10753684689E+00 -0.51098882419E-01  0.48281003769E-01  0.12999887166E+00  0.19833862058E-01 0.  0.
         14    1    1    2    0    0  0.88875478968E-02 -0.21659289842E-01  0.46128084093E-02  0.23861922502E-01  0.00000000000E+00 0.  1.
     999901    1    3    3    0    0  0.98649298989E-01  0.72758172261E-01 -0.52893812178E-01  0.89006920584E+00  0.88000000000E+00 0.  1.
        -11    1    4    4    0    0 -0.46787480847E-01 -0.19746670894E-01  0.30941700030E-01  0.59469734295E-01  0.51100000000E-03 0.  1.
         11    1    4    4    0    0 -0.60749366039E-01 -0.31352211525E-01  0.17339303739E-01  0.70529137360E-01  0.51100000000E-03 0. -1.
</event>
<event>
 8    1  0.1126414E+005  0.1043930E+01  0.7957747E-01            NaN
         13   -1    0    0    0    0  0.00000000000E+00  0.00000000000E+00  0.74505805969E-08  0.10566000000E+00  0.10566000000E+00 0.  1.
     999900   -1    0    0    0    0 -0.00000000000E+00 -0.00000000000E+00 -0.74505805969E-08  0.93827000000E+00  0.93827000000E+00 0. -1.
     999902    2    1    2    0    0 -0.14521466683E-01  0.18706696808E-01 -0.43610054580E-02  0.10198503017E+01  0.10195659891E+01 0.  0.
     999903    2    3    3    0    0  0.11879898164E+00 -0.41842346127E-01  0.71020323216E-02  0.12767771205E+00  0.19676872811E-01 0.  0.
         14    1    1    2    0    0  0.14521466683E-01 -0.18706696808E-01  0.43610054580E-02  0.24079698268E-01  0.00000000000E+00 0.  1.
     999901    1    3    3    0    0 -0.13332044832E+00  0.60549042935E-01 -0.11463037780E-01  0.89217258968E+00  0.88000000000E+00 0.  1.
        -11    1    4    4    0    0  0.92869672195E-01 -0.37289312890E-01 -0.11490698464E-02  0.10008421630E+00  0.51100000000E-03 0. -1.
         11    1    4    4    0    0  0.25929309444E-01 -0.45530332370E-02  0.82511021681E-02  0.27593495754E-01  0.51100000000E-03 0.  1.
</event>
<event>
 8    1  0.1126414E+005  0.1043930E+01  0.7957747E-01            NaN
         13   -1    0    0    0    0  0.00000000000E+00  0.00000000000E+00  0.74505805969E-08  0.10566000000E+00  0.10566000000E+00 0.  1.
     999900   -1    0    0    0    0 -0.00000000000E+00 -0.00000000000E+00 -0.74505805969E-08  0.93827000000E+00  0.93827000000E+00 0. -1.
     999902    2    1    2    0    0  0.18647141440E-01 -0.95596860441E-02 -0.10519417165E-01  0.10204830041E+01  0.10202136051E+01 0.  0.
     999903    2    3    3    0    0  0.19303756853E-01 -0.72381571096E-01 -0.10816866722E+00  0.13285560677E+00  0.18396326228E-01 0.  0.
         14    1    1    2    0    0 -0.18647141440E-01  0.95596860441E-02  0.10519417165E-01  0.23446995940E-01  0.00000000000E+00 0.  1.
     999901    1    3    3    0    0 -0.65661541301E-03  0.62821885052E-01  0.97649250056E-01  0.88762739729E+00  0.88000000000E+00 0.  1.
        -11    1    4    4    0    0  0.22818102275E-01 -0.62594238615E-01 -0.91132295746E-01  0.11288959628E+00  0.51100000000E-03 0. -1.
         11    1    4    4    0    0 -0.35143454223E-02 -0.97873324813E-02 -0.17036371474E-01  0.19966010489E-01  0.51100000000E-03 0.  1.
</event>
<event>
 8    1  0.1126414E+005  0.1043930E+01  0.7957747E-01            NaN
         13   -1    0    0    0    0  0.00000000000E+00  0.00000000000E+00  0.74505805969E-08  0.10566000000E+00  0.10566000000E+00 0.  1.
     999900   -1    0    0    0    0 -0.00000000000E+00 -0.00000000000E+00 -0.74505805969E-08  0.93827000000E+00  0.93827000000E+00 0.  1.
     999902    2    1    2    0    0 -0.18776497713E-01 -0.99606824968E-02  0.76930525035E-02  0.10213256836E+01  0.10210755099E+01 0.  0.
     999903    2    3    3    0    0  0.77821731834E-01 -0.91635188243E-01  0.48905779732E-01  0.13132544108E+00  0.20034133697E-01 0.  0.
         14    1    1    2    0    0  0.18776497713E-01  0.99606824968E-02 -0.76930525035E-02  0.22604316379E-01  0.00000000000E+00 0. -1.
     999901    1    3    3    0    0 -0.96598229547E-01  0.81674505747E-01 -0.41212727229E-01  0.89000024254E+00  0.88000000000E+00 0. -1.
        -11    1    4    4    0    0  0.20921284375E-01 -0.38161536069E-01  0.21728626721E-01  0.48645629970E-01  0.51100000000E-03 0.  1.
         11    1    4    4    0    0  0.56900447460E-01 -0.53473652174E-01  0.27177153011E-01  0.82679811108E-01  0.51100000000E-03 0. -1.
</event>
<event>
 8    1  0.1126414E+005  0.1043930E+01  0.7957747E-01            NaN
         13   -1    0    0    0    0  0.00000000000E+00  0.00000000000E+00  0.74505805969E-08  0.10566000000E+00  0.10566000000E+00 0. -1.
     999900   -1    0    0    0    0 -0.00000000000E+00 -0.00000000000E+00 -0.74505805969E-08  0.93827000000E+00  0.93827000000E+00 0. -1.
     999902    2    1    2    0    0 -0.94347208241E-02  0.17719287472E-01 -0.11674552847E-01  0.10207075477E+01  0.10204433427E+01 0.  0.
     999903    2    3    3    0    0  0.10414652192E+00 -0.20409745714E-01  0.70192554066E-01  0.12882372958E+00  0.20137102776E-01 0.  0.
         14    1    1    2    0    0  0.94347208241E-02 -0.17719287472E-01  0.11674552847E-01  0.23222452277E-01  0.00000000000E+00 0. -1.
     999901    1    3    3    0    0 -0.11358124274E+00  0.38129033186E-01 -0.81867106913E-01  0.89188381815E+00  0.88000000000E+00 0. -1.
        -11    1    4    4    0    0  0.64683052969E-01 -0.11062234335E-01  0.31591908203E-01  0.72832548732E-01  0.51100000000E-03 0.  1.
         11    1    4    4    0    0  0.39463468951E-01 -0.93475113795E-02  0.38600645863E-01  0.55991180847E-01  0.51100000000E-03 0. -1.
</event>
<event>
 8    1  0.1126414E+005  0.1043930E+01  0.7957747E-01            NaN
         13   -1    0    0    0    0  0.00000000000E+00  0.00000000000E+00  0.74505805969E-08  0.10566000000E+00  0.10566000000E+00 0.  1.
     999900   -1    0    0    0    0 -0.00000000000E+00 -0.00000000000E+00 -0.74505805969E-08  0.93827000000E+00  0.93827000000E+00 0.  1.
     999902    2    1    2    0    0 -0.86599153965E-02  0.23098964767E-01 -0.51682176609E-02  0.10187255008E+01  0.10184136582E+01 0.  0.
     999903    2    3    3    0    0  0.17791762542E-01 -0.12233815974E+00 -0.16290343511E-01  0.12632685098E+00  0.20246625528E-01 0.  0.
         14    1    1    2    0    0  0.86599153965E-02 -0.23098964767E-01  0.51682176609E-02  0.25204499237E-01  0.00000000000E+00 0.  1.
     999901    1    3    3    0    0 -0.26451677938E-01  0.14543712450E+00  0.11122125850E-01  0.89239864978E+00  0.88000000000E+00 0. -1.
        -11    1    4    4    0    0  0.12999563151E-01 -0.53964826676E-01 -0.16045999227E-01  0.57783443757E-01  0.51100000000E-03 0. -1.
         11    1    4    4    0    0  0.47921993903E-02 -0.68373333060E-01 -0.24434428351E-03  0.68543407224E-01  0.51100000000E-03 0.  1.
</event>
<event>
 8    1  0.1126414E+005  0.1043930E+01  0.7957747E-01            NaN
         13   -1    0    0    0    0  0.00000000000E+00  0.00000000000E+00  0.74505805969E-08  0.10566000000E+00  0.10566000000E+00 0. -1.
     999900   -1    0    0    0    0 -0.00000000000E+00 -0.00000000000E+00 -0.74505805969E-08  0.93827000000E+00  0.93827000000E+00 0. -1.
     999902    2    1    2    0    0 -0.14574333464E-01  0.99725150869E-02 -0.14974652836E-01  0.10207761131E+01  0.10205134837E+01 0.  0.
     999903    2    3    3    0    0  0.88927756402E-01  0.79180139516E-01  0.47826053383E-01  0.12979558207E+00  0.19542809202E-01 0.  0.
         14    1    1    2    0    0  0.14574333464E-01 -0.99725150869E-02  0.14974652836E-01  0.23153886944E-01  0.00000000000E+00 0. -1.
     999901    1    3    3    0    0 -0.10350208987E+00 -0.69207624429E-01 -0.62800706219E-01  0.89098053098E+00  0.88000000000E+00 0. -1.
        -11    1    4    4    0    0  0.42383824901E-01  0.24967348786E-01  0.20530008387E-01  0.53305717179E-01  0.51100000000E-03 0. -1.
         11    1    4    4    0    0  0.46543931501E-01  0.54212790730E-01  0.27296044996E-01  0.76489864896E-01  0.51100000000E-03 0.  1.
</event>
<event>
 8    1  0.1126414E+005  0.1043930E+01  0.7957747E-01            NaN
         13   -1    0    0    0    0  0.00000000000E+00  0.00000000000E+00  0.74505805969E-08  0.10566000000E+00  0.10566000000E+00 0. -1.
     999900   -1    0    0    0    0 -0.00000000000E+00 -0.00000000000E+00 -0.74505805969E-08  0.93827000000E+00  0.93827000000E+00 0.  1.
     999902    2    1    2    0    0 -0.16615122777E-01 -0.16379157870E-01  0.25510581752E-02  0.10204598697E+01  0.10201899327E+01 0.  0.
     999903    2    3    3    0    0  0.29554904712E-01 -0.11141278582E+00  0.61132968025E-01  0.13220601972E+00  0.21328165282E-01 0.  0.
         14    1    1    2    0    0  0.16615122777E-01  0.16379157870E-01 -0.25510581752E-02  0.23470130277E-01  0.00000000000E+00 0.  1.
     999901    1    3    3    0    0 -0.46170027489E-01  0.95033627950E-01 -0.58581909850E-01  0.88825385000E+00  0.88000000000E+00 0.  1.
        -11    1    4    4    0    0  0.10845418671E-01 -0.12915728233E-01  0.10662203105E-01  0.19959530004E-01  0.51100000000E-03 0. -1.
         11    1    4    4    0    0  0.18709486041E-01 -0.98497057587E-01  0.50470764920E-01  0.11224648972E+00  0.51100000000E-03 0.  1.
</event>
<event>
 8    1  0.1126414E+005  0.1043930E+01  0.7957747E-01            NaN
         13   -1    0    0    0    0  0.00000000000E+00  0.00000000000E+00  0.74505805969E-08  0.10566000000E+00  0.10566000000E+00 0. -1.
     999900   -1    0    0    0    0 -0.00000000000E+00 -0.00000000000E+00 -0.74505805969E-08  0.93827000000E+00  0.93827000000E+00 0. -1.
     999902    2    1    2    0    0 -0.21547331668E-01  0.19936257645E-01 -0.13872871785E-01  0.10114615778E+01  0.10109403172E+01 0.  0.
     999903    2    3    3    0    0  0.10768230084E+00  0.31740874197E-01  0.39647494588E-01  0.12033640333E+00  0.17491859004E-01 0.  0.
         14    1    1    2    0    0  0.21547331668E-01 -0.19936257645E-01  0.13872871785E-01  0.32468422235E-01  0.00000000000E+00 0. -1.
     999901    1    3    3    0    0 -0.12922963251E+00 -0.11804616552E-01 -0.53520366372E-01  0.89112517443E+00  0.88000000000E+00 0.  1.
        -11    1    4    4    0    0  0.38900877262E-01  0.11722125581E-01  0.55869203028E-02  0.41014159499E-01  0.51100000000E-03 0. -1.
         11    1    4    4    0    0  0.68781423576E-01  0.20018748615E-01  0.34060574285E-01  0.79322243834E-01  0.51100000000E-03 0.  1.
</event>
<event>
 8    1  0.1126414E+005  0.1043930E+01  0.7957747E-01            NaN
         13   -1    0    0    0    0  0.00000000000E+00  0.00000000000E+00  0.74505805969E-08  0.10566000000E+00  0.10566000000E+00 0.  1.
     999900   -1    0    0    0    0 -0.00000000000E+00 -0.00000000000E+00 -0.74505805969E-08  0.93827000000E+00  0.93827000000E+00 0. -1.
     999902    2    1    2    0    0  0.18291203507E-01  0.15146020145E-01 -0.62005531621E-02  0.10193858172E+01  0.10190902940E+01 0.  0.
     999903    2    3    3    0    0  0.26327001426E-04 -0.27088830693E-01 -0.12588444425E+00  0.13009305202E+00  0.18533845735E-01 0.  0.
         14    1    1    2    0    0 -0.18291203507E-01 -0.15146020145E-01  0.62005531621E-02  0.24544182845E-01  0.00000000000E+00 0.  1.
     999901    1    3    3    0    0  0.18264876506E-01  0.42234850839E-01  0.11968389109E+00  0.88929276514E+00  0.88000000000E+00 0.  1.
        -11    1    4    4    0    0  0.44478297569E-02 -0.52602117152E-02 -0.63029871650E-01  0.63407246100E-01  0.51100000000E-03 0. -1.
         11    1    4    4    0    0 -0.44215027555E-02 -0.21828618978E-01 -0.62854572601E-01  0.66685805918E-01  0.51100000000E-03 0.  1.
</event>
<event>
 8    1  0.1126414E+005  0.1043930E+01  0.7957747E-01            NaN
         13   -1    0    0    0    0  0.00000000000E+00  0.00000000000E+00  0.74505805969E-08  0.10566000000E+00  0.10566000000E+00 0.  1.
     999900   -1    0    0    0    0 -0.00000000000E+00 -0.00000000000E+00 -0.74505805969E-08  0.93827000000E+00  0.93827000000E+00 0.  1.
     999902    2    1    2    0    0  0.22580862255E-01 -0.45122889569E-02  0.40396777152E-02  0.10205510546E+01  0.10202832352E+01 0.  0.
     999903    2    3    3    0    0 -0.10376308169E+00 -0.85940027041E-03 -0.72517917165E-01  0.12822981138E+00  0.20408834541E-01 0.  0.
         14    1    1    2    0    0 -0.22580862255E-01  0.45122889569E-02 -0.40396777152E-02  0.23378945396E-01  0.00000000000E+00 0. -1.
     999901    1    3    3    0    0  0.12634394394E+00 -0.36528886865E-02  0.76557594880E-01  0.89232124322E+00  0.88000000000E+00 0. -1.
        -11    1    4    4    0    0 -0.80269805379E-01 -0.86663940058E-02 -0.59179551685E-01  0.10010408832E+00  0.51100000000E-03 0. -1.
         11    1    4    4    0    0 -0.23493276310E-01  0.78069937354E-02 -0.13338365479E-01  0.28125723059E-01  0.51100000000E-03 0.  1.
</event>
<event>
 8    1  0.1126414E+005  0.1043930E+01  0.7957747E-01            NaN
         13   -1    0    0    0    0  0.00000000000E+00  0.00000000000E+00  0.74505805969E-08  0.10566000000E+00  0.10566000000E+00 0.  1.
     999900   -1    0    0    0    0 -0.00000000000E+00 -0.00000000000E+00 -0.74505805969E-08  0.93827000000E+00  0.93827000000E+00 0.  1.
     999902    2    1    2    0    0 -0.89719738465E-02 -0.17827977406E-01 -0.12375484235E-01  0.10204462673E+01  0.10201760136E+01 0.  0.
     999903    2    3    3    0    0 -0.21410914946E-01  0.29658491814E-03 -0.12838265595E+00  0.13256063786E+00  0.25133665082E-01 0.  0.
         14    1    1    2    0    0  0.89719738465E-02  0.17827977406E-01  0.12375484235E-01  0.23483732734E-01  0.00000000000E+00 0.  1.
     999901    1    3    3    0    0  0.12438941099E-01 -0.18124562324E-01  0.11600717171E+00  0.88788562940E+00  0.88000000000E+00 0. -1.
        -11    1    4    4    0    0  0.47200931806E-02  0.44017671985E-02 -0.29290931248E-01  0.29997910069E-01  0.51100000000E-03 0.  1.
         11    1    4    4    0    0 -0.26131008126E-01 -0.41051822804E-02 -0.99091724699E-01  0.10256272779E+00  0.51100000000E-03 0. -1.
</event>
<event>
 8    1  0.1126414E+005  0.1043930E+01  0.7957747E-01            NaN
         13   -1    0    0    0    0  0.00000000000E+00  0.00000000000E+00  0.74505805969E-08  0.10566000000E+00  0.10566000000E+00 0.  1.
     999900   -1    0    0    0    0 -0.00000000000E+00 -0.00000000000E+00 -0.74505805969E-08  0.93827000000E+00  0.93827000000E+00 0.  1.
     999902    2    1    2    0    0  0.17400596690E-01  0.15673161054E-01  0.23317937196E-02  0.10203956420E+01  0.10201242083E+01 0.  0.
     999903    2    3    3    0    0 -0.28439832778E-01 -0.11905620267E+00  0.33092886419E-01  0.12843174633E+00  0.20405167282E-01 0.  0.
         14    1    1    2    0    0 -0.17400596690E-01 -0.15673161054E-01 -0.23317937196E-02  0.23534357959E-01  0.00000000000E+00 0.  1.
     999901    1    3    3    0    0  0.45840429468E-01  0.13472936372E+00 -0.30761092699E-01  0.89196389571E+00  0.88000000000E+00 0.  1.
        -11    1    4    4    0    0 -0.45084509413E-02 -0.50610995061E-01  0.66348378793E-02  0.51245303644E-01  0.51100000000E-03 0. -1.
         11    1    4    4    0    0 -0.23931381837E-01 -0.68445207610E-01  0.26458048539E-01  0.77186442688E-01  0.51100000000E-03 0.  1.
</event>
<event>
 8    1  0.1126414E+005  0.1043930E+01  0.7957747E-01            NaN
         13   -1    0    0    0    0  0.00000000000E+00  0.00000000000E+00  0.74505805969E-08  0.10566000000E+00  0.10566000000E+00 0. -1.
     999900   -1    0    0    0    0 -0.00000000000E+00 -0.00000000000E+00 -0.74505805969E-08  0.93827000000E+00  0.93827000000E+00 0.  1.
     999902    2    1    2    0    0  0.12339129683E-01 -0.54742539234E-03  0.19777001974E-01  0.10206129761E+01  0.10203465898E+01 0.  0.
     999903    2    3    3    0    0  0.14825993213E-01  0.12106899796E+00  0.45738220455E-01  0.13186626091E+00  0.20474706714E-01 0.  0.
         14    1    1    2    0    0 -0.12339129683E-01  0.54742539234E-03 -0.19777001974E-01  0.23317023888E-01  0.00000000000E+00 0.  1.
     999901    1    3    3    0    0 -0.24868635297E-02 -0.12161642335E+00 -0.25961218481E-01  0.88874671520E+00  0.88000000000E+00 0.  1.
        -11    1    4    4    0    0  0.15436458229E-01  0.52493677019E-01  0.25454918273E-01  0.60349683967E-01  0.51100000000E-03 0. -1.
         11    1    4    4    0    0 -0.61046501665E-03  0.68575320938E-01  0.20283302182E-01  0.71516576943E-01  0.51100000000E-03 0.  1.
</event>
<event>
 8    1  0.1126414E+005  0.1043930E+01  0.7957747E-01            NaN
         13   -1    0    0    0    0  0.00000000000E+00  0.00000000000E+00  0.74505805969E-08  0.10566000000E+00  0.10566000000E+00 0.  1.
     999900   -1    0    0    0    0 -0.00000000000E+00 -0.00000000000E+00 -0.74505805969E-08  0.93827000000E+00  0.93827000000E+00 0. -1.
     999902    2    1    2    0    0 -0.18656962230E-01 -0.14310778013E-01  0.25687754804E-03  0.10204151835E+01  0.10201442056E+01 0.  0.
     999903    2    3    3    0    0 -0.14901902660E-01 -0.11251510521E+00 -0.65388277830E-01  0.13251458281E+00  0.20069184747E-01 0.  0.
         14    1    1    2    0    0  0.18656962230E-01  0.14310778013E-01 -0.25687754804E-03  0.23514816458E-01  0.00000000000E+00 0. -1.
     999901    1    3    3    0    0 -0.37550595695E-02  0.98204327200E-01  0.65645155378E-01  0.88790060073E+00  0.88000000000E+00 0.  1.
        -11    1    4    4    0    0 -0.85080077532E-02 -0.24377014800E-01 -0.75746252334E-02  0.26912099786E-01  0.51100000000E-03 0. -1.
         11    1    4    4    0    0 -0.63938949070E-02 -0.88138090413E-01 -0.57813652596E-01  0.10560248303E+00  0.51100000000E-03 0.  1.
</event>
<event>
 8    1  0.1126414E+005  0.1043930E+01  0.7957747E-01            NaN
         13   -1    0    0    0    0  0.00000000000E+00  0.00000000000E+00  0.74505805969E-08  0.10566000000E+00  0.10566000000E+00 0. -1.
     999900   -1    0    0    0    0 -0.00000000000E+00 -0.00000000000E+00 -0.74505805969E-08  0.93827000000E+00  0.93827000000E+00 0.  1.
     999902    2    1    2    0    0 -0.90527367517E-02 -0.20744092191E-01  0.84229522020E-02  0.10197801444E+01  0.10194941527E+01 0.  0.
     999903    2    3    3    0    0  0.51833016685E-01 -0.54261857793E-03 -0.11589628865E+00  0.12872995040E+00  0.21271914702E-01 0.  0.
         14    1    1    2    0    0  0.90527367517E-02  0.20744092191E-01 -0.84229522020E-02  0.24149855638E-01  0.00000000000E+00 0.  1.
     999901    1    3    3    0    0 -0.60885753437E-01 -0.20201473613E-01  0.12431924085E+00  0.89105019396E+00  0.88000000000E+00 0. -1.
        -11    1    4    4    0    0  0.38658246695E-01 -0.34402153633E-02 -0.10295857350E+00  0.11003192308E+00  0.51100000000E-03 0.  1.
         11    1    4    4    0    0  0.13174769991E-01  0.28975967853E-02 -0.12937715147E-01  0.18698027320E-01  0.51100000000E-03 0. -1.
</event>
<event>
 8    1  0.1126414E+005  0.1043930E+01  0.7957747E-01            NaN
         13   -1    0    0    0    0  0.00000000000E+00  0.00000000000E+00  0.74505805969E-08  0.10566000000E+00  0.10566000000E+00 0.  1.
     999900   -1    0    0    0    0 -0.00000000000E+00 -0.00000000000E+00 -0.74505805969E-08  0.93827000000E+00  0.93827000000E+00 0. -1.
     999902    2    1    2    0    0  0.22713057570E-01 -0.54768654801E-02  0.20338437608E-02  0.10204775895E+01  0.10202080646E+01 0.  0.
     999903    2    3    3    0    0 -0.77604302371E-01 -0.49355656412E-01 -0.88020385205E-01  0.12913103219E+00  0.21652406261E-01 0.  0.
         14    1    1    2    0    0 -0.22713057570E-01  0.54768654801E-02 -0.20338437608E-02  0.23452410540E-01  0.00000000000E+00 0. -1.
     999901    1    3    3    0    0  0.10031735994E+00  0.43878790932E-01  0.90054228966E-01  0.89134655727E+00  0.88000000000E+00 0.  1.
        -11    1    4    4    0    0 -0.10768315149E-01 -0.59758587459E-02 -0.23758196399E-01  0.26765285652E-01  0.51100000000E-03 0. -1.
         11    1    4    4    0    0 -0.66835987222E-01 -0.43379797667E-01 -0.64262188807E-01  0.10236574654E+00  0.51100000000E-03 0.  1.
</event>
<event>
 8    1  0.1126414E+005  0.1043930E+01  0.7957747E-01            NaN
         13   -1    0    0    0    0  0.00000000000E+00  0.00000000000E+00  0.74505805969E-08  0.10566000000E+00  0.10566000000E+00 0. -1.
     999900   -1    0    0    0    0 -0.00000000000E+00 -0.00000000000E+00 -0.74505805969E-08  0.93827000000E+00  0.93827000000E+00 0. -1.
     999902    2    1    2    0    0  0.10874852661E-01  0.19836720724E-01  0.90126544478E-02  0.10195786992E+01  0.10192878583E+01 0.  0.
     999903    2    3    3    0    0  0.12512333764E+00  0.25911696594E-01  0.24966429635E-01  0.13202918252E+00  0.21934374544E-01 0.  0.
         14    1    1    2    0    0 -0.10874852661E-01 -0.19836720724E-01 -0.90126544478E-02  0.24351300780E-01  0.00000000000E+00 0.  1.
     999901    1    3    3    0    0 -0.11424848498E+00 -0.60749758706E-02 -0.15953775187E-01  0.88754951670E+00  0.88000000000E+00 0.  1.
        -11    1    4    4    0    0  0.51870570250E-01  0.20148880328E-01  0.49371112649E-02  0.55867429019E-01  0.51100000000E-03 0. -1.
         11    1    4    4    0    0  0.73252767386E-01  0.57628162669E-02  0.20029318370E-01  0.76161753502E-01  0.51100000000E-03 0.  1.
</event>
<event>
 8    1  0.1126414E+005  0.1043930E+01  0.7957747E-01            NaN
         13   -1    0    0    0    0  0.00000000000E+00  0.00000000000E+00  0.74505805969E-08  0.10566000000E+00  0.10566000000E+00 0.  1.
     999900   -1    0    0    0    0 -0.00000000000E+00 -0.00000000000E+00 -0.74505805969E-08  0.93827000000E+00  0.93827000000E+00 0.  1.
     999902    2    1    2    0    0 -0.16984802019E-01  0.11213028236E-01  0.12485474337E-01  0.10200531792E+01  0.10197736934E+01 0.  0.
     999903    2    3    3    0    0  0.54040186222E-01 -0.72089097689E-01 -0.88084110526E-01  0.12758579351E+00  0.20053539459E-01 0.  0.
         14    1    1    2    0    0  0.16984802019E-01 -0.11213028236E-01 -0.12485474337E-01  0.23876820795E-01  0.00000000000E+00 0. -1.
     999901    1    3    3    0    0 -0.71024988241E-01  0.83302125925E-01  0.10056958486E+00  0.89246738570E+00  0.88000000000E+00 0. -1.
        -11    1    4    4    0    0  0.37099275912E-01 -0.46402907422E-01 -0.44490219313E-01  0.74224166051E-01  0.51100000000E-03 0. -1.
         11    1    4    4    0    0  0.16940910310E-01 -0.25686190266E-01 -0.43593891213E-01  0.53361627455E-01  0.51100000000E-03 0.  1.
</event>
<event>
 8    1  0.1126414E+005  0.1043930E+01  0.7957747E-01            NaN
         13   -1    0    0    0    0  0.00000000000E+00  0.00000000000E+00  0.74505805969E-08  0.10566000000E+00  0.10566000000E+00 0. -1.
     999900   -1    0    0    0    0 -0.00000000000E+00 -0.00000000000E+00 -0.74505805969E-08  0.93827000000E+00  0.93827000000E+00 0. -1.
     999902    2    1    2    0    0 -0.14086231959E-01 -0.16182857459E-01  0.14444544916E-01  0.10180658997E+01  0.10177373062E+01 0.  0.
     999903    2    3    3    0    0 -0.92562971617E-01 -0.63602052436E-01 -0.62188485651E-01  0.12998943898E+00  0.20413762754E-01 0.  0.
         14    1    1    2    0    0  0.14086231959E-01  0.16182857459E-01 -0.14444544916E-01  0.25864100297E-01  0.00000000000E+00 0.  1.
     999901    1    3    3    0    0  0.78476739659E-01  0.47419194977E-01  0.76633030567E-01  0.88807646072E+00  0.88000000000E+00 0.  1.
        -11    1    4    4    0    0 -0.47937902491E-01 -0.42420804860E-01 -0.42351175024E-01  0.76755783672E-01  0.51100000000E-03 0.  1.
         11    1    4    4    0    0 -0.44625069126E-01 -0.21181247576E-01 -0.19837310627E-01  0.53233655307E-01  0.51100000000E-03 0. -1.
</event>
<event>
 8    1  0.1126414E+005  0.1043930E+01  0.7957747E-01            NaN
         13   -1    0    0    0    0  0.00000000000E+00  0.00000000000E+00  0.74505805969E-08  0.10566000000E+00  0.10566000000E+00 0. -1.
     999900   -1    0    0    0    0 -0.00000000000E+00 -0.00000000000E+00 -0.74505805969E-08  0.93827000000E+00  0.93827000000E+00 0.  1.
     999902    2    1    2    0    0 -0.91471675937E-02  0.18975736943E-01  0.10062290592E-01  0.10205847872E+01  0.10203177490E+01 0.  0.
     999903    2    3    3    0    0  0.10048126394E+00  0.18540067594E-01  0.79431127204E-01  0.13107333800E+00  0.20753251722E-01 0.  0.
         14    1    1    2    0    0  0.91471675937E-02 -0.18975736943E-01 -0.10062290592E-01  0.23345212774E-01  0.00000000000E+00 0.  1.
     999901    1    3    3    0    0 -0.10962843153E+00  0.43566934923E-03 -0.69368836612E-01  0.88951144922E+00  0.88000000000E+00 0.  1.
        -11    1    4    4    0    0  0.74133168028E-01  0.16695387733E-01  0.47437299544E-01  0.89582482006E-01  0.51100000000E-03 0. -1.
         11    1    4    4    0    0  0.26348095910E-01  0.18446798609E-02  0.31993827660E-01  0.41490855995E-01  0.51100000000E-03 0.  1.
</event>
<event>
 8    1  0.1126414E+005  0.1043930E+01  0.7957747E-01            NaN
         13   -1    0    0    0    0  0.00000000000E+00  0.00000000000E+00  0.74505805969E-08  0.10566000000E+00  0.10566000000E+00 0.  1.
     999900   -1    0    0    0    0 -0.00000000000E+00 -0.00000000000E+00 -0.74505805969E-08  0.93827000000E+00  0.93827000000E+00 0. -1.
     999902    2    1    2    0    0 -0.69463307275E-02 -0.94029204160E-02 -0.20346874005E-01  0.10204638179E+01  0.10201939727E+01 0.  0.
     999903    2    3    3    0    0 -0.44152759917E-01  0.66000952852E-01 -0.10424555087E+00  0.13248349687E+00  0.19471776511E-01 0.  0.
         14    1    1    2    0    0  0.69463307275E-02  0.94029204160E-02  0.20346874005E-01  0.23466182150E-01  0.00000000000E+00 0.  1.
     999901    1    3    3    0    0  0.37206429189E-01 -0.75403873268E-01  0.83898676862E-01  0.88798032098E+00  0.88000000000E+00 0.  1.
        -11    1    4    4    0    0 -0.19503909274E-01  0.17343297288E-01 -0.44427897104E-01  0.51529521634E-01  0.51100000000E-03 0. -1.
         11    1    4    4    0    0 -0.24648850643E-01  0.48657655564E-01 -0.59817653763E-01  0.80953975231E-01  0.51100000000E-03 0.  1.
</event>
<event>
 8    1  0.1126414E+005  0.1043930E+01  0.7957747E-01            NaN
         13   -1    0    0    0    0  0.00000000000E+00  0.00000000000E+00  0.74505805969E-08  0.10566000000E+00  0.10566000000E+00 0. -1.
     999900   -1    0    0    0    0 -0.00000000000E+00 -0.00000000000E+00 -0.74505805969E-08  0.93827000000E+00  0.93827000000E+00 0. -1.
     999902    2    1    2    0    0 -0.14100874315E-01  0.19013318091E-01  0.34435561191E-02  0.10200093186E+01  0.10197287929E+01 0.  0.
     999903    2    3    3    0    0 -0.12340174676E+00 -0.19079167464E-01 -0.35967933645E-01  0.13155505205E+00  0.20519106608E-01 0.  0.
         14    1    1    2    0    0  0.14100874315E-01 -0.19013318091E-01 -0.34435561191E-02  0.23920681429E-01  0.00000000000E+00 0.  1.
     999901    1    3    3    0    0  0.10930087244E+00  0.38092485555E-01  0.39411489764E-01  0.88845426652E+00  0.88000000000E+00 0.  1.
        -11    1    4    4    0    0 -0.43201577167E-01  0.20309934911E-02 -0.76732519177E-02  0.43927680570E-01  0.51100000000E-03 0. -1.
         11    1    4    4    0    0 -0.80200169589E-01 -0.21110160955E-01 -0.28294681727E-01  0.87627371481E-01  0.51100000000E-03 0.  1.
</event>
<event>
 8    1  0.1126414E+005  0.1043930E+01  0.7957747E-01            NaN
         13   -1    0    0    0    0  0.00000000000E+00  0.00000000000E+00  0.74505805969E-08  0.10566000000E+00  0.10566000000E+00 0.  1.
     999900   -1    0    0    0    0 -0.00000000000E+00 -0.00000000000E+00 -0.74505805969E-08  0.93827000000E+00  0.93827000000E+00 0.  1.
     999902    2    1    2    0    0 -0.21847482921E-01 -0.29792693984E-02 -0.76659772160E-02  0.10205857124E+01  0.10203186956E+01 0.  0.
     999903    2    3    3    0    0  0.11850094878E+00  0.14739509055E-01 -0.43100447667E-01  0.12858389679E+00  0.20406909007E-01 0.  0.
         14    1    1    2    0    0  0.21847482921E-01  0.29792693984E-02  0.76659772160E-02  0.23344287584E-01  0.00000000000E+00 0.  1.
     999901    1    3    3    0    0 -0.14034843170E+00 -0.17718778453E-01  0.35434470451E-01  0.89200181563E+00  0.88000000000E+00 0. -1.
        -11    1    4    4    0    0  0.76494712168E-01  0.83935997688E-02 -0.17295204896E-01  0.78875083139E-01  0.51100000000E-03 0.  1.
         11    1    4    4    0    0  0.42006236611E-01  0.63459092858E-02 -0.25805242771E-01  0.49708813648E-01  0.51100000000E-03 0. -1.
</event>
<event>
 8    1  0.1126414E+005  0.1043930E+01  0.7957747E-01            NaN
         13   -1    0    0    0    0  0.00000000000E+00  0.00000000000E+00  0.74505805969E-08  0.10566000000E+00  0.10566000000E+00 0.  1.
     999900   -1    0    0    0    0 -0.00000000000E+00 -0.00000000000E+00 -0.74505805969E-08  0.93827000000E+00  0.93827000000E+00 0. -1.
     999902    2    1    2    0    0  0.21768526409E-01  0.27436947135E-02  0.83692209209E-02  0.10204472305E+01  0.10201769993E+01 0.  0.
     999903    2    3    3    0    0  0.10890331355E+00  0.32937834401E-01 -0.65097502179E-01  0.13258377448E+00  0.19898236796E-01 0.  0.
         14    1    1    2    0    0 -0.21768526409E-01 -0.27436947135E-02 -0.83692209209E-02  0.23482769460E-01  0.00000000000E+00 0. -1.
     999901    1    3    3    0    0 -0.87134787144E-01 -0.30194139688E-01  0.73466723100E-01  0.88786345606E+00  0.88000000000E+00 0.  1.
        -11    1    4    4    0    0  0.46224215388E-01  0.42097485180E-02 -0.23087222768E-01  0.51842849525E-01  0.51100000000E-03 0. -1.
         11    1    4    4    0    0  0.62679098166E-01  0.28728085883E-01 -0.42010279412E-01  0.80740924955E-01  0.51100000000E-03 0.  1.
</event>
<event>
 8    1  0.1126414E+005  0.1043930E+01  0.7957747E-01            NaN
         13   -1    0    0    0    0  0.00000000000E+00  0.00000000000E+00  0.74505805969E-08  0.10566000000E+00  0.10566000000E+00 0. -1.
     999900   -1    0    0    0    0 -0.00000000000E+00 -0.00000000000E+00 -0.74505805969E-08  0.93827000000E+00  0.93827000000E+00 0.  1.
     999902    2    1    2    0    0 -0.17198104848E-02  0.33445697240E-02  0.23168187351E-01  0.10204585535E+01  0.10201885858E+01 0.  0.
     999903    2    3    3    0    0  0.87900088490E-01 -0.14768848591E-01 -0.91125881589E-01  0.12836945684E+00  0.15173882480E-01 0.  0.
         14    1    1    2    0    0  0.17198104848E-02 -0.33445697240E-02 -0.23168187351E-01  0.23471446481E-01  0.00000000000E+00 0.  1.
     999901    1    3    3    0    0 -0.89619898974E-01  0.18113418315E-01  0.11429406894E+00  0.89208909668E+00  0.88000000000E+00 0.  1.
        -11    1    4    4    0    0  0.52467132866E-01 -0.51130683652E-02 -0.44315996622E-01  0.68870256112E-01  0.51100000000E-03 0.  1.
         11    1    4    4    0    0  0.35432955623E-01 -0.96557802259E-02 -0.46809884967E-01  0.59499200731E-01  0.51100000000E-03 0. -1.
</event>
<event>
 8    1  0.1142897E+005  0.1043930E+01  0.7957747E-01            NaN
         13   -1    0    0    0    0  0.00000000000E+00  0.00000000000E+00  0.74505805969E-08  0.10566000000E+00  0.10566000000E+00 0.  1.
     999900   -1    0    0    0    0 -0.00000000000E+00 -0.00000000000E+00 -0.74505805969E-08  0.93827000000E+00  0.93827000000E+00 0.  1.
     999902    2    1    2    0    0  0.84922608965E-02 -0.20142097672E-01 -0.75956138077E-02  0.10207887826E+01  0.10205264439E+01 0.  0.
     999903    2    3    3    0    0 -0.81074024697E-01 -0.90722372463E-01 -0.48246079859E-01  0.13250045379E+00  0.20618915754E-01 0.  0.
         14    1    1    2    0    0 -0.84922608965E-02  0.20142097672E-01  0.75956138077E-02  0.23141217403E-01  0.00000000000E+00 0.  1.
     999901    1    3    3    0    0  0.89566285594E-01  0.70580274791E-01  0.40650466051E-01  0.88828832881E+00  0.88000000000E+00 0. -1.
        -11    1    4    4    0    0 -0.35640188535E-01 -0.38232773815E-01 -0.99320834971E-02  0.53205971807E-01  0.51100000000E-03 0. -1.
         11    1    4    4    0    0 -0.45433836163E-01 -0.52489598649E-01 -0.38313996361E-01  0.79294481983E-01  0.51100000000E-03 0.  1.
</event>
<event>
 8    1  0.1126414E+005  0.1043930E+01  0.7957747E-01            NaN
         13   -1    0    0    0    0  0.00000000000E+00  0.00000000000E+00  0.74505805969E-08  0.10566000000E+00  0.10566000000E+00 0. -1.
     999900   -1    0    0    0    0 -0.00000000000E+00 -0.00000000000E+00 -0.74505805969E-08  0.93827000000E+00  0.93827000000E+00 0. -1.
     999902    2    1    2    0    0  0.71642507250E-02 -0.92974459754E-02  0.19400116421E-01  0.10212554877E+01  0.10210037403E+01 0.  0.
     999903    2    3    3    0    0  0.11617816874E+00 -0.33439132029E-01  0.53170900618E-01  0.13355772316E+00  0.19874061039E-01 0.  0.
         14    1    1    2    0    0 -0.71642507250E-02  0.92974459754E-02 -0.19400116421E-01  0.22674512283E-01  0.00000000000E+00 0.  1.
     999901    1    3    3    0    0 -0.10901391801E+00  0.24141686053E-01 -0.33770784197E-01  0.88769776455E+00  0.88000000000E+00 0. -1.
        -11    1    4    4    0    0  0.58803606232E-01 -0.71092878446E-02  0.22398925108E-01  0.63327553612E-01  0.51100000000E-03 0.  1.
         11    1    4    4    0    0  0.57374562507E-01 -0.26329844184E-01  0.30771975510E-01  0.70230169553E-01  0.51100000000E-03 0. -1.
</event>
<event>
 8    1  0.1126414E+005  0.1043930E+01  0.7957747E-01            NaN
         13   -1    0    0    0    0  0.00000000000E+00  0.00000000000E+00  0.74505805969E-08  0.10566000000E+00  0.10566000000E+00 0. -1.
     999900   -1    0    0    0    0 -0.00000000000E+00 -0.00000000000E+00 -0.74505805969E-08  0.93827000000E+00  0.93827000000E+00 0. -1.
     999902    2    1    2    0    0 -0.19719657985E-01  0.11093180908E-01  0.49264862139E-02  0.10207741403E+01  0.10205114657E+01 0.  0.
     999903    2    3    3    0    0 -0.14022907734E-01  0.80293767666E-01 -0.10121811430E+00  0.13168030360E+00  0.21233573104E-01 0.  0.
         14    1    1    2    0    0  0.19719657985E-01 -0.11093180908E-01 -0.49264862139E-02  0.23155859736E-01  0.00000000000E+00 0. -1.
     999901    1    3    3    0    0 -0.56967502512E-02 -0.69200586758E-01  0.10614460052E+00  0.88909383666E+00  0.88000000000E+00 0.  1.
        -11    1    4    4    0    0 -0.12991829260E-01  0.59523606744E-01 -0.60002265476E-01  0.85512457400E-01  0.51100000000E-03 0. -1.
         11    1    4    4    0    0 -0.10310784734E-02  0.20770160922E-01 -0.41215848825E-01  0.46167846202E-01  0.51100000000E-03 0.  1.
</event>
<event>
 8    1  0.1126414E+005  0.1043930E+01  0.7957747E-01            NaN
         13   -1    0    0    0    0  0.00000000000E+00  0.00000000000E+00  0.74505805969E-08  0.10566000000E+00  0.10566000000E+00 0.  1.
     999900   -1    0    0    0    0 -0.00000000000E+00 -0.00000000000E+00 -0.74505805969E-08  0.93827000000E+00  0.93827000000E+00 0.  1.
     999902    2    1    2    0    0 -0.41405078479E-02  0.18134796283E-01 -0.15711449910E-01  0.10195811951E+01  0.10192904145E+01 0.  0.
     999903    2    3    3    0    0  0.75590725030E-01  0.56506186852E-01 -0.90888191820E-01  0.13195459814E+00  0.15634759222E-01 0.  0.
         14    1    1    2    0    0  0.41405078479E-02 -0.18134796283E-01  0.15711449910E-01  0.24348804894E-01  0.00000000000E+00 0.  1.
     999901    1    3    3    0    0 -0.79731232878E-01 -0.38371390569E-01  0.75176741910E-01  0.88762659696E+00  0.88000000000E+00 0.  1.
        -11    1    4    4    0    0  0.29227428827E-01  0.28886385410E-01 -0.32074717321E-01  0.52131703119E-01  0.51100000000E-03 0. -1.
         11    1    4    4    0    0  0.46363296202E-01  0.27619801442E-01 -0.58813474499E-01  0.79822895025E-01  0.51100000000E-03 0.  1.
</event>
<event>
 8    1  0.1126414E+005  0.1043930E+01  0.7957747E-01            NaN
         13   -1    0    0    0    0  0.00000000000E+00  0.00000000000E+00  0.74505805969E-08  0.10566000000E+00  0.10566000000E+00 0.  1.
     999900   -1    0    0    0    0 -0.00000000000E+00 -0.00000000000E+00 -0.74505805969E-08  0.93827000000E+00  0.93827000000E+00 0. -1.
     999902    2    1    2    0    0 -0.13849848020E-01  0.82884293999E-02 -0.17870285074E-01  0.10198496462E+01  0.10195653178E+01 0.  0.
     999903    2    3    3    0    0 -0.24760064993E-01 -0.15353610042E-01 -0.12813212984E+00  0.13258663371E+00  0.17679892004E-01 0.  0.
         14    1    1    2    0    0  0.13849848020E-01 -0.82884293999E-02  0.17870285074E-01  0.24080353833E-01  0.00000000000E+00 0.  1.
     999901    1    3    3    0    0  0.10910216974E-01  0.23642039442E-01  0.11026184477E+00  0.88726301246E+00  0.88000000000E+00 0.  1.
        -11    1    4    4    0    0 -0.78004430619E-03 -0.79557879633E-02 -0.46425278850E-01  0.47111258405E-01  0.51100000000E-03 0. -1.
         11    1    4    4    0    0 -0.23980020687E-01 -0.73978220791E-02 -0.81706850991E-01  0.85475375305E-01  0.51100000000E-03 0.  1.
</event>
<event>
 8    1  0.1126414E+005  0.1043930E+01  0.7957747E-01            NaN
         13   -1    0    0    0    0  0.00000000000E+00  0.00000000000E+00  0.74505805969E-08  0.10566000000E+00  0.10566000000E+00 0.  1.
     999900   -1    0    0    0    0 -0.00000000000E+00 -0.00000000000E+00 -0.74505805969E-08  0.93827000000E+00  0.93827000000E+00 0. -1.
     999902    2    1    2    0    0 -0.11096505750E-02  0.22341909865E-01 -0.57793571039E-02  0.10208260343E+01  0.10205645492E+01 0.  0.
     999903    2    3    3    0    0 -0.11829253486E-01  0.90692342130E-01  0.93705787497E-01  0.13252204050E+00  0.20403049960E-01 0.  0.
         14    1    1    2    0    0  0.11096505750E-02 -0.22341909865E-01  0.57793571039E-02  0.23103965663E-01  0.00000000000E+00 0.  1.
     999901    1    3    3    0    0  0.10719602911E-01 -0.68350432265E-01 -0.99485144601E-01  0.88830399384E+00  0.88000000000E+00 0. -1.
        -11    1    4    4    0    0 -0.17138023987E-01  0.54888081569E-01  0.56793080319E-01  0.80821584108E-01  0.51100000000E-03 0.  1.
         11    1    4    4    0    0  0.53087705015E-02  0.35804260561E-01  0.36912707178E-01  0.51700456388E-01  0.51100000000E-03 0. -1.
</event>
<event>
 8    1  0.1126414E+005  0.1043930E+01  0.7957747E-01            NaN
         13   -1    0    0    0    0  0.00000000000E+00  0.00000000000E+00  0.74505805969E-08  0.10566000000E+00  0.10566000000E+00 0.  1.
     999900   -1    0    0    0    0 -0.00000000000E+00 -0.00000000000E+00 -0.74505805969E-08  0.93827000000E+00  0.93827000000E+00 0. -1.
     999902    2    1    2    0    0 -0.18194158053E-01 -0.14182916742E-01  0.34111620495E-02  0.10206100827E+01  0.10203436296E+01 0.  0.
     999903    2    3    3    0    0 -0.89025801668E-01  0.20068892421E-01  0.93547341290E-01  0.13251389483E+00  0.21919704718E-01 0.  0.
         14    1    1    2    0    0  0.18194158053E-01  0.14182916742E-01 -0.34111620495E-02  0.23319917262E-01  0.00000000000E+00 0.  1.
     999901    1    3    3    0    0  0.70831643615E-01 -0.34251809163E-01 -0.90136179241E-01  0.88809618791E+00  0.88000000000E+00 0. -1.
        -11    1    4    4    0    0 -0.32639703594E-01 -0.30964136221E-02  0.29778433753E-01  0.44293952926E-01  0.51100000000E-03 0. -1.
         11    1    4    4    0    0 -0.56386098074E-01  0.23165306043E-01  0.63768907537E-01  0.88219941904E-01  0.51100000000E-03 0.  1.
</event>
<event>
 8    1  0.1126414E+005  0.1043930E+01  0.7957747E-01            NaN
         13   -1    0    0    0    0  0.00000000000E+00  0.00000000000E+00  0.74505805969E-08  0.10566000000E+00  0.10566000000E+00 0. -1.
     999900   -1    0    0    0    0 -0.00000000000E+00 -0.00000000000E+00 -0.74505805969E-08  0.93827000000E+00  0.93827000000E+00 0. -1.
     999902    2    1    2    0    0 -0.19142939581E-01 -0.15270418337E-01 -0.62230809650E-02  0.10186641228E+01  0.10183507405E+01 0.  0.
     999903    2    3    3    0    0 -0.79598986528E-02 -0.38836882560E-01 -0.12290214096E+00  0.13057941872E+00  0.19349028607E-01 0.  0.
         14    1    1    2    0    0  0.19142939581E-01  0.15270418337E-01  0.62230809650E-02  0.25265877161E-01  0.00000000000E+00 0.  1.
     999901    1    3    3    0    0 -0.11183040928E-01  0.23566464223E-01  0.11667906000E+00  0.88808470411E+00  0.88000000000E+00 0.  1.
        -11    1    4    4    0    0 -0.12076526654E-01 -0.25009743342E-01 -0.61165529320E-01  0.67177472832E-01  0.51100000000E-03 0. -1.
         11    1    4    4    0    0  0.41166280010E-02 -0.13827139218E-01 -0.61736611641E-01  0.63401945893E-01  0.51100000000E-03 0.  1.
</event>
<event>
 8    1  0.1126414E+005  0.1043930E+01  0.7957747E-01            NaN
         13   -1    0    0    0    0  0.00000000000E+00  0.00000000000E+00  0.74505805969E-08  0.10566000000E+00  0.10566000000E+00 0. -1.
     999900   -1    0    0    0    0 -0.00000000000E+00 -0.00000000000E+00 -0.74505805969E-08  0.93827000000E+00  0.93827000000E+00 0.  1.
     999902    2    1    2    0    0 -0.21355923861E-01  0.10709585903E-01 -0.72352003229E-03  0.10200282387E+01  0.10197481618E+01 0.  0.
     999903    2    3    3    0    0  0.26251485177E-01  0.95269842532E-01  0.83205572975E-01  0.13072458126E+00  0.20006633961E-01 0.  0.
         14    1    1    2    0    0  0.21355923861E-01 -0.10709585903E-01  0.72352003229E-03  0.23901761345E-01  0.00000000000E+00 0.  1.
     999901    1    3    3    0    0 -0.47607409039E-01 -0.84560256629E-01 -0.83929093007E-01  0.88930365739E+00  0.88000000000E+00 0. -1.
        -11    1    4    4    0    0  0.26941339235E-01  0.87871979625E-01  0.82014109125E-01  0.12318236797E+00  0.51100000000E-03 0. -1.
         11    1    4    4    0    0 -0.68985405714E-03  0.73978629066E-02  0.11914638495E-02  0.75422132899E-02  0.51100000000E-03 0.  1.
</event>
<event>
 8    1  0.1126414E+005  0.1043930E+01  0.7957747E-01            NaN
         13   -1    0    0    0    0  0.00000000000E+00  0.00000000000E+00  0.74505805969E-08  0.10566000000E+00  0.10566000000E+00 0. -1.
     999900   -1    0    0    0    0 -0.00000000000E+00 -0.00000000000E+00 -0.74505805969E-08  0.93827000000E+00  0.93827000000E+00 0. -1.
     999902    2    1    2    0    0 -0.54283042095E-02 -0.16708101576E-01  0.17025298280E-01  0.10194659871E+01  0.10191724147E+01 0.  0.
     999903    2    3    3    0    0 -0.49693657020E-01 -0.84089299183E-01 -0.83251955932E-01  0.13010937981E+00  0.21379727840E-01 0.  0.
         14    1    1    2    0    0  0.54283042095E-02  0.16708101576E-01 -0.17025298280E-01  0.24464012884E-01  0.00000000000E+00 0.  1.
     999901    1    3    3    0    0  0.44265352810E-01  0.67381197607E-01  0.10027725421E+00  0.88935660731E+00  0.88000000000E+00 0.  1.
        -11    1    4    4    0    0 -0.42992723663E-01 -0.55667702938E-01 -0.53093623772E-01  0.88127529436E-01  0.51100000000E-03 0. -1.
         11    1    4    4    0    0 -0.67009333570E-02 -0.28421596245E-01 -0.30158332160E-01  0.41981850372E-01  0.51100000000E-03 0.  1.
</event>
<event>
 8    1  0.1126414E+005  0.1043930E+01  0.7957747E-01            NaN
         13   -1    0    0    0    0  0.00000000000E+00  0.00000000000E+00  0.74505805969E-08  0.10566000000E+00  0.10566000000E+00 0.  1.
     999900   -1    0    0    0    0 -0.00000000000E+00 -0.00000000000E+00 -0.74505805969E-08  0.93827000000E+00  0.93827000000E+00 0.  1.
     999902    2    1    2    0    0  0.12583498424E-02 -0.18450681235E-01  0.13375644767E-01  0.10211063510E+01  0.10208512433E+01 0.  0.
     999903    2    3    3    0    0  0.17623783074E-02 -0.29443010993E-01 -0.12535176105E+00  0.13017067513E+00  0.19009044981E-01 0.  0.
         14    1    1    2    0    0 -0.12583498424E-02  0.18450681235E-01 -0.13375644767E-01  0.22823649035E-01  0.00000000000E+00 0. -1.
     999901    1    3    3    0    0 -0.50402846499E-03  0.10992329758E-01  0.13872740582E+00  0.89093567584E+00  0.88000000000E+00 0. -1.
        -11    1    4    4    0    0  0.71431931354E-02 -0.25246740357E-02 -0.24635723660E-01  0.25779433438E-01  0.51100000000E-03 0. -1.
         11    1    4    4    0    0 -0.53808148280E-02 -0.26918336957E-01 -0.10071603739E+00  0.10439124169E+00  0.51100000000E-03 0.  1.
</event>
<event>
 8    1  0.1126414E+005  0.1043930E+01  0.7957747E-01            NaN
         13   -1    0    0    0    0  0.00000000000E+00  0.00000000000E+00  0.74505805969E-08  0.10566000000E+00  0.10566000000E+00 0. -1.
     999900   -1    0    0    0    0 -0.00000000000E+00 -0.00000000000E+00 -0.74505805969E-08  0.93827000000E+00  0.93827000000E+00 0.  1.
     999902    2    1    2    0    0 -0.10710509004E-01  0.21231486393E-02 -0.20845711004E-01  0.10203977576E+01  0.10201263732E+01 0.  0.
     999903    2    3    3    0    0  0.49897666638E-01  0.11126453253E-01 -0.12139633526E+00  0.13255495709E+00  0.14838171640E-01 0.  0.
         14    1    1    2    0    0  0.10710509004E-01 -0.21231486393E-02  0.20845711004E-01  0.23532242361E-01  0.00000000000E+00 0. -1.
     999901    1    3    3    0    0 -0.60608175641E-01 -0.90033046134E-02  0.10055062425E+00  0.88784280055E+00  0.88000000000E+00 0. -1.
        -11    1    4    4    0    0  0.87343317401E-02  0.36923739275E-02 -0.39101624274E-01  0.40238294174E-01  0.51100000000E-03 0. -1.
         11    1    4    4    0    0  0.41163334898E-01  0.74340793252E-02 -0.82294710983E-01  0.92316662917E-01  0.51100000000E-03 0.  1.
</event>
<event>
 8    1  0.1126414E+005  0.1043930E+01  0.7957747E-01            NaN
         13   -1    0    0    0    0  0.00000000000E+00  0.00000000000E+00  0.74505805969E-08  0.10566000000E+00  0.10566000000E+00 0. -1.
     999900   -1    0    0    0    0 -0.00000000000E+00 -0.00000000000E+00 -0.74505805969E-08  0.93827000000E+00  0.93827000000E+00 0.  1.
     999902    2    1    2    0    0  0.98933833160E-02 -0.20919190866E-01 -0.10821921755E-01  0.10183838541E+01  0.10180633913E+01 0.  0.
     999903    2    3    3    0    0 -0.83997815835E-01  0.66732030196E-01 -0.65714099974E-01  0.12736676949E+00  0.19878483753E-01 0.  0.
         14    1    1    2    0    0 -0.98933833160E-02  0.20919190866E-01  0.10821921755E-01  0.25546145901E-01  0.00000000000E+00 0.  1.
     999901    1    3    3    0    0  0.93891199151E-01 -0.87651221062E-01  0.54892178219E-01  0.89101708461E+00  0.88000000000E+00 0. -1.
        -11    1    4    4    0    0 -0.47021329605E-02  0.10823144897E-01 -0.44690819430E-02  0.12628710713E-01  0.51100000000E-03 0. -1.
         11    1    4    4    0    0 -0.79295682875E-01  0.55908885298E-01 -0.61245018030E-01  0.11473805878E+00  0.51100000000E-03 0.  1.
</event>
<event>
 8    1  0.1126414E+005  0.1043930E+01  0.7957747E-01            NaN
         13   -1    0    0    0    0  0.00000000000E+00  0.00000000000E+00  0.74505805969E-08  0.10566000000E+00  0.10566000000E+00 0. -1.
     999900   -1    0    0    0    0 -0.00000000000E+00 -0.00000000000E+00 -0.74505805969E-08  0.93827000000E+00  0.93827000000E+00 0. -1.
     999902    2    1    2    0    0 -0.16222651601E-01  0.15347709882E-01  0.96311574047E-02  0.10196095186E+01  0.10193194222E+01 0.  0.
     999903    2    3    3    0    0 -0.63503514042E-02  0.74791107738E-01 -0.10434306005E+00  0.13021584753E+00  0.20848405399E-01 0.  0.
         14    1    1    2    0    0  0.16222651601E-01 -0.15347709882E-01 -0.96311574047E-02  0.24320481421E-01  0.00000000000E+00 0.  1.
     999901    1    3    3    0    0 -0.98723001969E-02 -0.59443397855E-01  0.11397421745E+00  0.88939367105E+00  0.88000000000E+00 0. -1.
        -11    1    4    4    0    0  0.75778878259E-02  0.21048199854E-01 -0.29347194303E-01  0.36904878207E-01  0.51100000000E-03 0. -1.
         11    1    4    4    0    0 -0.13928239230E-01  0.53742907884E-01 -0.74995865746E-01  0.93310969322E-01  0.51100000000E-03 0.  1.
</event>
<event>
 8    1  0.1126414E+005  0.1043930E+01  0.7957747E-01            NaN
         13   -1    0    0    0    0  0.00000000000E+00  0.00000000000E+00  0.74505805969E-08  0.10566000000E+00  0.10566000000E+00 0. -1.
     999900   -1    0    0    0    0 -0.00000000000E+00 -0.00000000000E+00 -0.74505805969E-08  0.93827000000E+00  0.93827000000E+00 0. -1.
     999902    2    1    2    0    0  0.20717109121E-01  0.58697242329E-02 -0.98225710087E-02  0.10202628250E+01  0.10199882827E+01 0.  0.
     999903    2    3    3    0    0  0.23124149191E-01 -0.49964425829E-01 -0.11825951886E+00  0.13184748414E+00  0.19164424059E-01 0.  0.
         14    1    1    2    0    0 -0.20717109121E-01 -0.58697242329E-02  0.98225710087E-02  0.23667175035E-01  0.00000000000E+00 0. -1.
     999901    1    3    3    0    0 -0.24070400702E-02  0.55834150062E-01  0.10843694785E+00  0.88841534083E+00  0.88000000000E+00 0.  1.
        -11    1    4    4    0    0  0.15599015151E-01 -0.32006942554E-01 -0.95321747920E-01  0.10175593542E+00  0.51100000000E-03 0.  1.
         11    1    4    4    0    0  0.75251340409E-02 -0.17957483275E-01 -0.22937770936E-01  0.30091548721E-01  0.51100000000E-03 0. -1.
</event>
<event>
 8    1  0.1126414E+005  0.1043930E+01  0.7957747E-01            NaN
         13   -1    0    0    0    0  0.00000000000E+00  0.00000000000E+00  0.74505805969E-08  0.10566000000E+00  0.10566000000E+00 0.  1.
     999900   -1    0    0    0    0 -0.00000000000E+00 -0.00000000000E+00 -0.74505805969E-08  0.93827000000E+00  0.93827000000E+00 0. -1.
     999902    2    1    2    0    0  0.16140366978E-02  0.79062542940E-02 -0.22789249471E-01  0.10197543126E+01  0.10194677014E+01 0.  0.
     999903    2    3    3    0    0 -0.10171233621E+00 -0.76697939817E-01 -0.13787431036E-01  0.12963339846E+00  0.19665996827E-01 0.  0.
         14    1    1    2    0    0 -0.16140366978E-02 -0.79062542940E-02  0.22789249471E-01  0.24175687434E-01  0.00000000000E+00 0.  1.
     999901    1    3    3    0    0  0.10332637291E+00  0.84604194111E-01 -0.90018184350E-02  0.89012091411E+00  0.88000000000E+00 0. -1.
        -11    1    4    4    0    0 -0.21369678893E-01 -0.23167837052E-01 -0.97868515484E-02  0.33006899792E-01  0.51100000000E-03 0.  1.
         11    1    4    4    0    0 -0.80342657318E-01 -0.53530102765E-01 -0.40005794879E-02  0.96626498665E-01  0.51100000000E-03 0. -1.
</event>
<event>
 8    1  0.1126414E+005  0.1043930E+01  0.7957747E-01            NaN
         13   -1    0    0    0    0  0.00000000000E+00  0.00000000000E+00  0.74505805969E-08  0.10566000000E+00  0.10566000000E+00 0. -1.
     999900   -1    0    0    0    0 -0.00000000000E+00 -0.00000000000E+00 -0.74505805969E-08  0.93827000000E+00  0.93827000000E+00 0.  1.
     999902    2    1    2    0    0 -0.16722687601E-01 -0.64313868390E-03 -0.15077525889E-01  0.10214045989E+01  0.10211561883E+01 0.  0.
     999903    2    3    3    0    0 -0.97274721663E-01  0.88590065807E-01 -0.54270927061E-02  0.13317921881E+00  0.19916820840E-01 0.  0.
         14    1    1    2    0    0  0.16722687601E-01  0.64313868390E-03  0.15077525889E-01  0.22525401104E-01  0.00000000000E+00 0. -1.
     999901    1    3    3    0    0  0.80552034062E-01 -0.89233204491E-01 -0.96504331826E-02  0.88822538009E+00  0.88000000000E+00 0. -1.
        -11    1    4    4    0    0 -0.45568078537E-01  0.44879931849E-01  0.69921672968E-02  0.64341352091E-01  0.51100000000E-03 0.  1.
         11    1    4    4    0    0 -0.51706643126E-01  0.43710133958E-01 -0.12419260003E-01  0.68837866715E-01  0.51100000000E-03 0. -1.
</event>
<event>
 7    1  0.1871671E+005  0.1043930E+01  0.7957747E-01            NaN
         13   -1    0    0    0    0  0.00000000000E+00  0.00000000000E+00  0.74505805969E-08  0.10566000000E+00  0.10566000000E+00 0. -1.
     999900   -1    0    0    0    0 -0.00000000000E+00 -0.00000000000E+00 -0.74505805969E-08  0.93827000000E+00  0.93827000000E+00 0. -1.
     999903    2    1    2    0    0  0.51508542338E-01 -0.28505544350E-01 -0.71511645210E-01  0.94704928368E-01  0.19733526399E-01 0.  0.
         14    1    1    2    0    0  0.34044014829E-01 -0.41946158780E-01 -0.19909011105E-01  0.57574681113E-01  0.00000000000E+00 0. -1.
     999901    1    1    2    0    0 -0.85552557167E-01  0.70451703130E-01  0.91420656315E-01  0.89165039052E+00  0.88000000000E+00 0.  1.
        -11    1    3    3    0    0  0.23141900685E-01 -0.23970052332E-01 -0.36794930754E-01  0.49641102187E-01  0.51100000000E-03 0.  1.
         11    1    3    3    0    0  0.28366641653E-01 -0.45354920179E-02 -0.34716714456E-01  0.45063826181E-01  0.51100000000E-03 0. -1.
</event>
<event>
 8    1  0.1126414E+005  0.1043930E+01  0.7957747E-01            NaN
         13   -1    0    0    0    0  0.00000000000E+00  0.00000000000E+00  0.74505805969E-08  0.10566000000E+00  0.10566000000E+00 0. -1.
     999900   -1    0    0    0    0 -0.00000000000E+00 -0.00000000000E+00 -0.74505805969E-08  0.93827000000E+00  0.93827000000E+00 0.  1.
     999902    2    1    2    0    0  0.87139856321E-02 -0.16803029556E-02  0.22357399390E-01  0.10198756808E+01  0.10195919743E+01 0.  0.
     999903    2    3    3    0    0  0.10762866474E+00 -0.16910221773E-01 -0.67488928719E-01  0.12965749024E+00  0.19657675378E-01 0.  0.
         14    1    1    2    0    0 -0.87139856321E-02  0.16803029556E-02 -0.22357399390E-01  0.24054319178E-01  0.00000000000E+00 0.  1.
     999901    1    3    3    0    0 -0.98914679108E-01  0.15229918818E-01  0.89846328109E-01  0.89021819058E+00  0.88000000000E+00 0. -1.
        -11    1    4    4    0    0  0.26389715791E-01  0.42923815455E-02 -0.16833970764E-01  0.31598818515E-01  0.51100000000E-03 0. -1.
         11    1    4    4    0    0  0.81238948949E-01 -0.21202603319E-01 -0.50654957955E-01  0.98058671724E-01  0.51100000000E-03 0.  1.
</event>
<event>
 8    1  0.1126414E+005  0.1043930E+01  0.7957747E-01            NaN
         13   -1    0    0    0    0  0.00000000000E+00  0.00000000000E+00  0.74505805969E-08  0.10566000000E+00  0.10566000000E+00 0. -1.
     999900   -1    0    0    0    0 -0.00000000000E+00 -0.00000000000E+00 -0.74505805969E-08  0.93827000000E+00  0.93827000000E+00 0. -1.
     999902    2    1    2    0    0 -0.17647718017E-01 -0.17608248496E-01 -0.82491482413E-02  0.10176708909E+01  0.10173320507E+01 0.  0.
     999903    2    3    3    0    0  0.18435153312E-01  0.52611273201E-01 -0.11252442792E+00  0.12800461141E+00  0.24811947063E-01 0.  0.
         14    1    1    2    0    0  0.17647718017E-01  0.17608248496E-01  0.82491482413E-02  0.26259109143E-01  0.00000000000E+00 0. -1.
     999901    1    3    3    0    0 -0.36082871329E-01 -0.70219521697E-01  0.10427527968E+00  0.88966627945E+00  0.88000000000E+00 0.  1.
        -11    1    4    4    0    0  0.16939214365E-01  0.26234410362E-01 -0.81341932383E-01  0.87131810237E-01  0.51100000000E-03 0.  1.
         11    1    4    4    0    0  0.14959389474E-02  0.26376862839E-01 -0.31182495542E-01  0.40872801174E-01  0.51100000000E-03 0. -1.
</event>
<event>
 8    1  0.1126414E+005  0.1043930E+01  0.7957747E-01            NaN
         13   -1    0    0    0    0  0.00000000000E+00  0.00000000000E+00  0.74505805969E-08  0.10566000000E+00  0.10566000000E+00 0.  1.
     999900   -1    0    0    0    0 -0.00000000000E+00 -0.00000000000E+00 -0.74505805969E-08  0.93827000000E+00  0.93827000000E+00 0. -1.
     999902    2    1    2    0    0 -0.98656253689E-02  0.25422579550E-02 -0.20953055949E-01  0.10206314122E+01  0.10203654519E+01 0.  0.
     999903    2    3    3    0    0  0.46241648708E-01  0.14610801020E-01  0.11684848590E+00  0.12806043975E+00  0.19853009637E-01 0.  0.
         14    1    1    2    0    0  0.98656253689E-02 -0.25422579550E-02  0.20953055949E-01  0.23298587791E-01  0.00000000000E+00 0.  1.
     999901    1    3    3    0    0 -0.56107274077E-01 -0.12068543065E-01 -0.13780154185E+00  0.89257097246E+00  0.88000000000E+00 0. -1.
        -11    1    4    4    0    0  0.18561840169E-01  0.12532041860E-01  0.71113844760E-01  0.74558929855E-01  0.51100000000E-03 0. -1.
         11    1    4    4    0    0  0.27679808539E-01  0.20787591603E-02  0.45734641138E-01  0.53501509898E-01  0.51100000000E-03 0.  1.
</event>
<event>
 8    1  0.1126414E+005  0.1043930E+01  0.7957747E-01            NaN
         13   -1    0    0    0    0  0.00000000000E+00  0.00000000000E+00  0.74505805969E-08  0.10566000000E+00  0.10566000000E+00 0. -1.
     999900   -1    0    0    0    0 -0.00000000000E+00 -0.00000000000E+00 -0.74505805969E-08  0.93827000000E+00  0.93827000000E+00 0. -1.
     999902    2    1    2    0    0  0.12581402905E-01  0.46988416111E-02 -0.20417272003E-01  0.10194915916E+01  0.10191986408E+01 0.  0.
     999903    2    3    3    0    0 -0.63711457073E-01  0.65050445581E-01 -0.92279104544E-01  0.13121965145E+00  0.20308952698E-01 0.  0.
         14    1    1    2    0    0 -0.12581402905E-01 -0.46988416111E-02  0.20417272003E-01  0.24438408450E-01  0.00000000000E+00 0.  1.
     999901    1    3    3    0    0  0.76292859978E-01 -0.60351603970E-01  0.71861832541E-01  0.88827194010E+00  0.88000000000E+00 0.  1.
        -11    1    4    4    0    0 -0.18950500714E-01  0.33269607375E-01 -0.40935395056E-01  0.56053152825E-01  0.51100000000E-03 0.  1.
         11    1    4    4    0    0 -0.44760956359E-01  0.31780838206E-01 -0.51343709487E-01  0.75166498629E-01  0.51100000000E-03 0. -1.
</event>
<event>
 8    1  0.1126414E+005  0.1043930E+01  0.7957747E-01            NaN
         13   -1    0    0    0    0  0.00000000000E+00  0.00000000000E+00  0.74505805969E-08  0.10566000000E+00  0.10566000000E+00 0. -1.
     999900   -1    0    0    0    0 -0.00000000000E+00 -0.00000000000E+00 -0.74505805969E-08  0.93827000000E+00  0.93827000000E+00 0. -1.
     999902    2    1    2    0    0 -0.21180689918E-01  0.28056031965E-02 -0.92857330545E-02  0.10206336940E+01  0.10203677864E+01 0.  0.
     999903    2    3    3    0    0 -0.38583341315E-01  0.35856799467E-01 -0.12044328230E+00  0.13285487324E+00  0.19221050832E-01 0.  0.
         14    1    1    2    0    0  0.21180689918E-01 -0.28056031965E-02  0.92857330545E-02  0.23296305996E-01  0.00000000000E+00 0. -1.
     999901    1    3    3    0    0  0.17402651397E-01 -0.33051196271E-01  0.11115754925E+00  0.88777882077E+00  0.88000000000E+00 0.  1.
        -11    1    4    4    0    0 -0.18236366695E-01  0.84976883583E-02 -0.62072720901E-01  0.65253808921E-01  0.51100000000E-03 0. -1.
         11    1    4    4    0    0 -0.20346974620E-01  0.27359111109E-01 -0.58370561403E-01  0.67601064314E-01  0.51100000000E-03 0.  1.
</event>
<event>
 8    1  0.1126414E+005  0.1043930E+01  0.7957747E-01            NaN
         13   -1    0    0    0    0  0.00000000000E+00  0.00000000000E+00  0.74505805969E-08  0.10566000000E+00  0.10566000000E+00 0.  1.
     999900   -1    0    0    0    0 -0.00000000000E+00 -0.00000000000E+00 -0.74505805969E-08  0.93827000000E+00  0.93827000000E+00 0. -1.
     999902    2    1    2    0    0 -0.12913950862E-01  0.18427975265E-01 -0.92589054692E-02  0.10195971471E+01  0.10193067520E+01 0.  0.
     999903    2    3    3    0    0  0.38123171770E-01 -0.11836639536E+00  0.17534447348E-01  0.12716486874E+00  0.19986676103E-01 0.  0.
         14    1    1    2    0    0  0.12913950862E-01 -0.18427975265E-01  0.92589054692E-02  0.24332852889E-01  0.00000000000E+00 0.  1.
     999901    1    3    3    0    0 -0.51037122632E-01  0.13679437063E+00 -0.26793352817E-01  0.89243227837E+00  0.88000000000E+00 0.  1.
        -11    1    4    4    0    0  0.19960345897E-01 -0.89823638194E-01  0.15045067392E-01  0.93237956652E-01  0.51100000000E-03 0. -1.
         11    1    4    4    0    0  0.18162825873E-01 -0.28542757167E-01  0.24893799556E-02  0.33926912090E-01  0.51100000000E-03 0.  1.
</event>
<event>
 8    1  0.1126414E+005  0.1043930E+01  0.7957747E-01            NaN
         13   -1    0    0    0    0  0.00000000000E+00  0.00000000000E+00  0.74505805969E-08  0.10566000000E+00  0.10566000000E+00 0. -1.
     999900   -1    0    0    0    0 -0.00000000000E+00 -0.00000000000E+00 -0.74505805969E-08  0.93827000000E+00  0.93827000000E+00 0.  1.
     999902    2    1    2    0    0 -0.18736027960E-01 -0.11569644024E-01 -0.65481261569E-02  0.10209566815E+01  0.10206981788E+01 0.  0.
     999903    2    3    3    0    0  0.97440984844E-01 -0.14524905689E-01  0.80248505999E-01  0.12908253835E+00  0.22732368528E-01 0.  0.
         14    1    1    2    0    0  0.18736027960E-01  0.11569644024E-01  0.65481261569E-02  0.22973318496E-01  0.00000000000E+00 0.  1.
     999901    1    3    3    0    0 -0.11617701280E+00  0.29552616642E-02 -0.86796632155E-01  0.89187414316E+00  0.88000000000E+00 0.  1.
        -11    1    4    4    0    0  0.24861137222E-01 -0.95711626473E-02  0.32659253064E-01  0.42149391811E-01  0.51100000000E-03 0. -1.
         11    1    4    4    0    0  0.72579847622E-01 -0.49537430414E-02  0.47589252935E-01  0.86933146537E-01  0.51100000000E-03 0.  1.
</event>
<event>
 8    1  0.1126414E+005  0.1043930E+01  0.7957747E-01            NaN
         13   -1    0    0    0    0  0.00000000000E+00  0.00000000000E+00  0.74505805969E-08  0.10566000000E+00  0.10566000000E+00 0. -1.
     999900   -1    0    0    0    0 -0.00000000000E+00 -0.00000000000E+00 -0.74505805969E-08  0.93827000000E+00  0.93827000000E+00 0. -1.
     999902    2    1    2    0    0  0.14725840396E-01  0.89036272522E-02  0.16949048251E-01  0.10197764249E+01  0.10194903440E+01 0.  0.
     999903    2    3    3    0    0  0.21257542354E-01  0.12480222139E+00 -0.27397863366E-01  0.13104598443E+00  0.19872834394E-01 0.  0.
         14    1    1    2    0    0 -0.14725840396E-01 -0.89036272522E-02 -0.16949048251E-01  0.24153575102E-01  0.00000000000E+00 0. -1.
     999901    1    3    3    0    0 -0.65317019583E-02 -0.11589859413E+00  0.44346911617E-01  0.88873044047E+00  0.88000000000E+00 0. -1.
        -11    1    4    4    0    0  0.18765488652E-01  0.83855807166E-01 -0.10099617054E-01  0.86522848690E-01  0.51100000000E-03 0.  1.
         11    1    4    4    0    0  0.24920537023E-02  0.40946414221E-01 -0.17298246312E-01  0.44523135735E-01  0.51100000000E-03 0. -1.
</event>
<event>
 8    1  0.1126414E+005  0.1043930E+01  0.7957747E-01            NaN
         13   -1    0    0    0    0  0.00000000000E+00  0.00000000000E+00  0.74505805969E-08  0.10566000000E+00  0.10566000000E+00 0. -1.
     999900   -1    0    0    0    0 -0.00000000000E+00 -0.00000000000E+00 -0.74505805969E-08  0.93827000000E+00  0.93827000000E+00 0. -1.
     999902    2    1    2    0    0 -0.12184248494E-01 -0.31842105113E-02 -0.20634106668E-01  0.10197564304E+01  0.10194698700E+01 0.  0.
     999903    2    3    3    0    0 -0.36973978018E-01  0.10947374751E+00 -0.59515710011E-01  0.13137693647E+00  0.19136437883E-01 0.  0.
         14    1    1    2    0    0  0.12184248494E-01  0.31842105113E-02  0.20634106668E-01  0.24173569573E-01  0.00000000000E+00 0. -1.
     999901    1    3    3    0    0  0.24789729524E-01 -0.11265795802E+00  0.38881603344E-01  0.88837949395E+00  0.88000000000E+00 0. -1.
        -11    1    4    4    0    0 -0.27058394262E-01  0.80773702181E-01 -0.52963427022E-01  0.10030918895E+00  0.51100000000E-03 0. -1.
         11    1    4    4    0    0 -0.99155837561E-02  0.28700045329E-01 -0.65522829893E-02  0.31067747529E-01  0.51100000000E-03 0.  1.
</event>
<event>
 8    1  0.1126414E+005  0.1043930E+01  0.7957747E-01            NaN
         13   -1    0    0    0    0  0.00000000000E+00  0.00000000000E+00  0.74505805969E-08  0.10566000000E+00  0.10566000000E+00 0. -1.
     999900   -1    0    0    0    0 -0.00000000000E+00 -0.00000000000E+00 -0.74505805969E-08  0.93827000000E+00  0.93827000000E+00 0.  1.
     999902    2    1    2    0    0  0.10901267323E-01 -0.19812050456E-01  0.12091215156E-01  0.10182872143E+01  0.10179642913E+01 0.  0.
     999903    2    3    3    0    0  0.48204496043E-01 -0.36459874313E-01  0.11493353311E+00  0.13135698976E+00  0.19797622370E-01 0.  0.
         14    1    1    2    0    0 -0.10901267323E-01  0.19812050456E-01 -0.12091215156E-01  0.25642785661E-01  0.00000000000E+00 0.  1.
     999901    1    3    3    0    0 -0.37303228720E-01  0.16647823858E-01 -0.10284231795E+00  0.88693022458E+00  0.88000000000E+00 0.  1.
        -11    1    4    4    0    0  0.28300879951E-01 -0.22354709251E-01  0.47482149200E-01  0.59627916661E-01  0.51100000000E-03 0. -1.
         11    1    4    4    0    0  0.19903616092E-01 -0.14105165062E-01  0.67451383911E-01  0.71729073098E-01  0.51100000000E-03 0.  1.
</event>
<event>
 8    1  0.1126414E+005  0.1043930E+01  0.7957747E-01            NaN
         13   -1    0    0    0    0  0.00000000000E+00  0.00000000000E+00  0.74505805969E-08  0.10566000000E+00  0.10566000000E+00 0. -1.
     999900   -1    0    0    0    0 -0.00000000000E+00 -0.00000000000E+00 -0.74505805969E-08  0.93827000000E+00  0.93827000000E+00 0.  1.
     999902    2    1    2    0    0 -0.10593242653E-01  0.59375033263E-03 -0.20681217622E-01  0.10206860311E+01  0.10204213306E+01 0.  0.
     999903    2    3    3    0    0  0.58306214304E-01  0.13511821684E-01 -0.11664964457E+00  0.13269732016E+00  0.20475723368E-01 0.  0.
         14    1    1    2    0    0  0.10593242653E-01 -0.59375033263E-03  0.20681217622E-01  0.23243968932E-01  0.00000000000E+00 0. -1.
     999901    1    3    3    0    0 -0.68899456956E-01 -0.12918071352E-01  0.95968426945E-01  0.88798871091E+00  0.88000000000E+00 0. -1.
        -11    1    4    4    0    0  0.42712212794E-01  0.18348097518E-01 -0.79125379042E-01  0.91771850444E-01  0.51100000000E-03 0. -1.
         11    1    4    4    0    0  0.15594001509E-01 -0.48362758341E-02 -0.37524265525E-01  0.40925469713E-01  0.51100000000E-03 0.  1.
</event>
<event>
 8    1  0.1126414E+005  0.1043930E+01  0.7957747E-01            NaN
         13   -1    0    0    0    0  0.00000000000E+00  0.00000000000E+00  0.74505805969E-08  0.10566000000E+00  0.10566000000E+00 0. -1.
     999900   -1    0    0    0    0 -0.00000000000E+00 -0.00000000000E+00 -0.74505805969E-08  0.93827000000E+00  0.93827000000E+00 0.  1.
     999902    2    1    2    0    0  0.22024469925E-01 -0.14442772594E-01  0.75685012765E-02  0.10165264753E+01  0.10161570360E+01 0.  0.
     999903    2    3    3    0    0 -0.67312681322E-01 -0.81926875642E-01  0.67591023087E-01  0.12740447359E+00  0.20502279626E-01 0.  0.
         14    1    1    2    0    0 -0.22024469925E-01  0.14442772594E-01 -0.75685012765E-02  0.27403524723E-01  0.00000000000E+00 0.  1.
     999901    1    3    3    0    0  0.89337151247E-01  0.67484103048E-01 -0.60022521810E-01  0.88912200169E+00  0.88000000000E+00 0. -1.
        -11    1    4    4    0    0 -0.54880507046E-01 -0.63538964293E-01  0.62384584910E-01  0.10460003629E+00  0.51100000000E-03 0. -1.
         11    1    4    4    0    0 -0.12432174276E-01 -0.18387911349E-01  0.52064381773E-02  0.22804437298E-01  0.51100000000E-03 0.  1.
</event>
<event>
 8    1  0.1126414E+005  0.1043930E+01  0.7957747E-01            NaN
         13   -1    0    0    0    0  0.00000000000E+00  0.00000000000E+00  0.74505805969E-08  0.10566000000E+00  0.10566000000E+00 0. -1.
     999900   -1    0    0    0    0 -0.00000000000E+00 -0.00000000000E+00 -0.74505805969E-08  0.93827000000E+00  0.93827000000E+00 0. -1.
     999902    2    1    2    0    0  0.63116986333E-02 -0.18661974932E-01 -0.13147736049E-01  0.10202451987E+01  0.10199702426E+01 0.  0.
     999903    2    3    3    0    0  0.11919671656E+00  0.62484124019E-02 -0.52177973458E-01  0.13182698972E+00  0.20221632176E-01 0.  0.
         14    1    1    2    0    0 -0.63116986333E-02  0.18661974932E-01  0.13147736049E-01  0.23684801270E-01  0.00000000000E+00 0. -1.
     999901    1    3    3    0    0 -0.11288501793E+00 -0.24910387334E-01  0.39030237410E-01  0.88841820901E+00  0.88000000000E+00 0.  1.
        -11    1    4    4    0    0  0.52829100213E-01 -0.70620725904E-02 -0.25192308821E-01  0.58955069700E-01  0.51100000000E-03 0. -1.
         11    1    4    4    0    0  0.66367616348E-01  0.13310484992E-01 -0.26985664637E-01  0.72871920019E-01  0.51100000000E-03 0.  1.
</event>
<event>
 8    1  0.1126414E+005  0.1043930E+01  0.7957747E-01            NaN
         13   -1    0    0    0    0  0.00000000000E+00  0.00000000000E+00  0.74505805969E-08  0.10566000000E+00  0.10566000000E+00 0.  1.
     999900   -1    0    0    0    0 -0.00000000000E+00 -0.00000000000E+00 -0.74505805969E-08  0.93827000000E+00  0.93827000000E+00 0.  1.
     999902    2    1    2    0    0  0.20981069985E-01 -0.71038756875E-03 -0.11044917757E-01  0.10202086983E+01  0.10199328840E+01 0.  0.
     999903    2    3    3    0    0 -0.70041486018E-01 -0.10662162342E+00 -0.48763812132E-02  0.12917539561E+00  0.19710996734E-01 0.  0.
         14    1    1    2    0    0 -0.20981069985E-01  0.71038756875E-03  0.11044917757E-01  0.23721301745E-01  0.00000000000E+00 0. -1.
     999901    1    3    3    0    0  0.91022556002E-01  0.10591123585E+00 -0.61685365440E-02  0.89103330265E+00  0.88000000000E+00 0. -1.
        -11    1    4    4    0    0 -0.13439545075E-01 -0.20011617293E-01 -0.87144571071E-02  0.25637649701E-01  0.51100000000E-03 0. -1.
         11    1    4    4    0    0 -0.56601940943E-01 -0.86610006130E-01  0.38380758939E-02  0.10353774591E+00  0.51100000000E-03 0.  1.
</event>
<event>
 8    1  0.1126414E+005  0.1043930E+01  0.7957747E-01            NaN
         13   -1    0    0    0    0  0.00000000000E+00  0.00000000000E+00  0.74505805969E-08  0.10566000000E+00  0.10566000000E+00 0. -1.
     999900   -1    0    0    0    0 -0.00000000000E+00 -0.00000000000E+00 -0.74505805969E-08  0.93827000000E+00  0.93827000000E+00 0. -1.
     999902    2    1    2    0    0  0.94197046697E-02  0.86036602134E-02  0.19990847312E-01  0.10202152834E+01  0.10199396241E+01 0.  0.
     999903    2    3    3    0    0  0.95149367855E-01 -0.82186292050E-01 -0.27235354222E-01  0.13014635089E+00  0.19705819612E-01 0.  0.
         14    1    1    2    0    0 -0.94197046697E-02 -0.86036602134E-02 -0.19990847312E-01  0.23714716557E-01  0.00000000000E+00 0.  1.
     999901    1    3    3    0    0 -0.85729663185E-01  0.90789952263E-01  0.47226201535E-01  0.89006893255E+00  0.88000000000E+00 0.  1.
        -11    1    4    4    0    0  0.78854824127E-01 -0.57748871473E-01 -0.18281185236E-01  0.99435799886E-01  0.51100000000E-03 0. -1.
         11    1    4    4    0    0  0.16294543728E-01 -0.24437420577E-01 -0.89541689869E-02  0.30710551005E-01  0.51100000000E-03 0.  1.
</event>
<event>
 8    1  0.1126414E+005  0.1043930E+01  0.7957747E-01            NaN
         13   -1    0    0    0    0  0.00000000000E+00  0.00000000000E+00  0.74505805969E-08  0.10566000000E+00  0.10566000000E+00 0.  1.
     999900   -1    0    0    0    0 -0.00000000000E+00 -0.00000000000E+00 -0.74505805969E-08  0.93827000000E+00  0.93827000000E+00 0. -1.
     999902    2    1    2    0    0 -0.19378106057E-01 -0.13139065683E-01 -0.18481627884E-02  0.10204446482E+01  0.10201743569E+01 0.  0.
     999903    2    3    3    0    0 -0.92259969936E-01 -0.27330216633E-01  0.89281320578E-01  0.13262837356E+00  0.18981266464E-01 0.  0.
         14    1    1    2    0    0  0.19378106057E-01  0.13139065683E-01  0.18481627884E-02  0.23485351755E-01  0.00000000000E+00 0.  1.
     999901    1    3    3    0    0  0.72881863878E-01  0.14191150950E-01 -0.91129483366E-01  0.88781627468E+00  0.88000000000E+00 0. -1.
        -11    1    4    4    0    0 -0.55914738981E-01 -0.15955183761E-01  0.41081742517E-01  0.71196886262E-01  0.51100000000E-03 0. -1.
         11    1    4    4    0    0 -0.36345230955E-01 -0.11375032872E-01  0.48199578061E-01  0.61431487303E-01  0.51100000000E-03 0.  1.
</event>
<event>
 8    1  0.1126414E+005  0.1043930E+01  0.7957747E-01            NaN
         13   -1    0    0    0    0  0.00000000000E+00  0.00000000000E+00  0.74505805969E-08  0.10566000000E+00  0.10566000000E+00 0. -1.
     999900   -1    0    0    0    0 -0.00000000000E+00 -0.00000000000E+00 -0.74505805969E-08  0.93827000000E+00  0.93827000000E+00 0. -1.
     999902    2    1    2    0    0  0.13250068015E-02 -0.15205720714E-01 -0.17828724804E-01  0.10204601680E+01  0.10201902379E+01 0.  0.
     999903    2    3    3    0    0  0.59835857737E-01 -0.47627542693E-01 -0.10745644617E+00  0.13338191743E+00  0.19878012446E-01 0.  0.
         14    1    1    2    0    0 -0.13250068015E-02  0.15205720714E-01  0.17828724804E-01  0.23469831989E-01  0.00000000000E+00 0. -1.
     999901    1    3    3    0    0 -0.58510850935E-01  0.32421821979E-01  0.89627721370E-01  0.88707825058E+00  0.88000000000E+00 0.  1.
        -11    1    4    4    0    0  0.11489658199E-01 -0.29708660353E-02 -0.87865587246E-02  0.14775081243E-01  0.51100000000E-03 0.  1.
         11    1    4    4    0    0  0.48346199538E-01 -0.44656676658E-01 -0.98669887449E-01  0.11860683619E+00  0.51100000000E-03 0. -1.
</event>
<event>
 8    1  0.1126414E+005  0.1043930E+01  0.7957747E-01            NaN
         13   -1    0    0    0    0  0.00000000000E+00  0.00000000000E+00  0.74505805969E-08  0.10566000000E+00  0.10566000000E+00 0. -1.
     999900   -1    0    0    0    0 -0.00000000000E+00 -0.00000000000E+00 -0.74505805969E-08  0.93827000000E+00  0.93827000000E+00 0. -1.
     999902    2    1    2    0    0  0.56668264493E-03  0.16361634065E-01  0.16288928092E-01  0.10208355553E+01  0.10205742881E+01 0.  0.
     999903    2    3    3    0    0 -0.10839521016E+00  0.51013886257E-01 -0.49035769129E-01  0.13103738225E+00  0.20355606476E-01 0.  0.
         14    1    1    2    0    0 -0.56668264493E-03 -0.16361634065E-01 -0.16288928092E-01  0.23094444718E-01  0.00000000000E+00 0.  1.
     999901    1    3    3    0    0  0.10896189281E+00 -0.34652252193E-01  0.65324697221E-01  0.88979817303E+00  0.88000000000E+00 0.  1.
        -11    1    4    4    0    0 -0.40231139592E-01  0.28372824692E-01 -0.14400710606E-01  0.51295256709E-01  0.51100000000E-03 0. -1.
         11    1    4    4    0    0 -0.68164070571E-01  0.22641061566E-01 -0.34635058523E-01  0.79742125539E-01  0.51100000000E-03 0.  1.
</event>
<event>
 8    1  0.1126414E+005  0.1043930E+01  0.7957747E-01            NaN
         13   -1    0    0    0    0  0.00000000000E+00  0.00000000000E+00  0.74505805969E-08  0.10566000000E+00  0.10566000000E+00 0. -1.
     999900   -1    0    0    0    0 -0.00000000000E+00 -0.00000000000E+00 -0.74505805969E-08  0.93827000000E+00  0.93827000000E+00 0. -1.
     999902    2    1    2    0    0  0.48543603941E-02  0.58911429749E-02  0.22490519126E-01  0.10201793404E+01  0.10199028350E+01 0.  0.
     999903    2    3    3    0    0  0.93819956055E-02  0.12820365808E+00  0.21171513823E-01  0.13170728648E+00  0.19348812067E-01 0.  0.
         14    1    1    2    0    0 -0.48543603941E-02 -0.58911429749E-02 -0.22490519126E-01  0.23750659590E-01  0.00000000000E+00 0.  1.
     999901    1    3    3    0    0 -0.45276352114E-02 -0.12231251511E+00  0.13190053035E-02  0.88847205393E+00  0.88000000000E+00 0.  1.
        -11    1    4    4    0    0  0.12552602454E-01  0.48144503432E-01  0.54299030343E-02  0.50052032996E-01  0.51100000000E-03 0. -1.
         11    1    4    4    0    0 -0.31706068480E-02  0.80059154650E-01  0.15741610788E-01  0.81655253488E-01  0.51100000000E-03 0.  1.
</event>
<event>
 8    1  0.1126414E+005  0.1043930E+01  0.7957747E-01            NaN
         13   -1    0    0    0    0  0.00000000000E+00  0.00000000000E+00  0.74505805969E-08  0.10566000000E+00  0.10566000000E+00 0. -1.
     999900   -1    0    0    0    0 -0.00000000000E+00 -0.00000000000E+00 -0.74505805969E-08  0.93827000000E+00  0.93827000000E+00 0. -1.
     999902    2    1    2    0    0 -0.12036984217E-01 -0.26266719370E-01 -0.76405008718E-02  0.10140434346E+01  0.10136029205E+01 0.  0.
     999903    2    3    3    0    0 -0.20627953797E-01  0.11158384065E+00  0.39635245612E-01  0.12201676583E+00  0.20992200405E-01 0.  0.
         14    1    1    2    0    0  0.12036984217E-01  0.26266719370E-01  0.76405008718E-02  0.29886565361E-01  0.00000000000E+00 0. -1.
     999901    1    3    3    0    0  0.85909695801E-02 -0.13785056002E+00 -0.47275746484E-01  0.89202666881E+00  0.88000000000E+00 0.  1.
        -11    1    4    4    0    0 -0.13990624566E-01  0.75666115414E-01  0.16262863824E-01  0.78650114166E-01  0.51100000000E-03 0.  1.
         11    1    4    4    0    0 -0.66373292307E-02  0.35917725235E-01  0.23372381787E-01  0.43366651667E-01  0.51100000000E-03 0. -1.
</event>
<event>
 8    1  0.1399025E+005  0.1043930E+01  0.7957747E-01            NaN
         13   -1    0    0    0    0  0.00000000000E+00  0.00000000000E+00  0.74505805969E-08  0.10566000000E+00  0.10566000000E+00 0. -1.
     999900   -1    0    0    0    0 -0.00000000000E+00 -0.00000000000E+00 -0.74505805969E-08  0.93827000000E+00  0.93827000000E+00 0. -1.
     999902    2    1    2    0    0  0.11617732594E-01  0.20340625942E-01  0.80885303992E-02  0.10191482103E+01  0.10188468666E+01 0.  0.
     999903    2    3    3    0    0 -0.31059945262E-01  0.18852768979E-01 -0.12181493135E+00  0.12858742787E+00  0.19383034058E-01 0.  0.
         14    1    1    2    0    0 -0.11617732594E-01 -0.20340625942E-01 -0.80885303992E-02  0.24781789652E-01  0.00000000000E+00 0.  1.
     999901    1    3    3    0    0  0.42677677855E-01  0.14878569627E-02  0.12990346175E+00  0.89056078247E+00  0.88000000000E+00 0.  1.
        -11    1    4    4    0    0 -0.11496267681E-01  0.17465635222E-01 -0.74127138470E-01  0.77021466898E-01  0.51100000000E-03 0. -1.
         11    1    4    4    0    0 -0.19563677580E-01  0.13871337567E-02 -0.47687792882E-01  0.51565960977E-01  0.51100000000E-03 0.  1.
</event>
<event>
 8    1  0.1126414E+005  0.1043930E+01  0.7957747E-01            NaN
         13   -1    0    0    0    0  0.00000000000E+00  0.00000000000E+00  0.74505805969E-08  0.10566000000E+00  0.10566000000E+00 0.  1.
     999900   -1    0    0    0    0 -0.00000000000E+00 -0.00000000000E+00 -0.74505805969E-08  0.93827000000E+00  0.93827000000E+00 0.  1.
     999902    2    1    2    0    0  0.17664482797E-01  0.11574360790E-01 -0.11322645491E-01  0.10199674859E+01  0.10196859665E+01 0.  0.
     999903    2    3    3    0    0 -0.88051740871E-01 -0.66694971310E-01 -0.62599788187E-01  0.12871479804E+00  0.21152718126E-01 0.  0.
         14    1    1    2    0    0 -0.17664482797E-01 -0.11574360790E-01  0.11322645491E-01  0.23962514081E-01  0.00000000000E+00 0. -1.
     999901    1    3    3    0    0  0.10571622367E+00  0.78269332099E-01  0.51277142697E-01  0.89125268788E+00  0.88000000000E+00 0. -1.
        -11    1    4    4    0    0 -0.32540825648E-01 -0.15409769644E-01 -0.27899526693E-01  0.45552289131E-01  0.51100000000E-03 0.  1.
         11    1    4    4    0    0 -0.55510915223E-01 -0.51285201666E-01 -0.34700261494E-01  0.83162508906E-01  0.51100000000E-03 0. -1.
</event>
<event>
 8    1  0.1126414E+005  0.1043930E+01  0.7957747E-01            NaN
         13   -1    0    0    0    0  0.00000000000E+00  0.00000000000E+00  0.74505805969E-08  0.10566000000E+00  0.10566000000E+00 0. -1.
     999900   -1    0    0    0    0 -0.00000000000E+00 -0.00000000000E+00 -0.74505805969E-08  0.93827000000E+00  0.93827000000E+00 0. -1.
     999902    2    1    2    0    0 -0.53238887811E-02  0.13029378139E-01  0.18252562648E-01  0.10208808237E+01  0.10206205914E+01 0.  0.
     999903    2    3    3    0    0 -0.33620726948E-02  0.30326016612E-01  0.12854240037E+00  0.13382565586E+00  0.21335103848E-01 0.  0.
         14    1    1    2    0    0  0.53238887811E-02 -0.13029378139E-01 -0.18252562648E-01  0.23049176334E-01  0.00000000000E+00 0.  1.
     999901    1    3    3    0    0 -0.19618160863E-02 -0.17296638473E-01 -0.11028983773E+00  0.88705516781E+00  0.88000000000E+00 0. -1.
        -11    1    4    4    0    0  0.54630722119E-02  0.21300432228E-01  0.10308867578E+00  0.10540915409E+00  0.51100000000E-03 0.  1.
         11    1    4    4    0    0 -0.88251449068E-02  0.90255843846E-02  0.25453724592E-01  0.28416501768E-01  0.51100000000E-03 0. -1.
</event>
<event>
 8    1  0.1126414E+005  0.1043930E+01  0.7957747E-01            NaN
         13   -1    0    0    0    0  0.00000000000E+00  0.00000000000E+00  0.74505805969E-08  0.10566000000E+00  0.10566000000E+00 0.  1.
     999900   -1    0    0    0    0 -0.00000000000E+00 -0.00000000000E+00 -0.74505805969E-08  0.93827000000E+00  0.93827000000E+00 0.  1.
     999902    2    1    2    0    0 -0.36137704722E-02  0.11218201557E-01  0.20938609471E-01  0.10199022504E+01  0.10196191778E+01 0.  0.
     999903    2    3    3    0    0 -0.10355833121E+00  0.17024144992E-01 -0.72916435139E-01  0.12926686285E+00  0.19467045039E-01 0.  0.
         14    1    1    2    0    0  0.36137704722E-02 -0.11218201557E-01 -0.20938609471E-01  0.24027749578E-01  0.00000000000E+00 0. -1.
     999901    1    3    3    0    0  0.99944560733E-01 -0.58059434357E-02  0.93855044610E-01  0.89063538757E+00  0.88000000000E+00 0. -1.
        -11    1    4    4    0    0 -0.31451221936E-01  0.14331695933E-01 -0.22677482593E-01  0.41341337755E-01  0.51100000000E-03 0.  1.
         11    1    4    4    0    0 -0.72107109269E-01  0.26924490592E-02 -0.50238952546E-01  0.87925525094E-01  0.51100000000E-03 0. -1.
</event>
<event>
 8    1  0.1126414E+005  0.1043930E+01  0.7957747E-01            NaN
         13   -1    0    0    0    0  0.00000000000E+00  0.00000000000E+00  0.74505805969E-08  0.10566000000E+00  0.10566000000E+00 0.  1.
     999900   -1    0    0    0    0 -0.00000000000E+00 -0.00000000000E+00 -0.74505805969E-08  0.93827000000E+00  0.93827000000E+00 0. -1.
     999902    2    1    2    0    0 -0.96123625372E-02 -0.13474506075E-01  0.17099242757E-01  0.10201320184E+01  0.10198543969E+01 0.  0.
     999903    2    3    3    0    0  0.74581952947E-01 -0.24154104762E-01 -0.97992385481E-01  0.12858907521E+00  0.28049138454E-01 0.  0.
         14    1    1    2    0    0  0.96123625372E-02  0.13474506075E-01 -0.17099242757E-01  0.23797981645E-01  0.00000000000E+00 0.  1.
     999901    1    3    3    0    0 -0.84194315484E-01  0.10679598687E-01  0.11509162824E+00  0.89154294315E+00  0.88000000000E+00 0.  1.
        -11    1    4    4    0    0  0.37869716509E-01 -0.17139804731E-01 -0.30939058930E-01  0.51820602304E-01  0.51100000000E-03 0. -1.
         11    1    4    4    0    0  0.36712236438E-01 -0.70143000304E-02 -0.67053326551E-01  0.76768472902E-01  0.51100000000E-03 0.  1.
</event>
<event>
 8    1  0.1297536E+005  0.1043930E+01  0.7957747E-01            NaN
         13   -1    0    0    0    0  0.00000000000E+00  0.00000000000E+00  0.74505805969E-08  0.10566000000E+00  0.10566000000E+00 0. -1.
     999900   -1    0    0    0    0 -0.00000000000E+00 -0.00000000000E+00 -0.74505805969E-08  0.93827000000E+00  0.93827000000E+00 0. -1.
     999902    2    1    2    0    0 -0.13842878496E-01  0.13776461399E-01 -0.16640687398E-01  0.10182720841E+01  0.10179487750E+01 0.  0.
     999903    2    3    3    0    0 -0.37037985975E-01  0.10606651177E+00 -0.66055450275E-01  0.13176360400E+00  0.19401224331E-01 0.  0.
         14    1    1    2    0    0  0.13842878496E-01 -0.13776461399E-01  0.16640687398E-01  0.25657915948E-01  0.00000000000E+00 0.  1.
     999901    1    3    3    0    0  0.23195107479E-01 -0.92290050367E-01  0.49414762877E-01  0.88650848005E+00  0.88000000000E+00 0.  1.
        -11    1    4    4    0    0 -0.32054493807E-01  0.67391523940E-01 -0.38183299774E-01  0.83829192856E-01  0.51100000000E-03 0. -1.
         11    1    4    4    0    0 -0.49834921686E-02  0.38674987826E-01 -0.27872150500E-01  0.47934411147E-01  0.51100000000E-03 0.  1.
</event>
<event>
 8    1  0.1126414E+005  0.1043930E+01  0.7957747E-01            NaN
         13   -1    0    0    0    0  0.00000000000E+00  0.00000000000E+00  0.74505805969E-08  0.10566000000E+00  0.10566000000E+00 0. -1.
     999900   -1    0    0    0    0 -0.00000000000E+00 -0.00000000000E+00 -0.74505805969E-08  0.93827000000E+00  0.93827000000E+00 0.  1.
     999902    2    1    2    0    0  0.64009671787E-02  0.97410440304E-03 -0.20050357086E-01  0.10228601619E+01  0.10226431306E+01 0.  0.
     999903    2    3    3    0    0  0.10682388293E+00 -0.35001108344E-01  0.63985667707E-01  0.13244394940E+00  0.28474804833E-01 0.  0.
         14    1    1    2    0    0 -0.64009671787E-02 -0.97410440304E-03  0.20050357086E-01  0.21069838146E-01  0.00000000000E+00 0. -1.
     999901    1    3    3    0    0 -0.10042291575E+00  0.35975212747E-01 -0.84036024793E-01  0.89041621246E+00  0.88000000000E+00 0. -1.
        -11    1    4    4    0    0  0.17181270893E-01 -0.11626372255E-01  0.23475552060E-01  0.31332591129E-01  0.51100000000E-03 0. -1.
         11    1    4    4    0    0  0.89642612039E-01 -0.23374736089E-01  0.40510115647E-01  0.10111135827E+00  0.51100000000E-03 0.  1.
</event>
<event>
 8    1  0.1126414E+005  0.1043930E+01  0.7957747E-01            NaN
         13   -1    0    0    0    0  0.00000000000E+00  0.00000000000E+00  0.74505805969E-08  0.10566000000E+00  0.10566000000E+00 0.  1.
     999900   -1    0    0    0    0 -0.00000000000E+00 -0.00000000000E+00 -0.74505805969E-08  0.93827000000E+00  0.93827000000E+00 0. -1.
     999902    2    1    2    0    0  0.18243732301E-01 -0.15010500557E-02 -0.13742952946E-01  0.10210399219E+01  0.10207833102E+01 0.  0.
     999903    2    3    3    0    0  0.81537815965E-01  0.31124657856E-02  0.10065399493E+00  0.13136914727E+00  0.21645398642E-01 0.  0.
         14    1    1    2    0    0 -0.18243732301E-01  0.15010500557E-02  0.13742952946E-01  0.22890078096E-01  0.00000000000E+00 0.  1.
     999901    1    3    3    0    0 -0.63294083664E-01 -0.46135158414E-02 -0.11439694788E+00  0.88967077464E+00  0.88000000000E+00 0. -1.
        -11    1    4    4    0    0  0.68415960008E-01  0.33131584114E-02  0.69604843213E-01  0.97656622520E-01  0.51100000000E-03 0. -1.
         11    1    4    4    0    0  0.13121855957E-01 -0.20069262574E-03  0.31049151722E-01  0.33712524749E-01  0.51100000000E-03 0.  1.
</event>
<event>
 8    1  0.1126414E+005  0.1043930E+01  0.7957747E-01            NaN
         13   -1    0    0    0    0  0.00000000000E+00  0.00000000000E+00  0.74505805969E-08  0.10566000000E+00  0.10566000000E+00 0. -1.
     999900   -1    0    0    0    0 -0.00000000000E+00 -0.00000000000E+00 -0.74505805969E-08  0.93827000000E+00  0.93827000000E+00 0.  1.
     999902    2    1    2    0    0 -0.16666268094E-01  0.40163513535E-02 -0.17244408462E-01  0.10196140547E+01  0.10193240679E+01 0.  0.
     999903    2    3    3    0    0 -0.51885105517E-01 -0.11571113642E+00  0.20475755064E-01  0.13000860930E+00  0.20046213603E-01 0.  0.
         14    1    1    2    0    0  0.16666268094E-01 -0.40163513535E-02  0.17244408462E-01  0.24315945254E-01  0.00000000000E+00 0. -1.
     999901    1    3    3    0    0  0.35218837423E-01  0.11972748777E+00 -0.37720163526E-01  0.88960544545E+00  0.88000000000E+00 0. -1.
        -11    1    4    4    0    0 -0.27664024475E-01 -0.84239408524E-01  0.13753356990E-01  0.89727321080E-01  0.51100000000E-03 0.  1.
         11    1    4    4    0    0 -0.24221081041E-01 -0.31471727895E-01  0.67223980741E-02  0.40281288216E-01  0.51100000000E-03 0. -1.
</event>
<event>
 8    1  0.1126414E+005  0.1043930E+01  0.7957747E-01            NaN
         13   -1    0    0    0    0  0.00000000000E+00  0.00000000000E+00  0.74505805969E-08  0.10566000000E+00  0.10566000000E+00 0.  1.
     999900   -1    0    0    0    0 -0.00000000000E+00 -0.00000000000E+00 -0.74505805969E-08  0.93827000000E+00  0.93827000000E+00 0. -1.
     999902    2    1    2    0    0  0.21676818642E-01 -0.32778853212E-02 -0.83605978936E-02  0.10204666542E+01  0.10201968750E+01 0.  0.
     999903    2    3    3    0    0  0.10998505596E+00  0.50012687959E-01 -0.54123083566E-01  0.13326181029E+00  0.15212508480E-01 0.  0.
         14    1    1    2    0    0 -0.21676818642E-01  0.32778853212E-02  0.83605978936E-02  0.23463345792E-01  0.00000000000E+00 0.  1.
     999901    1    3    3    0    0 -0.88308237323E-01 -0.53290573280E-01  0.45762485672E-01  0.88720484392E+00  0.88000000000E+00 0.  1.
        -11    1    4    4    0    0  0.82494360054E-01  0.44340182683E-01 -0.40111684436E-01  0.10188512939E+00  0.51100000000E-03 0.  1.
         11    1    4    4    0    0  0.27490695911E-01  0.56725052757E-02 -0.14011399129E-01  0.31376680901E-01  0.51100000000E-03 0. -1.
</event>
<event>
 8    1  0.1126414E+005  0.1043930E+01  0.7957747E-01            NaN
         13   -1    0    0    0    0  0.00000000000E+00  0.00000000000E+00  0.74505805969E-08  0.10566000000E+00  0.10566000000E+00 0. -1.
     999900   -1    0    0    0    0 -0.00000000000E+00 -0.00000000000E+00 -0.74505805969E-08  0.93827000000E+00  0.93827000000E+00 0. -1.
     999902    2    1    2    0    0  0.69369096426E-02 -0.10295801653E-01  0.21618257152E-01  0.10190006340E+01  0.10186956458E+01 0.  0.
     999903    2    3    3    0    0  0.61907443317E-02 -0.12368639200E+00 -0.33938298418E-01  0.12998740934E+00  0.20205682548E-01 0.  0.
         14    1    1    2    0    0 -0.69369096426E-02  0.10295801653E-01 -0.21618257152E-01  0.24929366004E-01  0.00000000000E+00 0.  1.
     999901    1    3    3    0    0  0.74616531092E-03  0.11339059035E+00  0.55556555570E-01  0.88901322465E+00  0.88000000000E+00 0. -1.
        -11    1    4    4    0    0  0.10567075536E-01 -0.32988231263E-01 -0.80947227147E-02  0.35576286260E-01  0.51100000000E-03 0. -1.
         11    1    4    4    0    0 -0.43763312046E-02 -0.90698160736E-01 -0.25843575703E-01  0.94411123083E-01  0.51100000000E-03 0.  1.
</event>
<event>
 8    1  0.1126414E+005  0.1043930E+01  0.7957747E-01            NaN
         13   -1    0    0    0    0  0.00000000000E+00  0.00000000000E+00  0.74505805969E-08  0.10566000000E+00  0.10566000000E+00 0. -1.
     999900   -1    0    0    0    0 -0.00000000000E+00 -0.00000000000E+00 -0.74505805969E-08  0.93827000000E+00  0.93827000000E+00 0. -1.
     999902    2    1    2    0    0  0.87621155132E-02 -0.23978400558E-02  0.21853862502E-01  0.10202632383E+01  0.10199887057E+01 0.  0.
     999903    2    3    3    0    0  0.79270829033E-01  0.10012534934E+00  0.23958159389E-01  0.13150741627E+00  0.20279477739E-01 0.  0.
         14    1    1    2    0    0 -0.87621155132E-02  0.23978400558E-02 -0.21853862502E-01  0.23666761744E-01  0.00000000000E+00 0.  1.
     999901    1    3    3    0    0 -0.70508713520E-01 -0.10252318939E+00 -0.21042968863E-02  0.88875582198E+00  0.88000000000E+00 0.  1.
        -11    1    4    4    0    0  0.60882537651E-01  0.75793663999E-01  0.92937318534E-02  0.97662671815E-01  0.51100000000E-03 0. -1.
         11    1    4    4    0    0  0.18388291382E-01  0.24331685339E-01  0.14664427535E-01  0.33844744457E-01  0.51100000000E-03 0.  1.
</event>
<event>
 8    1  0.1126414E+005  0.1043930E+01  0.7957747E-01            NaN
         13   -1    0    0    0    0  0.00000000000E+00  0.00000000000E+00  0.74505805969E-08  0.10566000000E+00  0.10566000000E+00 0. -1.
     999900   -1    0    0    0    0 -0.00000000000E+00 -0.00000000000E+00 -0.74505805969E-08  0.93827000000E+00  0.93827000000E+00 0. -1.
     999902    2    1    2    0    0  0.47640716729E-02  0.17841764033E-01  0.15846045194E-01  0.10195964415E+01  0.10193060293E+01 0.  0.
     999903    2    3    3    0    0  0.10416988262E+00 -0.45924655594E-01  0.61055898685E-01  0.13055673348E+00  0.18889135950E-01 0.  0.
         14    1    1    2    0    0 -0.47640716729E-02 -0.17841764033E-01 -0.15846045194E-01  0.24333558536E-01  0.00000000000E+00 0. -1.
     999901    1    3    3    0    0 -0.99405810943E-01  0.63766419627E-01 -0.45209853492E-01  0.88903970798E+00  0.88000000000E+00 0. -1.
        -11    1    4    4    0    0  0.35931327270E-01 -0.20578228584E-01  0.31326984498E-01  0.51924607363E-01  0.51100000000E-03 0.  1.
         11    1    4    4    0    0  0.68238555346E-01 -0.25346427009E-01  0.29728914187E-01  0.78632126117E-01  0.51100000000E-03 0. -1.
</event>
<event>
 8    1  0.1126414E+005  0.1043930E+01  0.7957747E-01            NaN
         13   -1    0    0    0    0  0.00000000000E+00  0.00000000000E+00  0.74505805969E-08  0.10566000000E+00  0.10566000000E+00 0.  1.
     999900   -1    0    0    0    0 -0.00000000000E+00 -0.00000000000E+00 -0.74505805969E-08  0.93827000000E+00  0.93827000000E+00 0. -1.
     999902    2    1    2    0    0 -0.23161730399E-01 -0.71172374984E-02 -0.36425206866E-02  0.10194271679E+01  0.10191326517E+01 0.  0.
     999903    2    3    3    0    0  0.45602576292E-01  0.54557816338E-01 -0.10487563110E+00  0.12882036082E+00  0.23230089882E-01 0.  0.
         14    1    1    2    0    0  0.23161730399E-01  0.71172374984E-02  0.36425206866E-02  0.24502832115E-01  0.00000000000E+00 0.  1.
     999901    1    3    3    0    0 -0.68764306691E-01 -0.61675053836E-01  0.10123311041E+00  0.89060680706E+00  0.88000000000E+00 0.  1.
        -11    1    4    4    0    0  0.40227368821E-01  0.46091116390E-01 -0.72190824076E-01  0.94627735967E-01  0.51100000000E-03 0. -1.
         11    1    4    4    0    0  0.53752074702E-02  0.84666999470E-02 -0.32684807025E-01  0.34192624857E-01  0.51100000000E-03 0.  1.
</event>
<event>
 8    1  0.1126414E+005  0.1043930E+01  0.7957747E-01            NaN
         13   -1    0    0    0    0  0.00000000000E+00  0.00000000000E+00  0.74505805969E-08  0.10566000000E+00  0.10566000000E+00 0. -1.
     999900   -1    0    0    0    0 -0.00000000000E+00 -0.00000000000E+00 -0.74505805969E-08  0.93827000000E+00  0.93827000000E+00 0. -1.
     999902    2    1    2    0    0  0.19075461900E-02 -0.21046076866E-01 -0.13180528283E-01  0.10190241290E+01  0.10187197225E+01 0.  0.
     999903    2    3    3    0    0 -0.33842082620E-01 -0.11288872135E+00 -0.57290639846E-01  0.13242455240E+00  0.19102217164E-01 0.  0.
         14    1    1    2    0    0 -0.19075461900E-02  0.21046076866E-01  0.13180528283E-01  0.24905870989E-01  0.00000000000E+00 0.  1.
     999901    1    3    3    0    0  0.35749628810E-01  0.91842644482E-01  0.44110111564E-01  0.88659957661E+00  0.88000000000E+00 0.  1.
        -11    1    4    4    0    0 -0.32965089103E-01 -0.88700331309E-01 -0.50595536115E-01  0.10730617536E+00  0.51100000000E-03 0.  1.
         11    1    4    4    0    0 -0.87699351773E-03 -0.24188390039E-01 -0.66951037312E-02  0.25118377043E-01  0.51100000000E-03 0. -1.
</event>
<event>
 8    1  0.1126414E+005  0.1043930E+01  0.7957747E-01            NaN
         13   -1    0    0    0    0  0.00000000000E+00  0.00000000000E+00  0.74505805969E-08  0.10566000000E+00  0.10566000000E+00 0. -1.
     999900   -1    0    0    0    0 -0.00000000000E+00 -0.00000000000E+00 -0.74505805969E-08  0.93827000000E+00  0.93827000000E+00 0. -1.
     999902    2    1    2    0    0  0.15655178620E-01 -0.12066334163E-01 -0.80463977754E-02  0.10225892982E+01  0.10223665914E+01 0.  0.
     999903    2    3    3    0    0 -0.35283121960E-01  0.36391220511E-02  0.12463970392E+00  0.13104739034E+00  0.19499251743E-01 0.  0.
         14    1    1    2    0    0 -0.15655178620E-01  0.12066334163E-01  0.80463977754E-02  0.21340701837E-01  0.00000000000E+00 0. -1.
     999901    1    3    3    0    0  0.50938300579E-01 -0.15705456214E-01 -0.13268610169E+00  0.89154190782E+00  0.88000000000E+00 0. -1.
        -11    1    4    4    0    0 -0.16029905343E-01 -0.80485886781E-02  0.54406007458E-01  0.57288850692E-01  0.51100000000E-03 0.  1.
         11    1    4    4    0    0 -0.19253216616E-01  0.11687710729E-01  0.70233696457E-01  0.73758539649E-01  0.51100000000E-03 0. -1.
</event>
<event>
 8    1  0.1126414E+005  0.1043930E+01  0.7957747E-01            NaN
         13   -1    0    0    0    0  0.00000000000E+00  0.00000000000E+00  0.74505805969E-08  0.10566000000E+00  0.10566000000E+00 0.  1.
     999900   -1    0    0    0    0 -0.00000000000E+00 -0.00000000000E+00 -0.74505805969E-08  0.93827000000E+00  0.93827000000E+00 0.  1.
     999902    2    1    2    0    0  0.11050039734E-01  0.21073072935E-01  0.49579917803E-02  0.10196244561E+01  0.10193347203E+01 0.  0.
     999903    2    3    3    0    0 -0.31762450831E-01 -0.90826045898E-01  0.82083854750E-01  0.12816345255E+00  0.20733727642E-01 0.  0.
         14    1    1    2    0    0 -0.11050039734E-01 -0.21073072935E-01 -0.49579917803E-02  0.24305543885E-01  0.00000000000E+00 0. -1.
     999901    1    3    3    0    0  0.42812490564E-01  0.11189911883E+00 -0.77125862970E-01  0.89146100357E+00  0.88000000000E+00 0.  1.
        -11    1    4    4    0    0 -0.16849007062E-01 -0.25345769531E-01  0.33563582153E-01  0.45310840204E-01  0.51100000000E-03 0.  1.
         11    1    4    4    0    0 -0.14913443769E-01 -0.65480276367E-01  0.48520272597E-01  0.82852612343E-01  0.51100000000E-03 0. -1.
</event>
<event>
 8    1  0.1126414E+005  0.1043930E+01  0.7957747E-01            NaN
         13   -1    0    0    0    0  0.00000000000E+00  0.00000000000E+00  0.74505805969E-08  0.10566000000E+00  0.10566000000E+00 0. -1.
     999900   -1    0    0    0    0 -0.00000000000E+00 -0.00000000000E+00 -0.74505805969E-08  0.93827000000E+00  0.93827000000E+00 0. -1.
     999902    2    1    2    0    0  0.12762806378E-01 -0.18442122970E-04 -0.21466162566E-01  0.10189562998E+01  0.10186502124E+01 0.  0.
     999903    2    3    3    0    0  0.31525266647E-01 -0.16313757461E-01 -0.12634175640E+00  0.13238060793E+00  0.17389790858E-01 0.  0.
         14    1    1    2    0    0 -0.12762806378E-01  0.18442122970E-04  0.21466162566E-01  0.24973700208E-01  0.00000000000E+00 0. -1.
     999901    1    3    3    0    0 -0.18762460268E-01  0.16295315338E-01  0.10487559384E+00  0.88657569186E+00  0.88000000000E+00 0.  1.
        -11    1    4    4    0    0  0.13705116183E-01 -0.16696378219E-01 -0.73597495560E-01  0.76703661770E-01  0.51100000000E-03 0. -1.
         11    1    4    4    0    0  0.17820150463E-01  0.38262075744E-03 -0.52744260841E-01  0.55676946161E-01  0.51100000000E-03 0.  1.
</event>
<event>
 8    1  0.1126414E+005  0.1043930E+01  0.7957747E-01            NaN
         13   -1    0    0    0    0  0.00000000000E+00  0.00000000000E+00  0.74505805969E-08  0.10566000000E+00  0.10566000000E+00 0.  1.
     999900   -1    0    0    0    0 -0.00000000000E+00 -0.00000000000E+00 -0.74505805969E-08  0.93827000000E+00  0.93827000000E+00 0.  1.
     999902    2    1    2    0    0 -0.23518526111E-02  0.86390276389E-02 -0.25996750711E-01  0.10164346357E+01  0.10160626819E+01 0.  0.
     999903    2    3    3    0    0  0.46195373738E-01  0.11773538809E+00 -0.61775014233E-02  0.12814884179E+00  0.19706089565E-01 0.  0.
         14    1    1    2    0    0  0.23518526111E-02 -0.86390276389E-02  0.25996750711E-01  0.27495364278E-01  0.00000000000E+00 0.  1.
     999901    1    3    3    0    0 -0.48547226349E-01 -0.10909636045E+00 -0.19819249288E-01  0.88828579393E+00  0.88000000000E+00 0.  1.
        -11    1    4    4    0    0  0.31720344776E-01  0.58821679954E-01  0.24169350796E-02  0.66875055151E-01  0.51100000000E-03 0.  1.
         11    1    4    4    0    0  0.14475028962E-01  0.58913708137E-01 -0.85944365029E-02  0.61273786644E-01  0.51100000000E-03 0. -1.
</event>
<event>
 8    1  0.1126414E+005  0.1043930E+01  0.7957747E-01            NaN
         13   -1    0    0    0    0  0.00000000000E+00  0.00000000000E+00  0.74505805969E-08  0.10566000000E+00  0.10566000000E+00 0. -1.
     999900   -1    0    0    0    0 -0.00000000000E+00 -0.00000000000E+00 -0.74505805969E-08  0.93827000000E+00  0.93827000000E+00 0. -1.
     999902    2    1    2    0    0 -0.13295708586E-01  0.10404518320E-01  0.15701589295E-01  0.10208742030E+01  0.10206138195E+01 0.  0.
     999903    2    3    3    0    0 -0.64835849349E-01  0.88407602509E-01  0.73997291928E-01  0.13400371856E+00  0.21489668043E-01 0.  0.
         14    1    1    2    0    0  0.13295708586E-01 -0.10404518320E-01 -0.15701589295E-01  0.23055796986E-01  0.00000000000E+00 0.  1.
     999901    1    3    3    0    0  0.51540140763E-01 -0.78003084189E-01 -0.58295702633E-01  0.88687048446E+00  0.88000000000E+00 0.  1.
        -11    1    4    4    0    0 -0.50115242583E-01  0.77789408152E-01  0.54644584851E-01  0.10746637304E+00  0.51100000000E-03 0.  1.
         11    1    4    4    0    0 -0.14720606766E-01  0.10618194357E-01  0.19352707077E-01  0.26537345519E-01  0.51100000000E-03 0. -1.
</event>
<event>
 8    1  0.1126414E+005  0.1043930E+01  0.7957747E-01            NaN
         13   -1    0    0    0    0  0.00000000000E+00  0.00000000000E+00  0.74505805969E-08  0.10566000000E+00  0.10566000000E+00 0.  1.
     999900   -1    0    0    0    0 -0.00000000000E+00 -0.00000000000E+00 -0.74505805969E-08  0.93827000000E+00  0.93827000000E+00 0. -1.
     999902    2    1    2    0    0 -0.19167782204E-01 -0.14497028522E-01 -0.21235314179E-02  0.10198037260E+01  0.10195182992E+01 0.  0.
     999903    2    3    3    0    0  0.57756830337E-01 -0.11776750246E-01  0.11303239058E+00  0.12896946405E+00  0.19551420397E-01 0.  0.
         14    1    1    2    0    0  0.19167782204E-01  0.14497028522E-01  0.21235314179E-02  0.24126273983E-01  0.00000000000E+00 0.  1.
     999901    1    3    3    0    0 -0.76924612542E-01 -0.27202782759E-02 -0.11515592200E+00  0.89083426197E+00  0.88000000000E+00 0. -1.
        -11    1    4    4    0    0  0.32758054137E-01 -0.98689021129E-03  0.77927352533E-01  0.84539916353E-01  0.51100000000E-03 0. -1.
         11    1    4    4    0    0  0.24998776200E-01 -0.10789860035E-01  0.35105038046E-01  0.44429547694E-01  0.51100000000E-03 0.  1.
</event>
<event>
 8    1  0.1126414E+005  0.1043930E+01  0.7957747E-01            NaN
         13   -1    0    0    0    0  0.00000000000E+00  0.00000000000E+00  0.74505805969E-08  0.10566000000E+00  0.10566000000E+00 0.  1.
     999900   -1    0    0    0    0 -0.00000000000E+00 -0.00000000000E+00 -0.74505805969E-08  0.93827000000E+00  0.93827000000E+00 0. -1.
     999902    2    1    2    0    0 -0.18946149484E-01 -0.13376480348E-01  0.19641045578E-02  0.10206545942E+01  0.10203891690E+01 0.  0.
     999903    2    3    3    0    0 -0.92935342020E-01 -0.45887659095E-02  0.92545946214E-01  0.13287269840E+00  0.20793442484E-01 0.  0.
         14    1    1    2    0    0  0.18946149484E-01  0.13376480348E-01 -0.19641045578E-02  0.23275405764E-01  0.00000000000E+00 0. -1.
     999901    1    3    3    0    0  0.73989192537E-01 -0.87877144385E-02 -0.90581841656E-01  0.88778189584E+00  0.88000000000E+00 0. -1.
        -11    1    4    4    0    0 -0.20316001870E-01 -0.58286061150E-02  0.11589151171E-01  0.24109793178E-01  0.51100000000E-03 0.  1.
         11    1    4    4    0    0 -0.72619340151E-01  0.12398402055E-02  0.80956795043E-01  0.10876290522E+00  0.51100000000E-03 0. -1.
</event>
<event>
 8    1  0.1126414E+005  0.1043930E+01  0.7957747E-01            NaN
         13   -1    0    0    0    0  0.00000000000E+00  0.00000000000E+00  0.74505805969E-08  0.10566000000E+00  0.10566000000E+00 0.  1.
     999900   -1    0    0    0    0 -0.00000000000E+00 -0.00000000000E+00 -0.74505805969E-08  0.93827000000E+00  0.93827000000E+00 0. -1.
     999902    2    1    2    0    0 -0.17990759736E-01  0.15574237626E-01 -0.37024832961E-02  0.10198482082E+01  0.10195638455E+01 0.  0.
     999903    2    3    3    0    0 -0.97337076749E-01 -0.19263334462E-01 -0.84486391081E-01  0.13190928339E+00  0.20408973531E-01 0.  0.
         14    1    1    2    0    0  0.17990759736E-01 -0.15574237626E-01  0.37024832961E-02  0.24081791795E-01  0.00000000000E+00 0.  1.
     999901    1    3    3    0    0  0.79346317013E-01  0.34837572087E-01  0.80783907785E-01  0.88793892482E+00  0.88000000000E+00 0. -1.
        -11    1    4    4    0    0 -0.74941553549E-01 -0.17854138034E-01 -0.54129734906E-01  0.94155700918E-01  0.51100000000E-03 0.  1.
         11    1    4    4    0    0 -0.22395523200E-01 -0.14091964274E-02 -0.30356656175E-01  0.37753582467E-01  0.51100000000E-03 0. -1.
</event>
<event>
 8    1  0.1126414E+005  0.1043930E+01  0.7957747E-01            NaN
         13   -1    0    0    0    0  0.00000000000E+00  0.00000000000E+00  0.74505805969E-08  0.10566000000E+00  0.10566000000E+00 0.  1.
     999900   -1    0    0    0    0 -0.00000000000E+00 -0.00000000000E+00 -0.74505805969E-08  0.93827000000E+00  0.93827000000E+00 0.  1.
     999902    2    1    2    0    0 -0.13846773373E-01  0.10723663135E-01 -0.15639177538E-01  0.10204499242E+01  0.10201797557E+01 0.  0.
     999903    2    3    3    0    0  0.75813649896E-01 -0.98790858075E-01 -0.27036334381E-01  0.12906767344E+00  0.20497751081E-01 0.  0.
         14    1    1    2    0    0  0.13846773373E-01 -0.10723663135E-01  0.15639177538E-01  0.23480075765E-01  0.00000000000E+00 0.  1.
     999901    1    3    3    0    0 -0.89660423269E-01  0.10951452121E+00  0.11397156843E-01  0.89138225080E+00  0.88000000000E+00 0. -1.
        -11    1    4    4    0    0  0.62361763432E-01 -0.90801351967E-01 -0.26991082800E-01  0.11341364437E+00  0.51100000000E-03 0.  1.
         11    1    4    4    0    0  0.13451886464E-01 -0.79895061086E-02 -0.45251581145E-04  0.15654029066E-01  0.51100000000E-03 0. -1.
</event>
<event>
 8    1  0.1126414E+005  0.1043930E+01  0.7957747E-01            NaN
         13   -1    0    0    0    0  0.00000000000E+00  0.00000000000E+00  0.74505805969E-08  0.10566000000E+00  0.10566000000E+00 0. -1.
     999900   -1    0    0    0    0 -0.00000000000E+00 -0.00000000000E+00 -0.74505805969E-08  0.93827000000E+00  0.93827000000E+00 0. -1.
     999902    2    1    2    0    0  0.10703075207E-01 -0.30037099744E-02  0.94282479217E-02  0.10293536510E+01  0.10292504403E+01 0.  0.
     999903    2    3    3    0    0  0.41661048228E-01 -0.76360650635E-01  0.10817814858E+00  0.14025794198E+00  0.20079505823E-01 0.  0.
         14    1    1    2    0    0 -0.10703075207E-01  0.30037099744E-02 -0.94282479217E-02  0.14576349041E-01  0.00000000000E+00 0.  1.
     999901    1    3    3    0    0 -0.30957973020E-01  0.73356940661E-01 -0.98749900660E-01  0.88909570897E+00  0.88000000000E+00 0. -1.
        -11    1    4    4    0    0  0.75963151919E-02 -0.30123502832E-01  0.47035289807E-01  0.56371172026E-01  0.51100000000E-03 0.  1.
         11    1    4    4    0    0  0.34064733036E-01 -0.46237147803E-01  0.61142858775E-01  0.83886769958E-01  0.51100000000E-03 0. -1.
</event>
<event>
 8    1  0.1126414E+005  0.1043930E+01  0.7957747E-01            NaN
         13   -1    0    0    0    0  0.00000000000E+00  0.00000000000E+00  0.74505805969E-08  0.10566000000E+00  0.10566000000E+00 0. -1.
     999900   -1    0    0    0    0 -0.00000000000E+00 -0.00000000000E+00 -0.74505805969E-08  0.93827000000E+00  0.93827000000E+00 0.  1.
     999902    2    1    2    0    0  0.34639517821E-02  0.15921087751E-02  0.24222056800E-01  0.10194097674E+01  0.10191148277E+01 0.  0.
     999903    2    3    3    0    0 -0.10980463874E+00 -0.59505579361E-01  0.29314289381E-01  0.13003435062E+00  0.21251637962E-01 0.  0.
         14    1    1    2    0    0 -0.34639517821E-02 -0.15921087751E-02 -0.24222056800E-01  0.24520232624E-01  0.00000000000E+00 0.  1.
     999901    1    3    3    0    0  0.11326859052E+00  0.61097688136E-01 -0.50922325806E-02  0.88937541675E+00  0.88000000000E+00 0. -1.
        -11    1    4    4    0    0 -0.33673085309E-01 -0.17118898620E-01 -0.95239824460E-03  0.37790230849E-01  0.51100000000E-03 0. -1.
         11    1    4    4    0    0 -0.76131553429E-01 -0.42386680741E-01  0.30266687625E-01  0.92244119773E-01  0.51100000000E-03 0.  1.
</event>
<event>
 8    1  0.1126414E+005  0.1043930E+01  0.7957747E-01            NaN
         13   -1    0    0    0    0  0.00000000000E+00  0.00000000000E+00  0.74505805969E-08  0.10566000000E+00  0.10566000000E+00 0.  1.
     999900   -1    0    0    0    0 -0.00000000000E+00 -0.00000000000E+00 -0.74505805969E-08  0.93827000000E+00  0.93827000000E+00 0.  1.
     999902    2    1    2    0    0  0.61226572543E-02 -0.93264461407E-02 -0.20646164343E-01  0.10204622853E+01  0.10201924045E+01 0.  0.
     999903    2    3    3    0    0 -0.92969793905E-02 -0.11901497168E+00 -0.54738622436E-01  0.13286348321E+00  0.20134325782E-01 0.  0.
         14    1    1    2    0    0 -0.61226572543E-02  0.93264461407E-02  0.20646164343E-01  0.23467714664E-01  0.00000000000E+00 0.  1.
     999901    1    3    3    0    0  0.15419636645E-01  0.10968852554E+00  0.34092458093E-01  0.88759880212E+00  0.88000000000E+00 0. -1.
        -11    1    4    4    0    0 -0.54983876169E-02 -0.68632469281E-02 -0.31397388826E-02  0.93517648619E-02  0.51100000000E-03 0. -1.
         11    1    4    4    0    0 -0.37985917736E-02 -0.11215172476E+00 -0.51598883553E-01  0.12351171835E+00  0.51100000000E-03 0.  1.
</event>
<event>
 8    1  0.1126414E+005  0.1043930E+01  0.7957747E-01            NaN
         13   -1    0    0    0    0  0.00000000000E+00  0.00000000000E+00  0.74505805969E-08  0.10566000000E+00  0.10566000000E+00 0.  1.
     999900   -1    0    0    0    0 -0.00000000000E+00 -0.00000000000E+00 -0.74505805969E-08  0.93827000000E+00  0.93827000000E+00 0. -1.
     999902    2    1    2    0    0 -0.15374802846E-01 -0.90841533207E-02  0.15578368959E-01  0.10202320679E+01  0.10199568032E+01 0.  0.
     999903    2    3    3    0    0 -0.11299648667E+00  0.43731642862E-01 -0.45982839329E-01  0.13112617783E+00  0.19974744376E-01 0.  0.
         14    1    1    2    0    0  0.15374802846E-01  0.90841533207E-02 -0.15578368959E-01  0.23697932052E-01  0.00000000000E+00 0. -1.
     999901    1    3    3    0    0  0.97621683820E-01 -0.52815796183E-01  0.61561208288E-01  0.88910589012E+00  0.88000000000E+00 0. -1.
        -11    1    4    4    0    0 -0.83591339570E-01  0.41012031089E-01 -0.37675676648E-01  0.10044509185E+00  0.51100000000E-03 0. -1.
         11    1    4    4    0    0 -0.29405147096E-01  0.27196117734E-02 -0.83071626804E-02  0.30681085977E-01  0.51100000000E-03 0.  1.
</event>
<event>
 8    1  0.1126414E+005  0.1043930E+01  0.7957747E-01            NaN
         13   -1    0    0    0    0  0.00000000000E+00  0.00000000000E+00  0.74505805969E-08  0.10566000000E+00  0.10566000000E+00 0.  1.
     999900   -1    0    0    0    0 -0.00000000000E+00 -0.00000000000E+00 -0.74505805969E-08  0.93827000000E+00  0.93827000000E+00 0.  1.
     999902    2    1    2    0    0  0.22962973551E-02 -0.95230375825E-02 -0.33766925330E-01  0.10087708408E+01  0.10081579454E+01 0.  0.
     999903    2    3    3    0    0  0.85415800582E-01 -0.83309222684E-01 -0.10235806960E-01  0.12146764212E+00  0.20330537756E-01 0.  0.
         14    1    1    2    0    0 -0.22962973551E-02  0.95230375825E-02  0.33766925330E-01  0.35159159156E-01  0.00000000000E+00 0.  1.
     999901    1    3    3    0    0 -0.83119503227E-01  0.73786185101E-01 -0.23531118370E-01  0.88730319872E+00  0.88000000000E+00 0.  1.
        -11    1    4    4    0    0  0.46166012560E-01 -0.35311266814E-01 -0.12369480058E-01  0.59426016504E-01  0.51100000000E-03 0. -1.
         11    1    4    4    0    0  0.39249788023E-01 -0.47997955870E-01  0.21336730977E-02  0.62041625619E-01  0.51100000000E-03 0.  1.
</event>
<event>
 8    1  0.1126414E+005  0.1043930E+01  0.7957747E-01            NaN
         13   -1    0    0    0    0  0.00000000000E+00  0.00000000000E+00  0.74505805969E-08  0.10566000000E+00  0.10566000000E+00 0. -1.
     999900   -1    0    0    0    0 -0.00000000000E+00 -0.00000000000E+00 -0.74505805969E-08  0.93827000000E+00  0.93827000000E+00 0. -1.
     999902    2    1    2    0    0 -0.44015629463E-02 -0.18703764023E-01 -0.12632704272E-01  0.10209345708E+01  0.10206755646E+01 0.  0.
     999903    2    3    3    0    0  0.75144491264E-01 -0.10760597597E+00 -0.14511726223E-02  0.13281509426E+00  0.20297850367E-01 0.  0.
         14    1    1    2    0    0  0.44015629463E-02  0.18703764023E-01  0.12632704272E-01  0.22995429159E-01  0.00000000000E+00 0. -1.
     999901    1    3    3    0    0 -0.79546054210E-01  0.88902211949E-01 -0.11181531649E-01  0.88811947658E+00  0.88000000000E+00 0. -1.
        -11    1    4    4    0    0  0.95944939045E-02 -0.84812429240E-02 -0.54074405339E-02  0.13909972284E-01  0.51100000000E-03 0. -1.
         11    1    4    4    0    0  0.65549997359E-01 -0.99124733048E-01  0.39562679116E-02  0.11890512198E+00  0.51100000000E-03 0.  1.
</event>
<event>
 8    1  0.1126414E+005  0.1043930E+01  0.7957747E-01            NaN
         13   -1    0    0    0    0  0.00000000000E+00  0.00000000000E+00  0.74505805969E-08  0.10566000000E+00  0.10566000000E+00 0. -1.
     999900   -1    0    0    0    0 -0.00000000000E+00 -0.00000000000E+00 -0.74505805969E-08  0.93827000000E+00  0.93827000000E+00 0. -1.
     999902    2    1    2    0    0 -0.19476925931E-01  0.78810475740E-02  0.10334168967E-01  0.10205151201E+01  0.10202464671E+01 0.  0.
     999903    2    3    3    0    0 -0.85992103645E-01  0.85777454441E-01 -0.49349665522E-01  0.13256563998E+00  0.19642958944E-01 0.  0.
         14    1    1    2    0    0  0.19476925931E-01 -0.78810475740E-02 -0.10334168967E-01  0.23414879944E-01  0.00000000000E+00 0.  1.
     999901    1    3    3    0    0  0.66515177714E-01 -0.77896406867E-01  0.59683834490E-01  0.88794948008E+00  0.88000000000E+00 0.  1.
        -11    1    4    4    0    0 -0.28818289314E-01  0.42322162770E-01 -0.19442221905E-01  0.54771528864E-01  0.51100000000E-03 0.  1.
         11    1    4    4    0    0 -0.57173814331E-01  0.43455291671E-01 -0.29907443617E-01  0.77794111114E-01  0.51100000000E-03 0. -1.
</event>
<event>
 8    1  0.1126414E+005  0.1043930E+01  0.7957747E-01            NaN
         13   -1    0    0    0    0  0.00000000000E+00  0.00000000000E+00  0.74505805969E-08  0.10566000000E+00  0.10566000000E+00 0.  1.
     999900   -1    0    0    0    0 -0.00000000000E+00 -0.00000000000E+00 -0.74505805969E-08  0.93827000000E+00  0.93827000000E+00 0. -1.
     999902    2    1    2    0    0 -0.31790273593E-02 -0.84418722224E-02  0.21839378335E-01  0.10203009952E+01  0.10200273481E+01 0.  0.
     999903    2    3    3    0    0 -0.81464826926E-01 -0.73639490539E-02 -0.97359689331E-01  0.12882006660E+00  0.20614428939E-01 0.  0.
         14    1    1    2    0    0  0.31790273593E-02  0.84418722224E-02 -0.21839378335E-01  0.23629004796E-01  0.00000000000E+00 0. -1.
     999901    1    3    3    0    0  0.78285799566E-01 -0.10779231685E-02  0.11919906767E+00  0.89148092860E+00  0.88000000000E+00 0.  1.
        -11    1    4    4    0    0 -0.21487230107E-01 -0.33042139882E-02 -0.41029300838E-01  0.46435800155E-01  0.51100000000E-03 0.  1.
         11    1    4    4    0    0 -0.59977596819E-01 -0.40597350657E-02 -0.56330388493E-01  0.82384266445E-01  0.51100000000E-03 0. -1.
</event>
<event>
 8    1  0.1126414E+005  0.1043930E+01  0.7957747E-01            NaN
         13   -1    0    0    0    0  0.00000000000E+00  0.00000000000E+00  0.74505805969E-08  0.10566000000E+00  0.10566000000E+00 0. -1.
     999900   -1    0    0    0    0 -0.00000000000E+00 -0.00000000000E+00 -0.74505805969E-08  0.93827000000E+00  0.93827000000E+00 0.  1.
     999902    2    1    2    0    0  0.85170347558E-02 -0.99796728007E-02  0.21838597971E-01  0.10184533811E+01  0.10181346823E+01 0.  0.
     999903    2    3    3    0    0  0.43907376495E-01  0.18800312611E-01  0.12074406187E+00  0.13173862726E+00  0.22240233178E-01 0.  0.
         14    1    1    2    0    0 -0.85170347558E-02  0.99796728007E-02 -0.21838597971E-01  0.25476618920E-01  0.00000000000E+00 0.  1.
     999901    1    3    3    0    0 -0.35390341739E-01 -0.28779985412E-01 -0.98905463897E-01  0.88671475382E+00  0.88000000000E+00 0.  1.
        -11    1    4    4    0    0  0.30121572808E-01  0.16972025002E-01  0.10585269711E+00  0.11135714341E+00  0.51100000000E-03 0.  1.
         11    1    4    4    0    0  0.13785803686E-01  0.18282876096E-02  0.14891364759E-01  0.20381483858E-01  0.51100000000E-03 0. -1.
</event>
<event>
 8    1  0.1126414E+005  0.1043930E+01  0.7957747E-01            NaN
         13   -1    0    0    0    0  0.00000000000E+00  0.00000000000E+00  0.74505805969E-08  0.10566000000E+00  0.10566000000E+00 0. -1.
     999900   -1    0    0    0    0 -0.00000000000E+00 -0.00000000000E+00 -0.74505805969E-08  0.93827000000E+00  0.93827000000E+00 0.  1.
     999902    2    1    2    0    0  0.60635777818E-02  0.23911470148E-01  0.24036479238E-02  0.10191448653E+01  0.10188434392E+01 0.  0.
     999903    2    3    3    0    0 -0.85037329077E-01 -0.81920579783E-01 -0.42760540095E-01  0.12699039328E+00  0.18861799135E-01 0.  0.
         14    1    1    2    0    0 -0.60635777818E-02 -0.23911470148E-01 -0.24036479238E-02  0.24785134728E-01  0.00000000000E+00 0.  1.
     999901    1    3    3    0    0  0.91100906858E-01  0.10583204993E+00  0.45164188019E-01  0.89215447200E+00  0.88000000000E+00 0. -1.
        -11    1    4    4    0    0 -0.29695056304E-01 -0.39709145519E-01 -0.12807664574E-01  0.51214353453E-01  0.51100000000E-03 0. -1.
         11    1    4    4    0    0 -0.55342272773E-01 -0.42211434264E-01 -0.29952875521E-01  0.75776039823E-01  0.51100000000E-03 0.  1.
</event>
<event>
 8    1  0.1126414E+005  0.1043930E+01  0.7957747E-01            NaN
         13   -1    0    0    0    0  0.00000000000E+00  0.00000000000E+00  0.74505805969E-08  0.10566000000E+00  0.10566000000E+00 0.  1.
     999900   -1    0    0    0    0 -0.00000000000E+00 -0.00000000000E+00 -0.74505805969E-08  0.93827000000E+00  0.93827000000E+00 0. -1.
     999902    2    1    2    0    0 -0.72857827794E-02 -0.23815117486E-02  0.19800759255E-01  0.10226973766E+01  0.10224769434E+01 0.  0.
     999903    2    3    3    0    0  0.10007991762E+00 -0.83794898075E-01 -0.43582215152E-02  0.13211375367E+00  0.19936774078E-01 0.  0.
         14    1    1    2    0    0  0.72857827794E-02  0.23815117486E-02 -0.19800759255E-01  0.21232623389E-01  0.00000000000E+00 0. -1.
     999901    1    3    3    0    0 -0.10736570040E+00  0.81413386327E-01  0.24158980770E-01  0.89058362294E+00  0.88000000000E+00 0.  1.
        -11    1    4    4    0    0  0.32313527067E-01 -0.29022484949E-01  0.78095851722E-02  0.44132974131E-01  0.51100000000E-03 0. -1.
         11    1    4    4    0    0  0.67766390551E-01 -0.54772413127E-01 -0.12167806687E-01  0.87980779540E-01  0.51100000000E-03 0.  1.
</event>
<event>
 8    1  0.1126414E+005  0.1043930E+01  0.7957747E-01            NaN
         13   -1    0    0    0    0  0.00000000000E+00  0.00000000000E+00  0.74505805969E-08  0.10566000000E+00  0.10566000000E+00 0.  1.
     999900   -1    0    0    0    0 -0.00000000000E+00 -0.00000000000E+00 -0.74505805969E-08  0.93827000000E+00  0.93827000000E+00 0.  1.
     999902    2    1    2    0    0 -0.17084624338E-02  0.28509414887E-04  0.23526014518E-01  0.10203420154E+01  0.10200693287E+01 0.  0.
     999903    2    3    3    0    0  0.83952335192E-02 -0.22855620104E-01 -0.12374606596E+00  0.12775317742E+00  0.20369736958E-01 0.  0.
         14    1    1    2    0    0  0.17084624338E-02 -0.28509414887E-04 -0.23526014518E-01  0.23587984564E-01  0.00000000000E+00 0. -1.
     999901    1    3    3    0    0 -0.10103695953E-01  0.22884129519E-01  0.14727208048E+00  0.89258883801E+00  0.88000000000E+00 0. -1.
        -11    1    4    4    0    0  0.10707487597E-01 -0.15416615902E-01 -0.47015407676E-01  0.50626396439E-01  0.51100000000E-03 0.  1.
         11    1    4    4    0    0 -0.23122540780E-02 -0.74390042021E-02 -0.76730658289E-01  0.77126780984E-01  0.51100000000E-03 0. -1.
</event>
<event>
 8    1  0.1126414E+005  0.1043930E+01  0.7957747E-01            NaN
         13   -1    0    0    0    0  0.00000000000E+00  0.00000000000E+00  0.74505805969E-08  0.10566000000E+00  0.10566000000E+00 0.  1.
     999900   -1    0    0    0    0 -0.00000000000E+00 -0.00000000000E+00 -0.74505805969E-08  0.93827000000E+00  0.93827000000E+00 0. -1.
     999902    2    1    2    0    0 -0.15383905347E-01 -0.17310890565E-01 -0.25175024165E-02  0.10206347367E+01  0.10203688531E+01 0.  0.
     999903    2    3    3    0    0  0.74947283419E-01  0.58319357382E-01  0.84200351528E-01  0.12855870612E+00  0.20479232985E-01 0.  0.
         14    1    1    2    0    0  0.15383905347E-01  0.17310890565E-01  0.25175024165E-02  0.23295263345E-01  0.00000000000E+00 0.  1.
     999901    1    3    3    0    0 -0.90331188766E-01 -0.75630247947E-01 -0.86717853945E-01  0.89207603054E+00  0.88000000000E+00 0.  1.
        -11    1    4    4    0    0  0.62376934321E-01  0.38401929513E-01  0.68161348893E-01  0.10005908619E+00  0.51100000000E-03 0. -1.
         11    1    4    4    0    0  0.12570349098E-01  0.19917427868E-01  0.16039002635E-01  0.28499619925E-01  0.51100000000E-03 0.  1.
</event>
<event>
 8    1  0.1126414E+005  0.1043930E+01  0.7957747E-01            NaN
         13   -1    0    0    0    0  0.00000000000E+00  0.00000000000E+00  0.74505805969E-08  0.10566000000E+00  0.10566000000E+00 0.  1.
     999900   -1    0    0    0    0 -0.00000000000E+00 -0.00000000000E+00 -0.74505805969E-08  0.93827000000E+00  0.93827000000E+00 0. -1.
     999902    2    1    2    0    0  0.19647035225E-01  0.11970227913E-01 -0.52400509977E-02  0.10203344393E+01  0.10200615754E+01 0.  0.
     999903    2    3    3    0    0  0.61529772484E-02  0.51105585507E-02  0.12841409714E+00  0.13011391834E+00  0.19377163421E-01 0.  0.
         14    1    1    2    0    0 -0.19647035225E-01 -0.11970227913E-01  0.52400509977E-02  0.23595560682E-01  0.00000000000E+00 0.  1.
     999901    1    3    3    0    0  0.13494057977E-01  0.68596693626E-02 -0.13365414814E+00  0.89022052098E+00  0.88000000000E+00 0. -1.
        -11    1    4    4    0    0  0.21115894162E-02  0.12275727522E-01  0.67090789535E-01  0.68239192972E-01  0.51100000000E-03 0.  1.
         11    1    4    4    0    0  0.40413878322E-02 -0.71651689713E-02  0.61323307606E-01  0.61874725363E-01  0.51100000000E-03 0. -1.
</event>
<event>
 8    1  0.1126414E+005  0.1043930E+01  0.7957747E-01            NaN
         13   -1    0    0    0    0  0.00000000000E+00  0.00000000000E+00  0.74505805969E-08  0.10566000000E+00  0.10566000000E+00 0.  1.
     999900   -1    0    0    0    0 -0.00000000000E+00 -0.00000000000E+00 -0.74505805969E-08  0.93827000000E+00  0.93827000000E+00 0. -1.
     999902    2    1    2    0    0  0.13932769359E-01 -0.98837250471E-03 -0.19599005173E-01  0.10198630113E+01  0.10195790023E+01 0.  0.
     999903    2    3    3    0    0  0.23567491162E-01  0.32366556667E-01  0.12039300385E+00  0.12812137731E+00  0.17821091970E-01 0.  0.
         14    1    1    2    0    0 -0.13932769359E-01  0.98837250471E-03  0.19599005173E-01  0.24066988719E-01  0.00000000000E+00 0.  1.
     999901    1    3    3    0    0 -0.96347218035E-02 -0.33354929172E-01 -0.13999200902E+00  0.89174163397E+00  0.88000000000E+00 0. -1.
        -11    1    4    4    0    0  0.15173728148E-01  0.95001806366E-02  0.34935308746E-01  0.39258532528E-01  0.51100000000E-03 0. -1.
         11    1    4    4    0    0  0.83937630138E-02  0.22866376030E-01  0.85457695100E-01  0.88862844784E-01  0.51100000000E-03 0.  1.
</event>
<event>
 8    1  0.1126414E+005  0.1043930E+01  0.7957747E-01            NaN
         13   -1    0    0    0    0  0.00000000000E+00  0.00000000000E+00  0.74505805969E-08  0.10566000000E+00  0.10566000000E+00 0.  1.
     999900   -1    0    0    0    0 -0.00000000000E+00 -0.00000000000E+00 -0.74505805969E-08  0.93827000000E+00  0.93827000000E+00 0. -1.
     999902    2    1    2    0    0  0.13995193632E-02 -0.16330774237E-01  0.17047165103E-01  0.10202813493E+01  0.10200072417E+01 0.  0.
     999903    2    3    3    0    0 -0.78391276776E-01  0.60513814137E-01  0.83453389982E-01  0.13085375326E+00  0.18738262078E-01 0.  0.
         14    1    1    2    0    0 -0.13995193632E-02  0.16330774237E-01 -0.17047165103E-01  0.23648650695E-01  0.00000000000E+00 0. -1.
     999901    1    3    3    0    0  0.79790796139E-01 -0.76844588374E-01 -0.66406224879E-01  0.88942759605E+00  0.88000000000E+00 0. -1.
        -11    1    4    4    0    0 -0.62896172478E-01  0.53544355605E-01  0.60965370623E-01  0.10266432713E+00  0.51100000000E-03 0. -1.
         11    1    4    4    0    0 -0.15495104298E-01  0.69694585321E-02  0.22488019359E-01  0.28189426123E-01  0.51100000000E-03 0.  1.
</event>
<event>
 8    1  0.1126414E+005  0.1043930E+01  0.7957747E-01            NaN
         13   -1    0    0    0    0  0.00000000000E+00  0.00000000000E+00  0.74505805969E-08  0.10566000000E+00  0.10566000000E+00 0. -1.
     999900   -1    0    0    0    0 -0.00000000000E+00 -0.00000000000E+00 -0.74505805969E-08  0.93827000000E+00  0.93827000000E+00 0. -1.
     999902    2    1    2    0    0 -0.14077013506E-01 -0.17346978722E-01 -0.18653812017E-02  0.10215121583E+01  0.10212661406E+01 0.  0.
     999903    2    3    3    0    0 -0.41470026009E-01 -0.12262421628E+00  0.28545237028E-01  0.13429263665E+00  0.21522551542E-01 0.  0.
         14    1    1    2    0    0  0.14077013506E-01  0.17346978722E-01  0.18653812017E-02  0.22417841712E-01  0.00000000000E+00 0. -1.
     999901    1    3    3    0    0  0.27393012503E-01  0.10527723756E+00 -0.30410618230E-01  0.88721952164E+00  0.88000000000E+00 0. -1.
        -11    1    4    4    0    0 -0.40372018272E-01 -0.11013591905E+00  0.31382908680E-01  0.12142886231E+00  0.51100000000E-03 0. -1.
         11    1    4    4    0    0 -0.10980077366E-02 -0.12488297231E-01 -0.28376716516E-02  0.12863774334E-01  0.51100000000E-03 0.  1.
</event>
<event>
 8    1  0.1126414E+005  0.1043930E+01  0.7957747E-01            NaN
         13   -1    0    0    0    0  0.00000000000E+00  0.00000000000E+00  0.74505805969E-08  0.10566000000E+00  0.10566000000E+00 0. -1.
     999900   -1    0    0    0    0 -0.00000000000E+00 -0.00000000000E+00 -0.74505805969E-08  0.93827000000E+00  0.93827000000E+00 0. -1.
     999902    2    1    2    0    0 -0.18952373682E-01 -0.15641351686E-01  0.49411984840E-02  0.10188648889E+01  0.10185565287E+01 0.  0.
     999903    2    3    3    0    0  0.95153730100E-01 -0.84388605335E-01 -0.94310817247E-03  0.12881937724E+00  0.20441952871E-01 0.  0.
         14    1    1    2    0    0  0.18952373682E-01  0.15641351686E-01 -0.49411984840E-02  0.25065111075E-01  0.00000000000E+00 0.  1.
     999901    1    3    3    0    0 -0.11410610378E+00  0.68747253649E-01  0.58843066565E-02  0.89004551168E+00  0.88000000000E+00 0.  1.
        -11    1    4    4    0    0  0.22824895223E-01 -0.28827343447E-01  0.63648407387E-02  0.37319752019E-01  0.51100000000E-03 0. -1.
         11    1    4    4    0    0  0.72328834878E-01 -0.55561261887E-01 -0.73079489112E-02  0.91499625221E-01  0.51100000000E-03 0.  1.
</event>
<event>
 8    1  0.1126414E+005  0.1043930E+01  0.7957747E-01            NaN
         13   -1    0    0    0    0  0.00000000000E+00  0.00000000000E+00  0.74505805969E-08  0.10566000000E+00  0.10566000000E+00 0. -1.
     999900   -1    0    0    0    0 -0.00000000000E+00 -0.00000000000E+00 -0.74505805969E-08  0.93827000000E+00  0.93827000000E+00 0. -1.
     999902    2    1    2    0    0  0.17054435110E-01  0.16626038471E-01 -0.34430553155E-02  0.10198648064E+01  0.10195808403E+01 0.  0.
     999903    2    3    3    0    0 -0.14457406827E-01  0.11036908579E+00 -0.67442252862E-01  0.13201535275E+00  0.22118864780E-01 0.  0.
         14    1    1    2    0    0 -0.17054435110E-01 -0.16626038471E-01  0.34430553155E-02  0.24065193580E-01  0.00000000000E+00 0.  1.
     999901    1    3    3    0    0  0.31511841937E-01 -0.93743047320E-01  0.63999197547E-01  0.88784945367E+00  0.88000000000E+00 0.  1.
        -11    1    4    4    0    0 -0.20233080380E-01  0.88656329773E-01 -0.52105565524E-01  0.10480731573E+00  0.51100000000E-03 0. -1.
         11    1    4    4    0    0  0.57756735537E-02  0.21712756017E-01 -0.15336687338E-01  0.27208037018E-01  0.51100000000E-03 0.  1.
</event>
<event>
 8    1  0.1126414E+005  0.1043930E+01  0.7957747E-01            NaN
         13   -1    0    0    0    0  0.00000000000E+00  0.00000000000E+00  0.74505805969E-08  0.10566000000E+00  0.10566000000E+00 0. -1.
     999900   -1    0    0    0    0 -0.00000000000E+00 -0.00000000000E+00 -0.74505805969E-08  0.93827000000E+00  0.93827000000E+00 0. -1.
     999902    2    1    2    0    0 -0.17148957771E-01 -0.18105315017E-02 -0.16242464888E-01  0.10202407104E+01  0.10199656488E+01 0.  0.
     999903    2    3    3    0    0 -0.87310017945E-01 -0.79738122532E-01  0.53615679030E-01  0.13126633275E+00  0.19364959543E-01 0.  0.
         14    1    1    2    0    0  0.17148957771E-01  0.18105315017E-02  0.16242464888E-01  0.23689289618E-01  0.00000000000E+00 0.  1.
     999901    1    3    3    0    0  0.70161060174E-01  0.77927591030E-01 -0.69858143918E-01  0.88897437763E+00  0.88000000000E+00 0.  1.
        -11    1    4    4    0    0 -0.49295206598E-01 -0.34360839061E-01  0.20854511711E-01  0.63607047049E-01  0.51100000000E-03 0. -1.
         11    1    4    4    0    0 -0.38014811347E-01 -0.45377283471E-01  0.32761167319E-01  0.67659285705E-01  0.51100000000E-03 0.  1.
</event>
<event>
 8    1  0.1126414E+005  0.1043930E+01  0.7957747E-01            NaN
         13   -1    0    0    0    0  0.00000000000E+00  0.00000000000E+00  0.74505805969E-08  0.10566000000E+00  0.10566000000E+00 0. -1.
     999900   -1    0    0    0    0 -0.00000000000E+00 -0.00000000000E+00 -0.74505805969E-08  0.93827000000E+00  0.93827000000E+00 0.  1.
     999902    2    1    2    0    0 -0.92991862205E-02  0.18926525084E-01 -0.91908758602E-02  0.10209265130E+01  0.10206673231E+01 0.  0.
     999903    2    3    3    0    0 -0.13047526859E+00 -0.11161376800E-01  0.12142347380E-01  0.13185731927E+00  0.95154611679E-02 0.  0.
         14    1    1    2    0    0  0.92991862205E-02 -0.18926525084E-01  0.91908758602E-02  0.23003487023E-01  0.00000000000E+00 0.  1.
     999901    1    3    3    0    0  0.12117608237E+00  0.30087901884E-01 -0.21333223240E-01  0.88906919370E+00  0.88000000000E+00 0.  1.
        -11    1    4    4    0    0 -0.72172304511E-01 -0.92859437523E-02  0.31889360588E-02  0.72838868223E-01  0.51100000000E-03 0. -1.
         11    1    4    4    0    0 -0.58302964077E-01 -0.18754330479E-02  0.89534113208E-02  0.59018451052E-01  0.51100000000E-03 0.  1.
</event>
<event>
 8    1  0.1126414E+005  0.1043930E+01  0.7957747E-01            NaN
         13   -1    0    0    0    0  0.00000000000E+00  0.00000000000E+00  0.74505805969E-08  0.10566000000E+00  0.10566000000E+00 0.  1.
     999900   -1    0    0    0    0 -0.00000000000E+00 -0.00000000000E+00 -0.74505805969E-08  0.93827000000E+00  0.93827000000E+00 0. -1.
     999902    2    1    2    0    0  0.13109727864E-02  0.18561374407E-02 -0.27446617807E-01  0.10163894712E+01  0.10160162777E+01 0.  0.
     999903    2    3    3    0    0  0.10834518457E+00 -0.43252981058E-01 -0.49919759983E-01  0.12847269744E+00  0.20093585056E-01 0.  0.
         14    1    1    2    0    0 -0.13109727864E-02 -0.18561374407E-02  0.27446617807E-01  0.27540528769E-01  0.00000000000E+00 0.  1.
     999901    1    3    3    0    0 -0.10703421178E+00  0.45109118499E-01  0.22473142177E-01  0.88791677379E+00  0.88000000000E+00 0.  1.
        -11    1    4    4    0    0  0.44720904283E-01 -0.11030620658E-01 -0.11566818662E-01  0.47494065807E-01  0.51100000000E-03 0.  1.
         11    1    4    4    0    0  0.63624280287E-01 -0.32222360400E-01 -0.38352941321E-01  0.80978631631E-01  0.51100000000E-03 0. -1.
</event>
<event>
 8    1  0.1126414E+005  0.1043930E+01  0.7957747E-01            NaN
         13   -1    0    0    0    0  0.00000000000E+00  0.00000000000E+00  0.74505805969E-08  0.10566000000E+00  0.10566000000E+00 0. -1.
     999900   -1    0    0    0    0 -0.00000000000E+00 -0.00000000000E+00 -0.74505805969E-08  0.93827000000E+00  0.93827000000E+00 0. -1.
     999902    2    1    2    0    0 -0.13778910529E-01  0.32652532937E-02  0.16029271460E-01  0.10225417369E+01  0.10223180258E+01 0.  0.
     999903    2    3    3    0    0  0.18666133327E-01 -0.92343907101E-01 -0.88124730199E-01  0.13066627000E+00  0.20781826919E-01 0.  0.
         14    1    1    2    0    0  0.13778910529E-01 -0.32652532937E-02 -0.16029271460E-01  0.21388263089E-01  0.00000000000E+00 0.  1.
     999901    1    3    3    0    0 -0.32445043857E-01  0.95609160394E-01  0.10415400166E+00  0.89187546691E+00  0.88000000000E+00 0.  1.
        -11    1    4    4    0    0  0.12639760542E-01 -0.47537246439E-01 -0.59296029400E-01  0.77044361048E-01  0.51100000000E-03 0. -1.
         11    1    4    4    0    0  0.60263727853E-02 -0.44806660661E-01 -0.28828700799E-01  0.53621908949E-01  0.51100000000E-03 0.  1.
</event>
<event>
 8    1  0.1126414E+005  0.1043930E+01  0.7957747E-01            NaN
         13   -1    0    0    0    0  0.00000000000E+00  0.00000000000E+00  0.74505805969E-08  0.10566000000E+00  0.10566000000E+00 0.  1.
     999900   -1    0    0    0    0 -0.00000000000E+00 -0.00000000000E+00 -0.74505805969E-08  0.93827000000E+00  0.93827000000E+00 0.  1.
     999902    2    1    2    0    0  0.20946848238E-01  0.37576574058E-03 -0.11514496184E-01  0.10200240327E+01  0.10197438561E+01 0.  0.
     999903    2    3    3    0    0 -0.62586976661E-01  0.11049759075E+00  0.11516745866E-01  0.12893753051E+00  0.19115546801E-01 0.  0.
         14    1    1    2    0    0 -0.20946848238E-01 -0.37576574058E-03  0.11514496184E-01  0.23905967317E-01  0.00000000000E+00 0.  1.
     999901    1    3    3    0    0  0.83533824898E-01 -0.11012182501E+00 -0.23031242050E-01  0.89108650217E+00  0.88000000000E+00 0. -1.
        -11    1    4    4    0    0 -0.41491688945E-01  0.87396100035E-01  0.12989541652E-01  0.97614690831E-01  0.51100000000E-03 0. -1.
         11    1    4    4    0    0 -0.21095287716E-01  0.23101490715E-01 -0.14727957860E-02  0.31322839678E-01  0.51100000000E-03 0.  1.
</event>
<event>
 8    1  0.1126414E+005  0.1043930E+01  0.7957747E-01            NaN
         13   -1    0    0    0    0  0.00000000000E+00  0.00000000000E+00  0.74505805969E-08  0.10566000000E+00  0.10566000000E+00 0. -1.
     999900   -1    0    0    0    0 -0.00000000000E+00 -0.00000000000E+00 -0.74505805969E-08  0.93827000000E+00  0.93827000000E+00 0.  1.
     999902    2    1    2    0    0  0.17387608129E-01  0.43799847456E-02 -0.13034382917E-01  0.10217622685E+01  0.10215217692E+01 0.  0.
     999903    2    3    3    0    0 -0.11767119848E+00  0.51051519208E-01  0.11851504995E-01  0.12988872319E+00  0.16668943427E-01 0.  0.
         14    1    1    2    0    0 -0.17387608129E-01 -0.43799847456E-02  0.13034382917E-01  0.22167731522E-01  0.00000000000E+00 0. -1.
     999901    1    3    3    0    0  0.13505880661E+00 -0.46671534462E-01 -0.24885887911E-01  0.89187354529E+00  0.88000000000E+00 0.  1.
        -11    1    4    4    0    0 -0.67599949813E-01  0.20544207505E-01  0.45556904252E-02  0.70801363779E-01  0.51100000000E-03 0. -1.
         11    1    4    4    0    0 -0.50071248669E-01  0.30507311703E-01  0.72958145694E-02  0.59087359409E-01  0.51100000000E-03 0.  1.
</event>
<event>
 8    1  0.1126414E+005  0.1043930E+01  0.7957747E-01            NaN
         13   -1    0    0    0    0  0.00000000000E+00  0.00000000000E+00  0.74505805969E-08  0.10566000000E+00  0.10566000000E+00 0. -1.
     999900   -1    0    0    0    0 -0.00000000000E+00 -0.00000000000E+00 -0.74505805969E-08  0.93827000000E+00  0.93827000000E+00 0.  1.
     999902    2    1    2    0    0 -0.37659341755E-02 -0.90136591681E-02 -0.21584823240E-01  0.10202375348E+01  0.10199623986E+01 0.  0.
     999903    2    3    3    0    0  0.63898885225E-02 -0.55984360342E-01 -0.11933500076E+00  0.13352197462E+00  0.20302611196E-01 0.  0.
         14    1    1    2    0    0  0.37659341755E-02  0.90136591681E-02  0.21584823240E-01  0.23692465176E-01  0.00000000000E+00 0. -1.
     999901    1    3    3    0    0 -0.10155822698E-01  0.46970701174E-01  0.97750177521E-01  0.88671556020E+00  0.88000000000E+00 0. -1.
        -11    1    4    4    0    0  0.13372310563E-01 -0.34498165980E-01 -0.80350219426E-01  0.88461070695E-01  0.51100000000E-03 0.  1.
         11    1    4    4    0    0 -0.69824220400E-02 -0.21486194363E-01 -0.38984781335E-01  0.45060903924E-01  0.51100000000E-03 0. -1.
</event>
<event>
 8    1  0.1126414E+005  0.1043930E+01  0.7957747E-01            NaN
         13   -1    0    0    0    0  0.00000000000E+00  0.00000000000E+00  0.74505805969E-08  0.10566000000E+00  0.10566000000E+00 0. -1.
     999900   -1    0    0    0    0 -0.00000000000E+00 -0.00000000000E+00 -0.74505805969E-08  0.93827000000E+00  0.93827000000E+00 0.  1.
     999902    2    1    2    0    0 -0.18662641606E-01 -0.44206587885E-02 -0.13859355035E-01  0.10202674106E+01  0.10199929759E+01 0.  0.
     999903    2    3    3    0    0 -0.24985712562E-01  0.25799981199E-01  0.12254097516E+00  0.12922402310E+00  0.19814961302E-01 0.  0.
         14    1    1    2    0    0  0.18662641606E-01  0.44206587885E-02  0.13859355035E-01  0.23662589415E-01  0.00000000000E+00 0. -1.
     999901    1    3    3    0    0  0.63230709564E-02 -0.30220639987E-01 -0.13640033019E+00  0.89104338749E+00  0.88000000000E+00 0.  1.
        -11    1    4    4    0    0 -0.40657182056E-02  0.17430746710E-01  0.65163188011E-01  0.67578570480E-01  0.51100000000E-03 0. -1.
         11    1    4    4    0    0 -0.20919994357E-01  0.83692344885E-02  0.57377787145E-01  0.61645452618E-01  0.51100000000E-03 0.  1.
</event>
<event>
 8    1  0.1126414E+005  0.1043930E+01  0.7957747E-01            NaN
         13   -1    0    0    0    0  0.00000000000E+00  0.00000000000E+00  0.74505805969E-08  0.10566000000E+00  0.10566000000E+00 0. -1.
     999900   -1    0    0    0    0 -0.00000000000E+00 -0.00000000000E+00 -0.74505805969E-08  0.93827000000E+00  0.93827000000E+00 0.  1.
     999902    2    1    2    0    0  0.16952519762E-01  0.42898868442E-02 -0.16067033599E-01  0.10201825659E+01  0.10199061365E+01 0.  0.
     999903    2    3    3    0    0 -0.87471908008E-01 -0.59608927564E-01  0.68930408115E-01  0.12765128655E+00  0.18408988563E-01 0.  0.
         14    1    1    2    0    0 -0.16952519762E-01 -0.42898868442E-02  0.16067033599E-01  0.23747434053E-01  0.00000000000E+00 0. -1.
     999901    1    3    3    0    0  0.10442442777E+00  0.63898814408E-01 -0.84997441714E-01  0.89253127939E+00  0.88000000000E+00 0.  1.
        -11    1    4    4    0    0 -0.28736716428E-01 -0.15434816764E-01  0.12282964366E-01  0.34859213620E-01  0.51100000000E-03 0.  1.
         11    1    4    4    0    0 -0.58735191580E-01 -0.44174110800E-01  0.56647443750E-01  0.92792072934E-01  0.51100000000E-03 0. -1.
</event>
<event>
 8    1  0.1126414E+005  0.1043930E+01  0.7957747E-01            NaN
         13   -1    0    0    0    0  0.00000000000E+00  0.00000000000E+00  0.74505805969E-08  0.10566000000E+00  0.10566000000E+00 0.  1.
     999900   -1    0    0    0    0 -0.00000000000E+00 -0.00000000000E+00 -0.74505805969E-08  0.93827000000E+00  0.93827000000E+00 0. -1.
     999902    2    1    2    0    0  0.13215706558E-01 -0.69192453260E-02 -0.17087503562E-01  0.10212471070E+01  0.10209951714E+01 0.  0.
     999903    2    3    3    0    0 -0.47489207264E-01 -0.24288613391E-01 -0.12010392693E+00  0.13299085740E+00  0.20407188487E-01 0.  0.
         14    1    1    2    0    0 -0.13215706558E-01  0.69192453260E-02  0.17087503562E-01  0.22682892974E-01  0.00000000000E+00 0.  1.
     999901    1    3    3    0    0  0.60704913822E-01  0.17369368065E-01  0.10301642337E+00  0.88825624962E+00  0.88000000000E+00 0.  1.
        -11    1    4    4    0    0 -0.23759325535E-02 -0.22278690177E-02 -0.27046361299E-01  0.27246563754E-01  0.51100000000E-03 0. -1.
         11    1    4    4    0    0 -0.45113274710E-01 -0.22060744373E-01 -0.93057565630E-01  0.10574429365E+00  0.51100000000E-03 0.  1.
</event>
<event>
 8    1  0.1126414E+005  0.1043930E+01  0.7957747E-01            NaN
         13   -1    0    0    0    0  0.00000000000E+00  0.00000000000E+00  0.74505805969E-08  0.10566000000E+00  0.10566000000E+00 0. -1.
     999900   -1    0    0    0    0 -0.00000000000E+00 -0.00000000000E+00 -0.74505805969E-08  0.93827000000E+00  0.93827000000E+00 0.  1.
     999902    2    1    2    0    0  0.15846204488E-01 -0.77844692769E-02  0.14876833870E-01  0.10208427666E+01  0.10205816645E+01 0.  0.
     999903    2    3    3    0    0  0.94141745238E-01 -0.70801953784E-01  0.60533338489E-01  0.13394597925E+00  0.20041343078E-01 0.  0.
         14    1    1    2    0    0 -0.15846204488E-01  0.77844692769E-02 -0.14876833870E-01  0.23087233368E-01  0.00000000000E+00 0.  1.
     999901    1    3    3    0    0 -0.78295540750E-01  0.63017484507E-01 -0.45656504619E-01  0.88689678738E+00  0.88000000000E+00 0. -1.
        -11    1    4    4    0    0  0.39214341817E-01 -0.33054721878E-01  0.15769032176E-01  0.53659134724E-01  0.51100000000E-03 0.  1.
         11    1    4    4    0    0  0.54927403421E-01 -0.37747231906E-01  0.44764306313E-01  0.80286844525E-01  0.51100000000E-03 0. -1.
</event>
<event>
 8    1  0.1126414E+005  0.1043930E+01  0.7957747E-01            NaN
         13   -1    0    0    0    0  0.00000000000E+00  0.00000000000E+00  0.74505805969E-08  0.10566000000E+00  0.10566000000E+00 0.  1.
     999900   -1    0    0    0    0 -0.00000000000E+00 -0.00000000000E+00 -0.74505805969E-08  0.93827000000E+00  0.93827000000E+00 0. -1.
     999902    2    1    2    0    0 -0.10567952079E-01  0.17202878835E-01 -0.11348470601E-01  0.10207695070E+01  0.10205067261E+01 0.  0.
     999903    2    3    3    0    0  0.69401580305E-01 -0.48427543388E-01  0.93933186723E-01  0.12847655857E+00  0.22824903662E-01 0.  0.
         14    1    1    2    0    0  0.10567952079E-01 -0.17202878835E-01  0.11348470601E-01  0.23160493008E-01  0.00000000000E+00 0.  1.
     999901    1    3    3    0    0 -0.79969532384E-01  0.65630422224E-01 -0.10528165732E+00  0.89229294842E+00  0.88000000000E+00 0. -1.
        -11    1    4    4    0    0  0.37685342831E-01 -0.13570371050E-01  0.36615048707E-01  0.54270276833E-01  0.51100000000E-03 0.  1.
         11    1    4    4    0    0  0.31716237474E-01 -0.34857172338E-01  0.57318138017E-01  0.74206281740E-01  0.51100000000E-03 0. -1.
</event>
<event>
 8    1  0.1126414E+005  0.1043930E+01  0.7957747E-01            NaN
         13   -1    0    0    0    0  0.00000000000E+00  0.00000000000E+00  0.74505805969E-08  0.10566000000E+00  0.10566000000E+00 0.  1.
     999900   -1    0    0    0    0 -0.00000000000E+00 -0.00000000000E+00 -0.74505805969E-08  0.93827000000E+00  0.93827000000E+00 0.  1.
     999902    2    1    2    0    0  0.14987358041E-01  0.18127215728E-01  0.63107849135E-03  0.10204009730E+01  0.10201296636E+01 0.  0.
     999903    2    3    3    0    0 -0.72114963100E-01 -0.56034608017E-01  0.88468176508E-01  0.12865989723E+00  0.19654661058E-01 0.  0.
         14    1    1    2    0    0 -0.14987358041E-01 -0.18127215728E-01 -0.63107849135E-03  0.23529026991E-01  0.00000000000E+00 0. -1.
     999901    1    3    3    0    0  0.87102321141E-01  0.74161823744E-01 -0.87837098016E-01  0.89174107578E+00  0.88000000000E+00 0.  1.
        -11    1    4    4    0    0 -0.34068536070E-01 -0.14505111817E-01  0.32833566771E-01  0.49491086538E-01  0.51100000000E-03 0. -1.
         11    1    4    4    0    0 -0.38046427030E-01 -0.41529496200E-01  0.55634609736E-01  0.79168810689E-01  0.51100000000E-03 0.  1.
</event>
<event>
 8    1  0.1126414E+005  0.1043930E+01  0.7957747E-01            NaN
         13   -1    0    0    0    0  0.00000000000E+00  0.00000000000E+00  0.74505805969E-08  0.10566000000E+00  0.10566000000E+00 0. -1.
     999900   -1    0    0    0    0 -0.00000000000E+00 -0.00000000000E+00 -0.74505805969E-08  0.93827000000E+00  0.93827000000E+00 0. -1.
     999902    2    1    2    0    0  0.20527137326E-01  0.13292136769E-01 -0.11756446743E-02  0.10194468138E+01  0.10191527755E+01 0.  0.
     999903    2    3    3    0    0 -0.59332883436E-01  0.41559448712E-01 -0.10524664827E+00  0.12927411277E+00  0.19681474193E-01 0.  0.
         14    1    1    2    0    0 -0.20527137326E-01 -0.13292136769E-01  0.11756446743E-02  0.24483186212E-01  0.00000000000E+00 0.  1.
     999901    1    3    3    0    0  0.79860020762E-01 -0.28267311944E-01  0.10407100360E+00  0.89017270101E+00  0.88000000000E+00 0.  1.
        -11    1    4    4    0    0 -0.40305571869E-01  0.21394918620E-01 -0.51599432816E-01  0.68884281621E-01  0.51100000000E-03 0.  1.
         11    1    4    4    0    0 -0.19027311567E-01  0.20164530092E-01 -0.53647215458E-01  0.60389831153E-01  0.51100000000E-03 0. -1.
</event>
<event>
 8    1  0.1126414E+005  0.1043930E+01  0.7957747E-01            NaN
         13   -1    0    0    0    0  0.00000000000E+00  0.00000000000E+00  0.74505805969E-08  0.10566000000E+00  0.10566000000E+00 0.  1.
     999900   -1    0    0    0    0 -0.00000000000E+00 -0.00000000000E+00 -0.74505805969E-08  0.93827000000E+00  0.93827000000E+00 0. -1.
     999902    2    1    2    0    0  0.14699147834E-01  0.55724040073E-02  0.17985638212E-01  0.10200427688E+01  0.10197630364E+01 0.  0.
     999903    2    3    3    0    0 -0.11992541986E+00  0.39293925528E-01 -0.14932641287E-01  0.12855831666E+00  0.19445773241E-01 0.  0.
         14    1    1    2    0    0 -0.14699147834E-01 -0.55724040073E-02 -0.17985638212E-01  0.23887231220E-01  0.00000000000E+00 0. -1.
     999901    1    3    3    0    0  0.13462456769E+00 -0.33721521521E-01  0.32918279499E-01  0.89148445212E+00  0.88000000000E+00 0.  1.
        -11    1    4    4    0    0 -0.80371620301E-01  0.33247744806E-01 -0.16416777508E-01  0.88514301609E-01  0.51100000000E-03 0. -1.
         11    1    4    4    0    0 -0.39553799554E-01  0.60461807228E-02  0.14841362209E-02  0.40044015056E-01  0.51100000000E-03 0.  1.
</event>
<event>
 8    1  0.1126414E+005  0.1043930E+01  0.7957747E-01            NaN
         13   -1    0    0    0    0  0.00000000000E+00  0.00000000000E+00  0.74505805969E-08  0.10566000000E+00  0.10566000000E+00 0.  1.
     999900   -1    0    0    0    0 -0.00000000000E+00 -0.00000000000E+00 -0.74505805969E-08  0.93827000000E+00  0.93827000000E+00 0. -1.
     999902    2    1    2    0    0  0.68977991479E-02 -0.18887589915E-01 -0.13212436797E-01  0.10198698842E+01  0.10195860393E+01 0.  0.
     999903    2    3    3    0    0 -0.98525953873E-01  0.77705098307E-01 -0.18095715316E-01  0.12831609361E+00  0.19801996783E-01 0.  0.
         14    1    1    2    0    0 -0.68977991479E-02  0.18887589915E-01  0.13212436797E-01  0.24060115794E-01  0.00000000000E+00 0. -1.
     999901    1    3    3    0    0  0.10542375302E+00 -0.96592688223E-01  0.48832785190E-02  0.89155379060E+00  0.88000000000E+00 0.  1.
        -11    1    4    4    0    0 -0.23688424822E-01  0.10774949812E-01  0.12853711166E-02  0.26060589285E-01  0.51100000000E-03 0. -1.
         11    1    4    4    0    0 -0.74837529052E-01  0.66930148495E-01 -0.19381086433E-01  0.10225550432E+00  0.51100000000E-03 0.  1.
</event>
<event>
 8    1  0.1126414E+005  0.1043930E+01  0.7957747E-01            NaN
         13   -1    0    0    0    0  0.00000000000E+00  0.00000000000E+00  0.74505805969E-08  0.10566000000E+00  0.10566000000E+00 0.  1.
     999900   -1    0    0    0    0 -0.00000000000E+00 -0.00000000000E+00 -0.74505805969E-08  0.93827000000E+00  0.93827000000E+00 0.  1.
     999902    2    1    2    0    0 -0.98613979936E-02  0.42145972679E-03  0.21810139846E-01  0.10199903467E+01  0.10197093706E+01 0.  0.
     999903    2    3    3    0    0 -0.41405489135E-01 -0.95495256931E-01  0.79534622017E-01  0.13233773334E+00  0.18808533648E-01 0.  0.
         14    1    1    2    0    0  0.98613979936E-02 -0.42145972679E-03 -0.21810139846E-01  0.23939653273E-01  0.00000000000E+00 0. -1.
     999901    1    3    3    0    0  0.31544091141E-01  0.95916716658E-01 -0.57724482171E-01  0.88765261339E+00  0.88000000000E+00 0.  1.
        -11    1    4    4    0    0 -0.22776783480E-01 -0.66623391318E-01  0.61710021277E-01  0.93626096701E-01  0.51100000000E-03 0. -1.
         11    1    4    4    0    0 -0.18628705655E-01 -0.28871865613E-01  0.17824600740E-01  0.38711636634E-01  0.51100000000E-03 0.  1.
</event>
<event>
 8    1  0.1126414E+005  0.1043930E+01  0.7957747E-01            NaN
         13   -1    0    0    0    0  0.00000000000E+00  0.00000000000E+00  0.74505805969E-08  0.10566000000E+00  0.10566000000E+00 0.  1.
     999900   -1    0    0    0    0 -0.00000000000E+00 -0.00000000000E+00 -0.74505805969E-08  0.93827000000E+00  0.93827000000E+00 0.  1.
     999902    2    1    2    0    0 -0.94449786714E-02 -0.81901057031E-02  0.33313656061E-02  0.10309923244E+01  0.10309111453E+01 0.  0.
     999903    2    3    3    0    0  0.81103937201E-01  0.31742286269E-01 -0.10628848135E+00  0.13868620374E+00  0.18740343437E-01 0.  0.
         14    1    1    2    0    0  0.94449786714E-02  0.81901057031E-02 -0.33313656061E-02  0.12937675615E-01  0.00000000000E+00 0. -1.
     999901    1    3    3    0    0 -0.90548915872E-01 -0.39932391972E-01  0.10961984696E+00  0.89230612065E+00  0.88000000000E+00 0.  1.
        -11    1    4    4    0    0  0.56796992072E-01  0.23693344438E-01 -0.60962025574E-01  0.86625068901E-01  0.51100000000E-03 0. -1.
         11    1    4    4    0    0  0.24306945129E-01  0.80489418314E-02 -0.45326455779E-01  0.52061134838E-01  0.51100000000E-03 0.  1.
</event>
<event>
 8    1  0.1126414E+005  0.1043930E+01  0.7957747E-01            NaN
         13   -1    0    0    0    0  0.00000000000E+00  0.00000000000E+00  0.74505805969E-08  0.10566000000E+00  0.10566000000E+00 0.  1.
     999900   -1    0    0    0    0 -0.00000000000E+00 -0.00000000000E+00 -0.74505805969E-08  0.93827000000E+00  0.93827000000E+00 0. -1.
     999902    2    1    2    0    0  0.20397437624E-01  0.29088900180E-02  0.11309942952E-01  0.10204261298E+01  0.10201554071E+01 0.  0.
     999903    2    3    3    0    0 -0.88101141108E-01  0.92179117168E-01 -0.14238177832E-02  0.12918920079E+00  0.20712837515E-01 0.  0.
         14    1    1    2    0    0 -0.20397437624E-01 -0.29088900180E-02 -0.11309942952E-01  0.23503870157E-01  0.00000000000E+00 0.  1.
     999901    1    3    3    0    0  0.10849857873E+00 -0.89270227150E-01  0.12733760736E-01  0.89123692905E+00  0.88000000000E+00 0. -1.
        -11    1    4    4    0    0 -0.76811462094E-01  0.69492330612E-01  0.20702272736E-02  0.10360372428E+00  0.51100000000E-03 0.  1.
         11    1    4    4    0    0 -0.11289679014E-01  0.22686786556E-01 -0.34940450567E-02  0.25585476511E-01  0.51100000000E-03 0. -1.
</event>
<event>
 8    1  0.1126414E+005  0.1043930E+01  0.7957747E-01            NaN
         13   -1    0    0    0    0  0.00000000000E+00  0.00000000000E+00  0.74505805969E-08  0.10566000000E+00  0.10566000000E+00 0.  1.
     999900   -1    0    0    0    0 -0.00000000000E+00 -0.00000000000E+00 -0.74505805969E-08  0.93827000000E+00  0.93827000000E+00 0. -1.
     999902    2    1    2    0    0 -0.16092774905E-01  0.14766261447E-01  0.94845240084E-02  0.10201187405E+01  0.10198408056E+01 0.  0.
     999903    2    3    3    0    0 -0.69433237376E-01 -0.77175805633E-01 -0.74774238100E-01  0.12972664285E+00  0.21464756109E-01 0.  0.
         14    1    1    2    0    0  0.16092774905E-01 -0.14766261447E-01 -0.94845240084E-02  0.23811259457E-01  0.00000000000E+00 0.  1.
     999901    1    3    3    0    0  0.53340462472E-01  0.91942067080E-01  0.84258762109E-01  0.89039209769E+00  0.88000000000E+00 0.  1.
        -11    1    4    4    0    0 -0.32910603335E-01 -0.28376180753E-01 -0.42365806622E-01  0.60691334948E-01  0.51100000000E-03 0.  1.
         11    1    4    4    0    0 -0.36522634041E-01 -0.48799624880E-01 -0.32408431479E-01  0.69035307906E-01  0.51100000000E-03 0. -1.
</event>
<event>
 8    1  0.1126414E+005  0.1043930E+01  0.7957747E-01            NaN
         13   -1    0    0    0    0  0.00000000000E+00  0.00000000000E+00  0.74505805969E-08  0.10566000000E+00  0.10566000000E+00 0. -1.
     999900   -1    0    0    0    0 -0.00000000000E+00 -0.00000000000E+00 -0.74505805969E-08  0.93827000000E+00  0.93827000000E+00 0. -1.
     999902    2    1    2    0    0 -0.29853285164E-02 -0.11812214435E-01  0.20773145603E-01  0.10198475546E+01  0.10195631763E+01 0.  0.
     999903    2    3    3    0    0  0.70735214347E-01 -0.83560174561E-01  0.71859624518E-01  0.13238357422E+00  0.19386380921E-01 0.  0.
         14    1    1    2    0    0  0.29853285164E-02  0.11812214435E-01 -0.20773145603E-01  0.24082445359E-01  0.00000000000E+00 0.  1.
     999901    1    3    3    0    0 -0.73720542863E-01  0.71747960126E-01 -0.51086478915E-01  0.88746398042E+00  0.88000000000E+00 0. -1.
        -11    1    4    4    0    0  0.13055425672E-01 -0.28334869068E-01  0.17411642811E-01  0.35731433934E-01  0.51100000000E-03 0.  1.
         11    1    4    4    0    0  0.57679788674E-01 -0.55225305493E-01  0.54447981707E-01  0.96652140283E-01  0.51100000000E-03 0. -1.
</event>
<event>
 8    1  0.1126414E+005  0.1043930E+01  0.7957747E-01            NaN
         13   -1    0    0    0    0  0.00000000000E+00  0.00000000000E+00  0.74505805969E-08  0.10566000000E+00  0.10566000000E+00 0. -1.
     999900   -1    0    0    0    0 -0.00000000000E+00 -0.00000000000E+00 -0.74505805969E-08  0.93827000000E+00  0.93827000000E+00 0. -1.
     999902    2    1    2    0    0 -0.13363306372E-01 -0.57646459262E-02 -0.18524625695E-01  0.10203721806E+01  0.10201001990E+01 0.  0.
     999903    2    3    3    0    0 -0.13017574418E+00 -0.84240586453E-02  0.72122591211E-02  0.13227612418E+00  0.20694617881E-01 0.  0.
         14    1    1    2    0    0  0.13363306372E-01  0.57646459262E-02  0.18524625695E-01  0.23557819445E-01  0.00000000000E+00 0. -1.
     999901    1    3    3    0    0  0.11681243781E+00  0.26594127191E-02 -0.25736884816E-01  0.88809605637E+00  0.88000000000E+00 0. -1.
        -11    1    4    4    0    0 -0.14787410907E-01 -0.14922210515E-02  0.75501725133E-02  0.16678143511E-01  0.51100000000E-03 0. -1.
         11    1    4    4    0    0 -0.11538833328E+00 -0.69318375938E-02 -0.33791339225E-03  0.11559798067E+00  0.51100000000E-03 0.  1.
</event>
<event>
 8    1  0.1206638E+005  0.1043930E+01  0.7957747E-01            NaN
         13   -1    0    0    0    0  0.00000000000E+00  0.00000000000E+00  0.74505805969E-08  0.10566000000E+00  0.10566000000E+00 0.  1.
     999900   -1    0    0    0    0 -0.00000000000E+00 -0.00000000000E+00 -0.74505805969E-08  0.93827000000E+00  0.93827000000E+00 0. -1.
     999902    2    1    2    0    0 -0.38187419926E-02 -0.11809634978E-01  0.20439753550E-01  0.10200169535E+01  0.10197366089E+01 0.  0.
     999903    2    3    3    0    0 -0.10555276100E-01  0.63058314817E-02  0.13082476809E+00  0.13291019415E+00  0.19970538270E-01 0.  0.
         14    1    1    2    0    0  0.38187419926E-02  0.11809634978E-01 -0.20439753550E-01  0.23913046521E-01  0.00000000000E+00 0. -1.
     999901    1    3    3    0    0  0.67365341075E-02 -0.18115466460E-01 -0.11038501454E+00  0.88710675933E+00  0.88000000000E+00 0. -1.
        -11    1    4    4    0    0 -0.34851984690E-02  0.13088629229E-01  0.70174061536E-01  0.71471105049E-01  0.51100000000E-03 0.  1.
         11    1    4    4    0    0 -0.70700776311E-02 -0.67827977473E-02  0.60650706552E-01  0.61439089099E-01  0.51100000000E-03 0. -1.
</event>
<event>
 8    1  0.1126414E+005  0.1043930E+01  0.7957747E-01            NaN
         13   -1    0    0    0    0  0.00000000000E+00  0.00000000000E+00  0.74505805969E-08  0.10566000000E+00  0.10566000000E+00 0. -1.
     999900   -1    0    0    0    0 -0.00000000000E+00 -0.00000000000E+00 -0.74505805969E-08  0.93827000000E+00  0.93827000000E+00 0. -1.
     999902    2    1    2    0    0  0.16221397365E-01 -0.13765057220E-01 -0.81431627623E-02  0.10211501485E+01  0.10208960301E+01 0.  0.
     999903    2    3    3    0    0  0.89248361631E-01  0.27256251427E-01 -0.92829545587E-01  0.13312567325E+00  0.19923530055E-01 0.  0.
         14    1    1    2    0    0 -0.16221397365E-01  0.13765057220E-01  0.81431627623E-02  0.22779851459E-01  0.00000000000E+00 0. -1.
     999901    1    3    3    0    0 -0.73026964266E-01 -0.41021308647E-01  0.84686382824E-01  0.88802447529E+00  0.88000000000E+00 0.  1.
        -11    1    4    4    0    0  0.46761768109E-01  0.86740972848E-02 -0.58672854552E-01  0.75529251967E-01  0.51100000000E-03 0.  1.
         11    1    4    4    0    0  0.42486593522E-01  0.18582154142E-01 -0.34156691035E-01  0.57596421287E-01  0.51100000000E-03 0. -1.
</event>
<event>
 8    1  0.1170112E+005  0.1043930E+01  0.7957747E-01            NaN
         13   -1    0    0    0    0  0.00000000000E+00  0.00000000000E+00  0.74505805969E-08  0.10566000000E+00  0.10566000000E+00 0.  1.
     999900   -1    0    0    0    0 -0.00000000000E+00 -0.00000000000E+00 -0.74505805969E-08  0.93827000000E+00  0.93827000000E+00 0. -1.
     999902    2    1    2    0    0  0.84061457230E-02 -0.22248816412E-01  0.22571491507E-02  0.10200392520E+01  0.10197594362E+01 0.  0.
     999903    2    3    3    0    0 -0.66679341689E-01  0.79436027356E-01 -0.72051907631E-01  0.12790726973E+00  0.20311947375E-01 0.  0.
         14    1    1    2    0    0 -0.84061457230E-02  0.22248816412E-01 -0.22571491507E-02  0.23890747999E-01  0.00000000000E+00 0.  1.
     999901    1    3    3    0    0  0.75085487412E-01 -0.10168484377E+00  0.74309056782E-01  0.89213198227E+00  0.88000000000E+00 0.  1.
        -11    1    4    4    0    0 -0.30986592898E-01  0.43066801659E-01 -0.25428163777E-01  0.58836816524E-01  0.51100000000E-03 0. -1.
         11    1    4    4    0    0 -0.35692748791E-01  0.36369225696E-01 -0.46623743855E-01  0.69070453206E-01  0.51100000000E-03 0.  1.
</event>
<event>
 8    1  0.1126414E+005  0.1043930E+01  0.7957747E-01            NaN
         13   -1    0    0    0    0  0.00000000000E+00  0.00000000000E+00  0.74505805969E-08  0.10566000000E+00  0.10566000000E+00 0. -1.
     999900   -1    0    0    0    0 -0.00000000000E+00 -0.00000000000E+00 -0.74505805969E-08  0.93827000000E+00  0.93827000000E+00 0.  1.
     999902    2    1    2    0    0  0.14488133138E-01  0.17411132452E-01  0.32089125744E-02  0.10210531415E+01  0.10207968295E+01 0.  0.
     999903    2    3    3    0    0  0.57847734911E-01 -0.73010575860E-01 -0.89277733620E-01  0.13054209714E+00  0.19844918320E-01 0.  0.
         14    1    1    2    0    0 -0.14488133138E-01 -0.17411132452E-01 -0.32089125744E-02  0.22876858504E-01  0.00000000000E+00 0.  1.
     999901    1    3    3    0    0 -0.43359601773E-01  0.90421708312E-01  0.92486646194E-01  0.89051104436E+00  0.88000000000E+00 0. -1.
        -11    1    4    4    0    0  0.36426751361E-01 -0.32589523183E-01 -0.53476385108E-01  0.72449776544E-01  0.51100000000E-03 0. -1.
         11    1    4    4    0    0  0.21420983550E-01 -0.40421052677E-01 -0.35801348512E-01  0.58092320594E-01  0.51100000000E-03 0.  1.
</event>
<event>
 8    1  0.1126414E+005  0.1043930E+01  0.7957747E-01            NaN
         13   -1    0    0    0    0  0.00000000000E+00  0.00000000000E+00  0.74505805969E-08  0.10566000000E+00  0.10566000000E+00 0.  1.
     999900   -1    0    0    0    0 -0.00000000000E+00 -0.00000000000E+00 -0.74505805969E-08  0.93827000000E+00  0.93827000000E+00 0. -1.
     999902    2    1    2    0    0  0.56403053974E-02  0.17906274781E-01  0.14393505406E-01  0.10202736960E+01  0.10199994088E+01 0.  0.
     999903    2    3    3    0    0 -0.50489349445E-01  0.12001666509E+00 -0.11489785503E-01  0.13221569411E+00  0.19894730219E-01 0.  0.
         14    1    1    2    0    0 -0.56403053974E-02 -0.17906274781E-01 -0.14393505406E-01  0.23656304009E-01  0.00000000000E+00 0.  1.
     999901    1    3    3    0    0  0.56129654842E-01 -0.10211039031E+00  0.25883290909E-01  0.88805800188E+00  0.88000000000E+00 0. -1.
        -11    1    4    4    0    0 -0.23647356428E-01  0.33348878894E-01 -0.11941041896E-02  0.40902716234E-01  0.51100000000E-03 0.  1.
         11    1    4    4    0    0 -0.26841993017E-01  0.86667786197E-01 -0.10295681314E-01  0.91312977873E-01  0.51100000000E-03 0. -1.
</event>
<event>
 8    1  0.1126414E+005  0.1043930E+01  0.7957747E-01            NaN
         13   -1    0    0    0    0  0.00000000000E+00  0.00000000000E+00  0.74505805969E-08  0.10566000000E+00  0.10566000000E+00 0.  1.
     999900   -1    0    0    0    0 -0.00000000000E+00 -0.00000000000E+00 -0.74505805969E-08  0.93827000000E+00  0.93827000000E+00 0. -1.
     999902    2    1    2    0    0 -0.97135484000E-02 -0.11851648816E-01 -0.17442923586E-01  0.10207121150E+01  0.10204480151E+01 0.  0.
     999903    2    3    3    0    0 -0.12872377922E+00  0.12241729674E-01  0.15690522637E-01  0.13175668797E+00  0.19848451867E-01 0.  0.
         14    1    1    2    0    0  0.97135484000E-02  0.11851648816E-01  0.17442923586E-01  0.23217885033E-01  0.00000000000E+00 0.  1.
     999901    1    3    3    0    0  0.11901023082E+00 -0.24093378490E-01 -0.33133446223E-01  0.88895542700E+00  0.88000000000E+00 0. -1.
        -11    1    4    4    0    0 -0.39721023671E-01  0.29645177192E-02 -0.42951211998E-02  0.40065662030E-01  0.51100000000E-03 0. -1.
         11    1    4    4    0    0 -0.89002755552E-01  0.92772119552E-02  0.19985643837E-01  0.91691025941E-01  0.51100000000E-03 0.  1.
</event>
<event>
 8    1  0.1126414E+005  0.1043930E+01  0.7957747E-01            NaN
         13   -1    0    0    0    0  0.00000000000E+00  0.00000000000E+00  0.74505805969E-08  0.10566000000E+00  0.10566000000E+00 0.  1.
     999900   -1    0    0    0    0 -0.00000000000E+00 -0.00000000000E+00 -0.74505805969E-08  0.93827000000E+00  0.93827000000E+00 0.  1.
     999902    2    1    2    0    0  0.56511186863E-02 -0.20362660443E-01 -0.10268254852E-01  0.10204351039E+01  0.10201645903E+01 0.  0.
     999903    2    3    3    0    0 -0.20160522112E-01  0.66889153132E-01  0.10571607292E+00  0.12817309979E+00  0.19283411976E-01 0.  0.
         14    1    1    2    0    0 -0.56511186863E-02  0.20362660443E-01  0.10268254852E-01  0.23494896051E-01  0.00000000000E+00 0.  1.
     999901    1    3    3    0    0  0.25811640798E-01 -0.87251813575E-01 -0.11598432778E+00  0.89226200416E+00  0.88000000000E+00 0.  1.
        -11    1    4    4    0    0  0.30447895057E-02  0.14301245365E-01  0.16610413071E-01  0.22135114761E-01  0.51100000000E-03 0.  1.
         11    1    4    4    0    0 -0.23205311618E-01  0.52587907768E-01  0.89105659853E-01  0.10603798503E+00  0.51100000000E-03 0. -1.
</event>
<event>
 8    1  0.1126414E+005  0.1043930E+01  0.7957747E-01            NaN
         13   -1    0    0    0    0  0.00000000000E+00  0.00000000000E+00  0.74505805969E-08  0.10566000000E+00  0.10566000000E+00 0. -1.
     999900   -1    0    0    0    0 -0.00000000000E+00 -0.00000000000E+00 -0.74505805969E-08  0.93827000000E+00  0.93827000000E+00 0.  1.
     999902    2    1    2    0    0  0.65382223053E-02 -0.10988184004E-01  0.18801315679E-01  0.10211928496E+01  0.10209396936E+01 0.  0.
     999903    2    3    3    0    0  0.46641284357E-02  0.24239843581E-01  0.12977552831E+00  0.13352185082E+00  0.19418362118E-01 0.  0.
         14    1    1    2    0    0 -0.65382223053E-02  0.10988184004E-01 -0.18801315679E-01  0.22737150434E-01  0.00000000000E+00 0.  1.
     999901    1    3    3    0    0  0.18740938696E-02 -0.35228027585E-01 -0.11097421263E+00  0.88767099875E+00  0.88000000000E+00 0.  1.
        -11    1    4    4    0    0  0.11210353853E-01  0.76952572079E-02  0.56123303991E-01  0.57749245786E-01  0.51100000000E-03 0.  1.
         11    1    4    4    0    0 -0.65462254170E-02  0.16544586373E-01  0.73652224314E-01  0.75772605029E-01  0.51100000000E-03 0. -1.
</event>
<event>
 8    1  0.1126414E+005  0.1043930E+01  0.7957747E-01            NaN
         13   -1    0    0    0    0  0.00000000000E+00  0.00000000000E+00  0.74505805969E-08  0.10566000000E+00  0.10566000000E+00 0. -1.
     999900   -1    0    0    0    0 -0.00000000000E+00 -0.00000000000E+00 -0.74505805969E-08  0.93827000000E+00  0.93827000000E+00 0. -1.
     999902    2    1    2    0    0 -0.74404630574E-02 -0.43000342590E-04 -0.18651763362E-01  0.10238488990E+01  0.10236519513E+01 0.  0.
     999903    2    3    3    0    0  0.28099143318E-01 -0.12750667092E+00 -0.22303207698E-01  0.13394812705E+00  0.19928740103E-01 0.  0.
         14    1    1    2    0    0  0.74404630574E-02  0.43000342590E-04  0.18651763362E-01  0.20081100967E-01  0.00000000000E+00 0. -1.
     999901    1    3    3    0    0 -0.35539606375E-01  0.12746367057E+00  0.36514443362E-02  0.88990077199E+00  0.88000000000E+00 0. -1.
        -11    1    4    4    0    0  0.20665076223E-01 -0.49800360782E-01 -0.66132804453E-02  0.54324192664E-01  0.51100000000E-03 0.  1.
         11    1    4    4    0    0  0.74340670946E-02 -0.77706310134E-01 -0.15689927253E-01  0.79623934382E-01  0.51100000000E-03 0. -1.
</event>
<event>
 8    1  0.1126414E+005  0.1043930E+01  0.7957747E-01            NaN
         13   -1    0    0    0    0  0.00000000000E+00  0.00000000000E+00  0.74505805969E-08  0.10566000000E+00  0.10566000000E+00 0. -1.
     999900   -1    0    0    0    0 -0.00000000000E+00 -0.00000000000E+00 -0.74505805969E-08  0.93827000000E+00  0.93827000000E+00 0.  1.
     999902    2    1    2    0    0 -0.18309925241E-02 -0.66166183531E-02  0.22242452138E-01  0.10206521382E+01  0.10203866563E+01 0.  0.
     999903    2    3    3    0    0  0.26196662106E-01 -0.41144639321E-01 -0.11717948388E+00  0.12856682285E+00  0.20475596339E-01 0.  0.
         14    1    1    2    0    0  0.18309925241E-02  0.66166183531E-02 -0.22242452138E-01  0.23277861782E-01  0.00000000000E+00 0.  1.
     999901    1    3    3    0    0 -0.28027654630E-01  0.34528020968E-01  0.13942193601E+00  0.89208531537E+00  0.88000000000E+00 0. -1.
        -11    1    4    4    0    0  0.64472661519E-02 -0.24321009775E-01 -0.74308421973E-01  0.78454327187E-01  0.51100000000E-03 0. -1.
         11    1    4    4    0    0  0.19749395954E-01 -0.16823629546E-01 -0.42871061903E-01  0.50112495661E-01  0.51100000000E-03 0.  1.
</event>
<event>
 8    1  0.1126414E+005  0.1043930E+01  0.7957747E-01            NaN
         13   -1    0    0    0    0  0.00000000000E+00  0.00000000000E+00  0.74505805969E-08  0.10566000000E+00  0.10566000000E+00 0. -1.
     999900   -1    0    0    0    0 -0.00000000000E+00 -0.00000000000E+00 -0.74505805969E-08  0.93827000000E+00  0.93827000000E+00 0.  1.
     999902    2    1    2    0    0 -0.14316149674E-01  0.16715464897E-01  0.94242515982E-02  0.10199889176E+01  0.10197079075E+01 0.  0.
     999903    2    3    3    0    0 -0.16333022541E-01  0.79391174461E-02  0.12902681622E+00  0.13185274250E+00  0.20184875280E-01 0.  0.
         14    1    1    2    0    0  0.14316149674E-01 -0.16715464897E-01 -0.94242515982E-02  0.23941082398E-01  0.00000000000E+00 0.  1.
     999901    1    3    3    0    0  0.20168728672E-02  0.87763474510E-02 -0.11960256463E+00  0.88813617510E+00  0.88000000000E+00 0.  1.
        -11    1    4    4    0    0 -0.13092296154E-01  0.11317289047E-01  0.54647642297E-01  0.57324647226E-01  0.51100000000E-03 0.  1.
         11    1    4    4    0    0 -0.32407263868E-02 -0.33781716008E-02  0.74379173927E-01  0.74528095279E-01  0.51100000000E-03 0. -1.
</event>
<event>
 8    1  0.1126414E+005  0.1043930E+01  0.7957747E-01            NaN
         13   -1    0    0    0    0  0.00000000000E+00  0.00000000000E+00  0.74505805969E-08  0.10566000000E+00  0.10566000000E+00 0. -1.
     999900   -1    0    0    0    0 -0.00000000000E+00 -0.00000000000E+00 -0.74505805969E-08  0.93827000000E+00  0.93827000000E+00 0.  1.
     999902    2    1    2    0    0  0.12826197654E-01 -0.47133806003E-02  0.19370120277E-01  0.10202249612E+01  0.10199495295E+01 0.  0.
     999903    2    3    3    0    0 -0.12456266402E+00  0.21636311737E-01  0.15848564616E-01  0.12916805680E+00  0.21194873073E-01 0.  0.
         14    1    1    2    0    0 -0.12826197654E-01  0.47133806003E-02 -0.19370120277E-01  0.23705038757E-01  0.00000000000E+00 0.  1.
     999901    1    3    3    0    0  0.13738886167E+00 -0.26349692337E-01  0.35215556607E-02  0.89105690444E+00  0.88000000000E+00 0.  1.
        -11    1    4    4    0    0 -0.97007759031E-01  0.14484687526E-01  0.20806816409E-01  0.10026712430E+00  0.51100000000E-03 0. -1.
         11    1    4    4    0    0 -0.27554904988E-01  0.71516242110E-02 -0.49582517933E-02  0.28900932504E-01  0.51100000000E-03 0.  1.
</event>
<event>
 8    1  0.1126414E+005  0.1043930E+01  0.7957747E-01            NaN
         13   -1    0    0    0    0  0.00000000000E+00  0.00000000000E+00  0.74505805969E-08  0.10566000000E+00  0.10566000000E+00 0.  1.
     999900   -1    0    0    0    0 -0.00000000000E+00 -0.00000000000E+00 -0.74505805969E-08  0.93827000000E+00  0.93827000000E+00 0.  1.
     999902    2    1    2    0    0  0.13924675747E-01 -0.18123971059E-01 -0.54861193209E-02  0.10204252680E+01  0.10201545251E+01 0.  0.
     999903    2    3    3    0    0  0.96311605177E-01 -0.77339382772E-02 -0.88616410831E-01  0.13261548865E+00  0.19956464344E-01 0.  0.
         14    1    1    2    0    0 -0.13924675747E-01  0.18123971059E-01  0.54861193209E-02  0.23504732009E-01  0.00000000000E+00 0. -1.
     999901    1    3    3    0    0 -0.82386929430E-01 -0.10390032782E-01  0.83130291510E-01  0.88780977934E+00  0.88000000000E+00 0. -1.
        -11    1    4    4    0    0  0.20895133885E-01  0.43237588231E-02 -0.12245977494E-01  0.24607450015E-01  0.51100000000E-03 0.  1.
         11    1    4    4    0    0  0.75416471292E-01 -0.12057697100E-01 -0.76370433337E-01  0.10800803864E+00  0.51100000000E-03 0. -1.
</event>
<event>
 8    1  0.1126414E+005  0.1043930E+01  0.7957747E-01            NaN
         13   -1    0    0    0    0  0.00000000000E+00  0.00000000000E+00  0.74505805969E-08  0.10566000000E+00  0.10566000000E+00 0.  1.
     999900   -1    0    0    0    0 -0.00000000000E+00 -0.00000000000E+00 -0.74505805969E-08  0.93827000000E+00  0.93827000000E+00 0. -1.
     999902    2    1    2    0    0 -0.95678336905E-02 -0.18816441017E-01 -0.10680254537E-01  0.10202726601E+01  0.10199983486E+01 0.  0.
     999903    2    3    3    0    0 -0.11123342203E+00 -0.10468069702E-01  0.65450675045E-01  0.13111490942E+00  0.20612470696E-01 0.  0.
         14    1    1    2    0    0  0.95678336905E-02  0.18816441017E-01  0.10680254537E-01  0.23657339898E-01  0.00000000000E+00 0.  1.
     999901    1    3    3    0    0  0.10166558834E+00 -0.83483713150E-02 -0.76130929582E-01  0.88915775068E+00  0.88000000000E+00 0. -1.
        -11    1    4    4    0    0 -0.90573876800E-01 -0.27066487785E-02  0.45670496090E-01  0.10147417622E+00  0.51100000000E-03 0. -1.
         11    1    4    4    0    0 -0.20659545233E-01 -0.77614209235E-02  0.19780178954E-01  0.29640733197E-01  0.51100000000E-03 0.  1.
</event>
<event>
 8    1  0.1126414E+005  0.1043930E+01  0.7957747E-01            NaN
         13   -1    0    0    0    0  0.00000000000E+00  0.00000000000E+00  0.74505805969E-08  0.10566000000E+00  0.10566000000E+00 0. -1.
     999900   -1    0    0    0    0 -0.00000000000E+00 -0.00000000000E+00 -0.74505805969E-08  0.93827000000E+00  0.93827000000E+00 0.  1.
     999902    2    1    2    0    0 -0.25967284720E-02  0.18900782601E-01 -0.11695254466E-01  0.10215522977E+01  0.10213071700E+01 0.  0.
     999903    2    3    3    0    0 -0.11310446655E+00  0.44646393353E-01  0.48362640214E-01  0.13223697269E+00  0.19019757741E-01 0.  0.
         14    1    1    2    0    0  0.25967284720E-02 -0.18900782601E-01  0.11695254466E-01  0.22377702266E-01  0.00000000000E+00 0. -1.
     999901    1    3    3    0    0  0.11050773808E+00 -0.25745610753E-01 -0.60057894680E-01  0.88931532505E+00  0.88000000000E+00 0.  1.
        -11    1    4    4    0    0 -0.38126023465E-01  0.15204089192E-01  0.26172797236E-01  0.48682999390E-01  0.51100000000E-03 0. -1.
         11    1    4    4    0    0 -0.74978443084E-01  0.29442304161E-01  0.22189842978E-01  0.83553973299E-01  0.51100000000E-03 0.  1.
</event>
<event>
 8    1  0.1126414E+005  0.1043930E+01  0.7957747E-01            NaN
         13   -1    0    0    0    0  0.00000000000E+00  0.00000000000E+00  0.74505805969E-08  0.10566000000E+00  0.10566000000E+00 0. -1.
     999900   -1    0    0    0    0 -0.00000000000E+00 -0.00000000000E+00 -0.74505805969E-08  0.93827000000E+00  0.93827000000E+00 0. -1.
     999902    2    1    2    0    0  0.22638284985E-01  0.52653759039E-02  0.10408855294E-03  0.10206872169E+01  0.10204225438E+01 0.  0.
     999903    2    3    3    0    0  0.42815426039E-01 -0.58396693244E-01 -0.10814523158E+00  0.13154274533E+00  0.19098906961E-01 0.  0.
         14    1    1    2    0    0 -0.22638284985E-01 -0.52653759039E-02 -0.10408855294E-03  0.23242783072E-01  0.00000000000E+00 0. -1.
     999901    1    3    3    0    0 -0.20177141053E-01  0.63662069148E-01  0.10824932013E+00  0.88914447160E+00  0.88000000000E+00 0.  1.
        -11    1    4    4    0    0  0.34477499722E-01 -0.43473735680E-01 -0.94819698501E-01  0.10986218652E+00  0.51100000000E-03 0. -1.
         11    1    4    4    0    0  0.83379263161E-02 -0.14922957563E-01 -0.13325533075E-01  0.21680558813E-01  0.51100000000E-03 0.  1.
</event>
<event>
 8    1  0.1126414E+005  0.1043930E+01  0.7957747E-01            NaN
         13   -1    0    0    0    0  0.00000000000E+00  0.00000000000E+00  0.74505805969E-08  0.10566000000E+00  0.10566000000E+00 0.  1.
     999900   -1    0    0    0    0 -0.00000000000E+00 -0.00000000000E+00 -0.74505805969E-08  0.93827000000E+00  0.93827000000E+00 0. -1.
     999902    2    1    2    0    0  0.85528799227E-02  0.19263903285E-01 -0.90437497047E-02  0.10209944570E+01  0.10207368133E+01 0.  0.
     999903    2    3    3    0    0 -0.82584279617E-01 -0.96565104162E-01  0.24911853009E-02  0.12866301882E+00  0.20074457029E-01 0.  0.
         14    1    1    2    0    0 -0.85528799227E-02 -0.19263903285E-01  0.90437497047E-02  0.22935543017E-01  0.00000000000E+00 0. -1.
     999901    1    3    3    0    0  0.91137159540E-01  0.11582900745E+00 -0.11534935006E-01  0.89233143817E+00  0.88000000000E+00 0. -1.
        -11    1    4    4    0    0 -0.38395522396E-01 -0.60163493759E-01  0.22587893211E-02  0.71408860596E-01  0.51100000000E-03 0.  1.
         11    1    4    4    0    0 -0.44188757221E-01 -0.36401610403E-01  0.23239597985E-03  0.57254158220E-01  0.51100000000E-03 0. -1.
</event>
<event>
 8    1  0.1126414E+005  0.1043930E+01  0.7957747E-01            NaN
         13   -1    0    0    0    0  0.00000000000E+00  0.00000000000E+00  0.74505805969E-08  0.10566000000E+00  0.10566000000E+00 0. -1.
     999900   -1    0    0    0    0 -0.00000000000E+00 -0.00000000000E+00 -0.74505805969E-08  0.93827000000E+00  0.93827000000E+00 0. -1.
     999902    2    1    2    0    0 -0.68917687813E-02  0.16585136792E-01 -0.14764778210E-01  0.10206800126E+01  0.10204151734E+01 0.  0.
     999903    2    3    3    0    0  0.14638510637E-02 -0.78704740075E-01  0.99187735374E-01  0.12819183206E+00  0.19958957598E-01 0.  0.
         14    1    1    2    0    0  0.68917687813E-02 -0.16585136792E-01  0.14764778210E-01  0.23249987418E-01  0.00000000000E+00 0. -1.
     999901    1    3    3    0    0 -0.83556198451E-02  0.95289876868E-01 -0.11395251358E+00  0.89248818052E+00  0.88000000000E+00 0. -1.
        -11    1    4    4    0    0  0.70062798822E-02 -0.50398843126E-01  0.51102716854E-01  0.72117127904E-01  0.51100000000E-03 0. -1.
         11    1    4    4    0    0 -0.55424288184E-02 -0.28305896949E-01  0.48085018519E-01  0.56074704157E-01  0.51100000000E-03 0.  1.
</event>
<event>
 8    1  0.1126414E+005  0.1043930E+01  0.7957747E-01            NaN
         13   -1    0    0    0    0  0.00000000000E+00  0.00000000000E+00  0.74505805969E-08  0.10566000000E+00  0.10566000000E+00 0. -1.
     999900   -1    0    0    0    0 -0.00000000000E+00 -0.00000000000E+00 -0.74505805969E-08  0.93827000000E+00  0.93827000000E+00 0.  1.
     999902    2    1    2    0    0 -0.97287155345E-02  0.17533598264E-01  0.10939723600E-01  0.10210880971E+01  0.10208325767E+01 0.  0.
     999903    2    3    3    0    0 -0.10970268189E+00  0.52956611988E-01 -0.49211689791E-01  0.13268065886E+00  0.18527969539E-01 0.  0.
         14    1    1    2    0    0  0.97287155345E-02 -0.17533598264E-01 -0.10939723600E-01  0.22841902865E-01  0.00000000000E+00 0.  1.
     999901    1    3    3    0    0  0.99973966359E-01 -0.35423013724E-01  0.60151413392E-01  0.88840743828E+00  0.88000000000E+00 0.  1.
        -11    1    4    4    0    0 -0.59541446371E-01  0.30398260812E-01 -0.17163382804E-01  0.69022321945E-01  0.51100000000E-03 0. -1.
         11    1    4    4    0    0 -0.50161235522E-01  0.22558351176E-01 -0.32048306988E-01  0.63658336914E-01  0.51100000000E-03 0.  1.
</event>
<event>
 8    1  0.1126414E+005  0.1043930E+01  0.7957747E-01            NaN
         13   -1    0    0    0    0  0.00000000000E+00  0.00000000000E+00  0.74505805969E-08  0.10566000000E+00  0.10566000000E+00 0. -1.
     999900   -1    0    0    0    0 -0.00000000000E+00 -0.00000000000E+00 -0.74505805969E-08  0.93827000000E+00  0.93827000000E+00 0. -1.
     999902    2    1    2    0    0  0.92788836870E-02  0.10537471348E-01 -0.19366284956E-01  0.10200095281E+01  0.10197290073E+01 0.  0.
     999903    2    3    3    0    0 -0.47312892531E-01  0.68972536981E-01  0.95816343972E-01  0.12878322457E+00  0.20214512123E-01 0.  0.
         14    1    1    2    0    0 -0.92788836870E-02 -0.10537471348E-01  0.19366284956E-01  0.23920471941E-01  0.00000000000E+00 0. -1.
     999901    1    3    3    0    0  0.56591776218E-01 -0.58435065633E-01 -0.11518262893E+00  0.89122630349E+00  0.88000000000E+00 0. -1.
        -11    1    4    4    0    0 -0.14507717055E-01  0.38858480501E-01  0.44433311051E-01  0.60786804596E-01  0.51100000000E-03 0.  1.
         11    1    4    4    0    0 -0.32805175477E-01  0.30114056480E-01  0.51383032920E-01  0.67996419971E-01  0.51100000000E-03 0. -1.
</event>
<event>
 8    1  0.1126414E+005  0.1043930E+01  0.7957747E-01            NaN
         13   -1    0    0    0    0  0.00000000000E+00  0.00000000000E+00  0.74505805969E-08  0.10566000000E+00  0.10566000000E+00 0.  1.
     999900   -1    0    0    0    0 -0.00000000000E+00 -0.00000000000E+00 -0.74505805969E-08  0.93827000000E+00  0.93827000000E+00 0. -1.
     999902    2    1    2    0    0  0.71834164275E-02 -0.22392446490E-02  0.22177686527E-01  0.10205106604E+01  0.10202419039E+01 0.  0.
     999903    2    3    3    0    0 -0.61715030465E-01  0.11123699921E+00  0.21852053978E-01  0.13055338055E+00  0.19602498109E-01 0.  0.
         14    1    1    2    0    0 -0.71834164275E-02  0.22392446490E-02 -0.22177686527E-01  0.23419339612E-01  0.00000000000E+00 0. -1.
     999901    1    3    3    0    0  0.68898446892E-01 -0.11347624385E+00  0.32563254888E-03  0.88995727984E+00  0.88000000000E+00 0.  1.
        -11    1    4    4    0    0 -0.31723565362E-01  0.72929383589E-01  0.78161393528E-02  0.79915159671E-01  0.51100000000E-03 0.  1.
         11    1    4    4    0    0 -0.29991465102E-01  0.38307615616E-01  0.14035914625E-01  0.50638220877E-01  0.51100000000E-03 0. -1.
</event>
<event>
 8    1  0.1126414E+005  0.1043930E+01  0.7957747E-01            NaN
         13   -1    0    0    0    0  0.00000000000E+00  0.00000000000E+00  0.74505805969E-08  0.10566000000E+00  0.10566000000E+00 0. -1.
     999900   -1    0    0    0    0 -0.00000000000E+00 -0.00000000000E+00 -0.74505805969E-08  0.93827000000E+00  0.93827000000E+00 0.  1.
     999902    2    1    2    0    0  0.30554064962E-02 -0.19688505916E-01 -0.13865248099E-01  0.10196561894E+01  0.10193672188E+01 0.  0.
     999903    2    3    3    0    0  0.16412576261E-01 -0.51451624860E-01  0.11587482877E+00  0.12947654620E+00  0.20507503809E-01 0.  0.
         14    1    1    2    0    0 -0.30554064962E-02  0.19688505916E-01  0.13865248099E-01  0.24273810556E-01  0.00000000000E+00 0. -1.
     999901    1    3    3    0    0 -0.13357169765E-01  0.31763118944E-01 -0.12974007687E+00  0.89017964325E+00  0.88000000000E+00 0.  1.
        -11    1    4    4    0    0 -0.32387743409E-02 -0.18077303522E-01  0.28600124353E-01  0.33992746225E-01  0.51100000000E-03 0.  1.
         11    1    4    4    0    0  0.19651350602E-01 -0.33374321338E-01  0.87274704415E-01  0.95483799971E-01  0.51100000000E-03 0. -1.
</event>
<event>
 8    1  0.1126414E+005  0.1043930E+01  0.7957747E-01            NaN
         13   -1    0    0    0    0  0.00000000000E+00  0.00000000000E+00  0.74505805969E-08  0.10566000000E+00  0.10566000000E+00 0.  1.
     999900   -1    0    0    0    0 -0.00000000000E+00 -0.00000000000E+00 -0.74505805969E-08  0.93827000000E+00  0.93827000000E+00 0.  1.
     999902    2    1    2    0    0 -0.10770084045E-01  0.11961724075E-03 -0.22535106300E-01  0.10189532101E+01  0.10186470460E+01 0.  0.
     999903    2    3    3    0    0  0.64794141378E-01  0.95998463772E-01 -0.55014452940E-01  0.12993261789E+00  0.21021640213E-01 0.  0.
         14    1    1    2    0    0  0.10770084045E-01 -0.11961724075E-03  0.22535106300E-01  0.24976789917E-01  0.00000000000E+00 0.  1.
     999901    1    3    3    0    0 -0.75564225423E-01 -0.95878846531E-01  0.32479346640E-01  0.88902059219E+00  0.88000000000E+00 0. -1.
        -11    1    4    4    0    0  0.47252403564E-01  0.60905043877E-01 -0.26832921090E-01  0.81624020897E-01  0.51100000000E-03 0.  1.
         11    1    4    4    0    0  0.17541737814E-01  0.35093419895E-01 -0.28181531850E-01  0.48308596998E-01  0.51100000000E-03 0. -1.
</event>
<event>
 8    1  0.1126414E+005  0.1043930E+01  0.7957747E-01            NaN
         13   -1    0    0    0    0  0.00000000000E+00  0.00000000000E+00  0.74505805969E-08  0.10566000000E+00  0.10566000000E+00 0. -1.
     999900   -1    0    0    0    0 -0.00000000000E+00 -0.00000000000E+00 -0.74505805969E-08  0.93827000000E+00  0.93827000000E+00 0.  1.
     999902    2    1    2    0    0  0.30777804103E-02 -0.23137772003E-01 -0.71732227879E-02  0.10195110657E+01  0.10192185874E+01 0.  0.
     999903    2    3    3    0    0 -0.10773593547E+00  0.59841768887E-01  0.27996256314E-01  0.12799428177E+00  0.20265159845E-01 0.  0.
         14    1    1    2    0    0 -0.30777804103E-02  0.23137772003E-01  0.71732227879E-02  0.24418934266E-01  0.00000000000E+00 0.  1.
     999901    1    3    3    0    0  0.11081371588E+00 -0.82979540889E-01 -0.35169479102E-01  0.89151678397E+00  0.88000000000E+00 0.  1.
        -11    1    4    4    0    0 -0.21645028732E-01  0.18785272813E-01  0.12870315536E-01  0.31421328528E-01  0.51100000000E-03 0.  1.
         11    1    4    4    0    0 -0.86090906734E-01  0.41056496073E-01  0.15125940779E-01  0.96572953240E-01  0.51100000000E-03 0. -1.
</event>
<event>
 8    1  0.1126414E+005  0.1043930E+01  0.7957747E-01            NaN
         13   -1    0    0    0    0  0.00000000000E+00  0.00000000000E+00  0.74505805969E-08  0.10566000000E+00  0.10566000000E+00 0.  1.
     999900   -1    0    0    0    0 -0.00000000000E+00 -0.00000000000E+00 -0.74505805969E-08  0.93827000000E+00  0.93827000000E+00 0.  1.
     999902    2    1    2    0    0 -0.15425414924E-01 -0.15055804791E-01  0.80910668987E-02  0.10209064024E+01  0.10206467540E+01 0.  0.
     999903    2    3    3    0    0  0.90683623318E-01  0.88310829751E-01 -0.78247178211E-02  0.12838351678E+00  0.19969451216E-01 0.  0.
         14    1    1    2    0    0  0.15425414924E-01  0.15055804791E-01 -0.80910668987E-02  0.23023597613E-01  0.00000000000E+00 0. -1.
     999901    1    3    3    0    0 -0.10610903824E+00 -0.10336663454E+00  0.15915784720E-01  0.89252288561E+00  0.88000000000E+00 0. -1.
        -11    1    4    4    0    0  0.60110829593E-03  0.56997824613E-02  0.98719839782E-03  0.58381960370E-02  0.51100000000E-03 0.  1.
         11    1    4    4    0    0  0.90082515022E-01  0.82611047289E-01 -0.88119162189E-02  0.12254532074E+00  0.51100000000E-03 0. -1.
</event>
<event>
 8    1  0.1126414E+005  0.1043930E+01  0.7957747E-01            NaN
         13   -1    0    0    0    0  0.00000000000E+00  0.00000000000E+00  0.74505805969E-08  0.10566000000E+00  0.10566000000E+00 0. -1.
     999900   -1    0    0    0    0 -0.00000000000E+00 -0.00000000000E+00 -0.74505805969E-08  0.93827000000E+00  0.93827000000E+00 0. -1.
     999902    2    1    2    0    0  0.14281826049E-02  0.23413197759E-01  0.35243427114E-02  0.10202099973E+01  0.10199342136E+01 0.  0.
     999903    2    3    3    0    0  0.10825231830E+00 -0.46230839791E-01 -0.49838020217E-01  0.12941864707E+00  0.20236180072E-01 0.  0.
         14    1    1    2    0    0 -0.14281826049E-02 -0.23413197759E-01 -0.35243427114E-02  0.23720002664E-01  0.00000000000E+00 0.  1.
     999901    1    3    3    0    0 -0.10682413570E+00  0.69644037550E-01  0.53362362929E-01  0.89079135027E+00  0.88000000000E+00 0. -1.
        -11    1    4    4    0    0  0.27075479861E-01 -0.21459486957E-01 -0.13599148734E-01  0.37132050273E-01  0.51100000000E-03 0. -1.
         11    1    4    4    0    0  0.81176838442E-01 -0.24771352835E-01 -0.36238871483E-01  0.92286596795E-01  0.51100000000E-03 0.  1.
</event>
<event>
 8    1  0.1126414E+005  0.1043930E+01  0.7957747E-01            NaN
         13   -1    0    0    0    0  0.00000000000E+00  0.00000000000E+00  0.74505805969E-08  0.10566000000E+00  0.10566000000E+00 0. -1.
     999900   -1    0    0    0    0 -0.00000000000E+00 -0.00000000000E+00 -0.74505805969E-08  0.93827000000E+00  0.93827000000E+00 0. -1.
     999902    2    1    2    0    0 -0.93606768758E-02  0.39171469868E-02 -0.21156133824E-01  0.10204662341E+01  0.10201964451E+01 0.  0.
     999903    2    3    3    0    0 -0.10396371886E+00  0.23005720699E-02 -0.81576748929E-01  0.13333433883E+00  0.17593535045E-01 0.  0.
         14    1    1    2    0    0  0.93606768758E-02 -0.39171469868E-02  0.21156133824E-01  0.23463765905E-01  0.00000000000E+00 0. -1.
     999901    1    3    3    0    0  0.94603041979E-01  0.16165749168E-02  0.60420615105E-01  0.88713189526E+00  0.88000000000E+00 0.  1.
        -11    1    4    4    0    0 -0.37334806904E-01  0.92693944380E-02 -0.30032334974E-01  0.48805857690E-01  0.51100000000E-03 0. -1.
         11    1    4    4    0    0 -0.66628911951E-01 -0.69688223681E-02 -0.51544413955E-01  0.84528481141E-01  0.51100000000E-03 0.  1.
</event>
<event>
 8    1  0.1126414E+005  0.1043930E+01  0.7957747E-01            NaN
         13   -1    0    0    0    0  0.00000000000E+00  0.00000000000E+00  0.74505805969E-08  0.10566000000E+00  0.10566000000E+00 0.  1.
     999900   -1    0    0    0    0 -0.00000000000E+00 -0.00000000000E+00 -0.74505805969E-08  0.93827000000E+00  0.93827000000E+00 0. -1.
     999902    2    1    2    0    0  0.22172099720E-02 -0.69822885603E-02 -0.23501875570E-01  0.10193128001E+01  0.10190154945E+01 0.  0.
     999903    2    3    3    0    0 -0.12769423457E+00 -0.74388746843E-02 -0.69218968323E-02  0.12962066935E+00  0.19810372765E-01 0.  0.
         14    1    1    2    0    0 -0.22172099720E-02  0.69822885603E-02  0.23501875570E-01  0.24617199860E-01  0.00000000000E+00 0.  1.
     999901    1    3    3    0    0  0.12991144454E+00  0.45658612405E-03 -0.16579978738E-01  0.88969213079E+00  0.88000000000E+00 0.  1.
        -11    1    4    4    0    0 -0.76075656825E-01 -0.96410318920E-02  0.40798808684E-02  0.76794281077E-01  0.51100000000E-03 0. -1.
         11    1    4    4    0    0 -0.51618577743E-01  0.22021572077E-02 -0.11001777701E-01  0.52826388274E-01  0.51100000000E-03 0.  1.
</event>
<event>
 8    1  0.1126414E+005  0.1043930E+01  0.7957747E-01            NaN
         13   -1    0    0    0    0  0.00000000000E+00  0.00000000000E+00  0.74505805969E-08  0.10566000000E+00  0.10566000000E+00 0. -1.
     999900   -1    0    0    0    0 -0.00000000000E+00 -0.00000000000E+00 -0.74505805969E-08  0.93827000000E+00  0.93827000000E+00 0.  1.
     999902    2    1    2    0    0 -0.20692827171E-02 -0.17450377954E-01  0.15604734176E-01  0.10204288224E+01  0.10201581623E+01 0.  0.
     999903    2    3    3    0    0  0.25684757942E-01  0.18226551608E-01 -0.12303315063E+00  0.12842905040E+00  0.19103687066E-01 0.  0.
         14    1    1    2    0    0  0.20692827171E-02  0.17450377954E-01 -0.15604734176E-01  0.23501177639E-01  0.00000000000E+00 0.  1.
     999901    1    3    3    0    0 -0.27754040659E-01 -0.35676929561E-01  0.13863788480E+00  0.89199977196E+00  0.88000000000E+00 0. -1.
        -11    1    4    4    0    0  0.75562330466E-02 -0.32471540625E-02 -0.37550400803E-01  0.38443912247E-01  0.51100000000E-03 0. -1.
         11    1    4    4    0    0  0.18128524896E-01  0.21473705670E-01 -0.85482749824E-01  0.89985138154E-01  0.51100000000E-03 0.  1.
</event>
<event>
 8    1  0.1126414E+005  0.1043930E+01  0.7957747E-01            NaN
         13   -1    0    0    0    0  0.00000000000E+00  0.00000000000E+00  0.74505805969E-08  0.10566000000E+00  0.10566000000E+00 0.  1.
     999900   -1    0    0    0    0 -0.00000000000E+00 -0.00000000000E+00 -0.74505805969E-08  0.93827000000E+00  0.93827000000E+00 0.  1.
     999902    2    1    2    0    0 -0.22381640301E-01 -0.79752901927E-02  0.36065624293E-03  0.10201671477E+01  0.10198903549E+01 0.  0.
     999903    2    3    3    0    0 -0.75316709318E-01  0.32800553624E-01 -0.10107465659E+00  0.13182379423E+00  0.20321011337E-01 0.  0.
         14    1    1    2    0    0  0.22381640301E-01  0.79752901927E-02 -0.36065624293E-03  0.23762852294E-01  0.00000000000E+00 0.  1.
     999901    1    3    3    0    0  0.52935069017E-01 -0.40775843816E-01  0.10143531283E+00  0.88834335347E+00  0.88000000000E+00 0. -1.
        -11    1    4    4    0    0 -0.42497989020E-01  0.76932660560E-02 -0.48306392686E-01  0.64799954542E-01  0.51100000000E-03 0. -1.
         11    1    4    4    0    0 -0.32818720298E-01  0.25107287568E-01 -0.52768263900E-01  0.67023839691E-01  0.51100000000E-03 0.  1.
</event>
<event>
 7    1  0.1126414E+005  0.1043930E+01  0.7957747E-01            NaN
         13   -1    0    0    0    0  0.00000000000E+00  0.00000000000E+00  0.74505805969E-08  0.10566000000E+00  0.10566000000E+00 0.  1.
     999900   -1    0    0    0    0 -0.00000000000E+00 -0.00000000000E+00 -0.74505805969E-08  0.93827000000E+00  0.93827000000E+00 0.  1.
     999903    2    1    2    0    0 -0.10604330546E+00  0.35472994789E-01  0.13963540542E-01  0.11442946943E+00  0.19889872241E-01 0.  0.
         14    1    1    2    0    0  0.25076429058E-01  0.28103406428E-01 -0.21694604863E-01  0.43465901892E-01  0.00000000000E+00 0. -1.
     999901    1    1    2    0    0  0.80966876397E-01 -0.63576401217E-01  0.77310643213E-02  0.88603462868E+00  0.88000000000E+00 0.  1.
        -11    1    3    3    0    0 -0.30164950012E-01  0.18556779703E-01 -0.12891963132E-03  0.35419712356E-01  0.51100000000E-03 0. -1.
         11    1    3    3    0    0 -0.75878355444E-01  0.16916215086E-01  0.14092460173E-01  0.79009757071E-01  0.51100000000E-03 0.  1.
</event>
<event>
 8    1  0.1126414E+005  0.1043930E+01  0.7957747E-01            NaN
         13   -1    0    0    0    0  0.00000000000E+00  0.00000000000E+00  0.74505805969E-08  0.10566000000E+00  0.10566000000E+00 0.  1.
     999900   -1    0    0    0    0 -0.00000000000E+00 -0.00000000000E+00 -0.74505805969E-08  0.93827000000E+00  0.93827000000E+00 0.  1.
     999902    2    1    2    0    0 -0.15679471265E-02 -0.23170745251E-01 -0.10429899234E-03  0.10207060302E+01  0.10204417903E+01 0.  0.
     999903    2    3    3    0    0 -0.11569200938E+00 -0.60840663499E-01 -0.75751405953E-02  0.13250608776E+00  0.20353210283E-01 0.  0.
         14    1    1    2    0    0  0.15679471265E-02  0.23170745251E-01  0.10429899234E-03  0.23223969772E-01  0.00000000000E+00 0. -1.
     999901    1    3    3    0    0  0.11412406225E+00  0.37669918248E-01  0.74708416030E-02  0.88819994247E+00  0.88000000000E+00 0.  1.
        -11    1    4    4    0    0 -0.46140605703E-01 -0.20376725901E-01  0.63578679112E-02  0.50841420697E-01  0.51100000000E-03 0. -1.
         11    1    4    4    0    0 -0.69551403678E-01 -0.40463937598E-01 -0.13933008507E-01  0.81664667063E-01  0.51100000000E-03 0.  1.
</event>
<event>
 8    1  0.1126414E+005  0.1043930E+01  0.7957747E-01            NaN
         13   -1    0    0    0    0  0.00000000000E+00  0.00000000000E+00  0.74505805969E-08  0.10566000000E+00  0.10566000000E+00 0. -1.
     999900   -1    0    0    0    0 -0.00000000000E+00 -0.00000000000E+00 -0.74505805969E-08  0.93827000000E+00  0.93827000000E+00 0. -1.
     999902    2    1    2    0    0 -0.13925186410E-01 -0.10269488165E-01 -0.17919213647E-01  0.10190207362E+01  0.10187162458E+01 0.  0.
     999903    2    3    3    0    0 -0.94896755151E-03 -0.97894713449E-01  0.81705878502E-01  0.12898044425E+00  0.19386308497E-01 0.  0.
         14    1    1    2    0    0  0.13925186410E-01  0.10269488165E-01  0.17919213647E-01  0.24909263768E-01  0.00000000000E+00 0. -1.
     999901    1    3    3    0    0 -0.12976218859E-01  0.87625225284E-01 -0.99625092148E-01  0.89004029198E+00  0.88000000000E+00 0. -1.
        -11    1    4    4    0    0 -0.45861781557E-02 -0.64529755155E-01  0.42678567205E-01  0.77503829261E-01  0.51100000000E-03 0. -1.
         11    1    4    4    0    0  0.36372106041E-02 -0.33364958294E-01  0.39027311296E-01  0.51476614991E-01  0.51100000000E-03 0.  1.
</event>
<event>
 8    1  0.1126414E+005  0.1043930E+01  0.7957747E-01            NaN
         13   -1    0    0    0    0  0.00000000000E+00  0.00000000000E+00  0.74505805969E-08  0.10566000000E+00  0.10566000000E+00 0. -1.
     999900   -1    0    0    0    0 -0.00000000000E+00 -0.00000000000E+00 -0.74505805969E-08  0.93827000000E+00  0.93827000000E+00 0. -1.
     999902    2    1    2    0    0 -0.22932233259E-01 -0.21159395260E-02 -0.49487746255E-02  0.10203746420E+01  0.10201027179E+01 0.  0.
     999903    2    3    3    0    0 -0.13054502465E+00  0.14130062936E-01 -0.13981096542E-01  0.13362437931E+00  0.20453399380E-01 0.  0.
         14    1    1    2    0    0  0.22932233259E-01  0.21159395260E-02  0.49487746255E-02  0.23555358045E-01  0.00000000000E+00 0. -1.
     999901    1    3    3    0    0  0.10761279139E+00 -0.16246002462E-01  0.90323219170E-02  0.88675026265E+00  0.88000000000E+00 0.  1.
        -11    1    4    4    0    0 -0.30677088598E-01  0.11218043495E-01 -0.74042906956E-02  0.33496461103E-01  0.51100000000E-03 0. -1.
         11    1    4    4    0    0 -0.99867936049E-01  0.29120194410E-02 -0.65768058468E-02  0.10012791820E+00  0.51100000000E-03 0.  1.
</event>
<event>
 7    1  0.1126414E+005  0.1043930E+01  0.7957747E-01            NaN
         13   -1    0    0    0    0  0.00000000000E+00  0.00000000000E+00  0.74505805969E-08  0.10566000000E+00  0.10566000000E+00 0. -1.
     999900   -1    0    0    0    0 -0.00000000000E+00 -0.00000000000E+00 -0.74505805969E-08  0.93827000000E+00  0.93827000000E+00 0. -1.
     999903    2    1    2    0    0 -0.10899202530E+00  0.43639026380E-02  0.11713302436E-02  0.11103376819E+00  0.20707980074E-01 0.  0.
         14    1    1    2    0    0  0.42776678067E-01 -0.34327276252E-02  0.25659350905E-01  0.50000300942E-01  0.00000000000E+00 0. -1.
     999901    1    1    2    0    0  0.66215347232E-01 -0.93117501277E-03 -0.26830681149E-01  0.88289593087E+00  0.88000000000E+00 0. -1.
        -11    1    3    3    0    0 -0.41425962540E-01 -0.75773240857E-02  0.43815000290E-02  0.42343652136E-01  0.51100000000E-03 0.  1.
         11    1    3    3    0    0 -0.67566062758E-01  0.11941226724E-01 -0.32101697854E-02  0.68690116053E-01  0.51100000000E-03 0. -1.
</event>
<event>
 8    1  0.1126414E+005  0.1043930E+01  0.7957747E-01            NaN
         13   -1    0    0    0    0  0.00000000000E+00  0.00000000000E+00  0.74505805969E-08  0.10566000000E+00  0.10566000000E+00 0.  1.
     999900   -1    0    0    0    0 -0.00000000000E+00 -0.00000000000E+00 -0.74505805969E-08  0.93827000000E+00  0.93827000000E+00 0.  1.
     999902    2    1    2    0    0 -0.18270621575E-01  0.98885703445E-03  0.15450539821E-01  0.10199818762E+01  0.10197006988E+01 0.  0.
     999903    2    3    3    0    0  0.18911443106E-01  0.12457031023E+00  0.27551481641E-01  0.13048689913E+00  0.19807620539E-01 0.  0.
         14    1    1    2    0    0  0.18270621575E-01 -0.98885703445E-03 -0.15450539821E-01  0.23948123762E-01  0.00000000000E+00 0. -1.
     999901    1    3    3    0    0 -0.37182064680E-01 -0.12358145320E+00 -0.12100941820E-01  0.88949497711E+00  0.88000000000E+00 0.  1.
        -11    1    4    4    0    0  0.21894519131E-01  0.88224032272E-01  0.22704111945E-01  0.93694117523E-01  0.51100000000E-03 0.  1.
         11    1    4    4    0    0 -0.29830760250E-02  0.36346277963E-01  0.48473696967E-02  0.36792781606E-01  0.51100000000E-03 0. -1.
</event>
<event>
 8    1  0.1126414E+005  0.1043930E+01  0.7957747E-01            NaN
         13   -1    0    0    0    0  0.00000000000E+00  0.00000000000E+00  0.74505805969E-08  0.10566000000E+00  0.10566000000E+00 0.  1.
     999900   -1    0    0    0    0 -0.00000000000E+00 -0.00000000000E+00 -0.74505805969E-08  0.93827000000E+00  0.93827000000E+00 0. -1.
     999902    2    1    2    0    0  0.16369886310E-01 -0.42688045240E-02  0.12187807554E-01  0.10230796158E+01  0.10228671281E+01 0.  0.
     999903    2    3    3    0    0  0.94375626960E-01  0.93208197213E-01  0.54057417702E-02  0.13424180274E+00  0.19927683434E-01 0.  0.
         14    1    1    2    0    0 -0.16369886310E-01  0.42688045240E-02 -0.12187807554E-01  0.20850384237E-01  0.00000000000E+00 0. -1.
     999901    1    3    3    0    0 -0.78005740650E-01 -0.97477001737E-01  0.67820657842E-02  0.88883781302E+00  0.88000000000E+00 0. -1.
        -11    1    4    4    0    0  0.25597469750E-01  0.14135329038E-01 -0.81105699237E-03  0.29256741429E-01  0.51100000000E-03 0. -1.
         11    1    4    4    0    0  0.68778157210E-01  0.79072868175E-01  0.62167987625E-02  0.10498506131E+00  0.51100000000E-03 0.  1.
</event>
<event>
 8    1  0.1126414E+005  0.1043930E+01  0.7957747E-01            NaN
         13   -1    0    0    0    0  0.00000000000E+00  0.00000000000E+00  0.74505805969E-08  0.10566000000E+00  0.10566000000E+00 0. -1.
     999900   -1    0    0    0    0 -0.00000000000E+00 -0.00000000000E+00 -0.74505805969E-08  0.93827000000E+00  0.93827000000E+00 0.  1.
     999902    2    1    2    0    0 -0.63129140077E-02  0.11727818866E-01 -0.19776257198E-01  0.10200868675E+01  0.10198081792E+01 0.  0.
     999903    2    3    3    0    0 -0.66700337916E-02 -0.12479481788E+00  0.22561700785E-01  0.12855388406E+00  0.19970849843E-01 0.  0.
         14    1    1    2    0    0  0.63129140077E-02 -0.11727818866E-01  0.19776257198E-01  0.23843132499E-01  0.00000000000E+00 0. -1.
     999901    1    3    3    0    0  0.35711978389E-03  0.13652263675E+00 -0.42337957983E-01  0.89153298344E+00  0.88000000000E+00 0.  1.
        -11    1    4    4    0    0  0.52948819326E-02 -0.77922986216E-01  0.11754719852E-01  0.78983935805E-01  0.51100000000E-03 0. -1.
         11    1    4    4    0    0 -0.11964915724E-01 -0.46871831666E-01  0.10806980933E-01  0.49569948254E-01  0.51100000000E-03 0.  1.
</event>
<event>
 8    1  0.1126414E+005  0.1043930E+01  0.7957747E-01            NaN
         13   -1    0    0    0    0  0.00000000000E+00  0.00000000000E+00  0.74505805969E-08  0.10566000000E+00  0.10566000000E+00 0.  1.
     999900   -1    0    0    0    0 -0.00000000000E+00 -0.00000000000E+00 -0.74505805969E-08  0.93827000000E+00  0.93827000000E+00 0. -1.
     999902    2    1    2    0    0  0.15958073508E-02 -0.18982730032E-01 -0.13567974417E-01  0.10205423843E+01  0.10202743638E+01 0.  0.
     999903    2    3    3    0    0 -0.10417773917E+00  0.48903965440E-01 -0.58370954458E-01  0.13048398528E+00  0.19346909739E-01 0.  0.
         14    1    1    2    0    0 -0.15958073508E-02  0.18982730032E-01  0.13567974417E-01  0.23387615747E-01  0.00000000000E+00 0. -1.
     999901    1    3    3    0    0  0.10577354652E+00 -0.67886695472E-01  0.44802980041E-01  0.89005839897E+00  0.88000000000E+00 0. -1.
        -11    1    4    4    0    0 -0.27814043078E-01  0.22159570985E-01 -0.21564491205E-01  0.41592739517E-01  0.51100000000E-03 0.  1.
         11    1    4    4    0    0 -0.76363696087E-01  0.26744394455E-01 -0.36806463253E-01  0.88891245762E-01  0.51100000000E-03 0. -1.
</event>
<event>
 8    1  0.1126414E+005  0.1043930E+01  0.7957747E-01            NaN
         13   -1    0    0    0    0  0.00000000000E+00  0.00000000000E+00  0.74505805969E-08  0.10566000000E+00  0.10566000000E+00 0.  1.
     999900   -1    0    0    0    0 -0.00000000000E+00 -0.00000000000E+00 -0.74505805969E-08  0.93827000000E+00  0.93827000000E+00 0. -1.
     999902    2    1    2    0    0 -0.33582714630E-02 -0.32114402910E-02  0.23531427502E-01  0.10199441830E+01  0.10196621093E+01 0.  0.
     999903    2    3    3    0    0 -0.10575107533E+00 -0.74288748499E-01 -0.23088361997E-02  0.13078503570E+00  0.19932053368E-01 0.  0.
         14    1    1    2    0    0  0.33582714630E-02  0.32114402910E-02 -0.23531427502E-01  0.23985816981E-01  0.00000000000E+00 0. -1.
     999901    1    3    3    0    0  0.10239280387E+00  0.71077308208E-01  0.25840263702E-01  0.88915914732E+00  0.88000000000E+00 0. -1.
        -11    1    4    4    0    0 -0.56977097329E-01 -0.34308093230E-01  0.75976417779E-02  0.66943410151E-01  0.51100000000E-03 0.  1.
         11    1    4    4    0    0 -0.48773978004E-01 -0.39980655270E-01 -0.99064779776E-02  0.63841625552E-01  0.51100000000E-03 0. -1.
</event>
<event>
 8    1  0.1126414E+005  0.1043930E+01  0.7957747E-01            NaN
         13   -1    0    0    0    0  0.00000000000E+00  0.00000000000E+00  0.74505805969E-08  0.10566000000E+00  0.10566000000E+00 0. -1.
     999900   -1    0    0    0    0 -0.00000000000E+00 -0.00000000000E+00 -0.74505805969E-08  0.93827000000E+00  0.93827000000E+00 0. -1.
     999902    2    1    2    0    0 -0.74397538778E-02  0.12785307005E-01  0.17881100086E-01  0.10207233683E+01  0.10204595273E+01 0.  0.
     999903    2    3    3    0    0 -0.16876137930E-01  0.12887953646E+00 -0.14756583041E-01  0.13244856074E+00  0.20739468384E-01 0.  0.
         14    1    1    2    0    0  0.74397538778E-02 -0.12785307005E-01 -0.17881100086E-01  0.23206631665E-01  0.00000000000E+00 0.  1.
     999901    1    3    3    0    0  0.94363840522E-02 -0.11609422945E+00  0.32637683127E-01  0.88827480760E+00  0.88000000000E+00 0. -1.
        -11    1    4    4    0    0 -0.57118340633E-02  0.10506046595E+00 -0.13826774411E-01  0.10612147458E+00  0.51100000000E-03 0. -1.
         11    1    4    4    0    0 -0.11164303867E-01  0.23819070503E-01 -0.92980863033E-03  0.26327086157E-01  0.51100000000E-03 0.  1.
</event>
<event>
 8    1  0.1126414E+005  0.1043930E+01  0.7957747E-01            NaN
         13   -1    0    0    0    0  0.00000000000E+00  0.00000000000E+00  0.74505805969E-08  0.10566000000E+00  0.10566000000E+00 0.  1.
     999900   -1    0    0    0    0 -0.00000000000E+00 -0.00000000000E+00 -0.74505805969E-08  0.93827000000E+00  0.93827000000E+00 0.  1.
     999902    2    1    2    0    0 -0.18162033084E-01 -0.13377758832E-01  0.82993115680E-02  0.10198945585E+01  0.10196113024E+01 0.  0.
     999903    2    3    3    0    0  0.10950507584E+00  0.30486326064E-01  0.56803991240E-01  0.12828048691E+00  0.17561668207E-01 0.  0.
         14    1    1    2    0    0  0.18162033084E-01  0.13377758832E-01 -0.82993115680E-02  0.24035441532E-01  0.00000000000E+00 0. -1.
     999901    1    3    3    0    0 -0.12766710892E+00 -0.43864084897E-01 -0.48504679672E-01  0.89161407156E+00  0.88000000000E+00 0. -1.
        -11    1    4    4    0    0  0.93202161890E-02  0.80389680316E-02  0.69929179690E-02  0.14165220067E-01  0.51100000000E-03 0. -1.
         11    1    4    4    0    0  0.10018485965E+00  0.22447358033E-01  0.49811073271E-01  0.11411526685E+00  0.51100000000E-03 0.  1.
</event>
<event>
 8    1  0.1126414E+005  0.1043930E+01  0.7957747E-01            NaN
         13   -1    0    0    0    0  0.00000000000E+00  0.00000000000E+00  0.74505805969E-08  0.10566000000E+00  0.10566000000E+00 0. -1.
     999900   -1    0    0    0    0 -0.00000000000E+00 -0.00000000000E+00 -0.74505805969E-08  0.93827000000E+00  0.93827000000E+00 0. -1.
     999902    2    1    2    0    0  0.17690408873E-01 -0.99352580823E-02 -0.65782419741E-02  0.10226008372E+01  0.10223783737E+01 0.  0.
     999903    2    3    3    0    0 -0.87008404130E-01 -0.18905983448E-01 -0.95196248572E-01  0.13192948003E+00  0.20375557865E-01 0.  0.
         14    1    1    2    0    0 -0.17690408873E-01  0.99352580823E-02  0.65782419741E-02  0.21329162823E-01  0.00000000000E+00 0.  1.
     999901    1    3    3    0    0  0.10469881300E+00  0.89707253655E-02  0.88618006598E-01  0.89067135715E+00  0.88000000000E+00 0.  1.
        -11    1    4    4    0    0 -0.49725992387E-01 -0.85242118280E-02 -0.67788391491E-01  0.84503630976E-01  0.51100000000E-03 0. -1.
         11    1    4    4    0    0 -0.37282411743E-01 -0.10381771620E-01 -0.27407857081E-01  0.47425849050E-01  0.51100000000E-03 0.  1.
</event>
<event>
 8    1  0.1126414E+005  0.1043930E+01  0.7957747E-01            NaN
         13   -1    0    0    0    0  0.00000000000E+00  0.00000000000E+00  0.74505805969E-08  0.10566000000E+00  0.10566000000E+00 0.  1.
     999900   -1    0    0    0    0 -0.00000000000E+00 -0.00000000000E+00 -0.74505805969E-08  0.93827000000E+00  0.93827000000E+00 0.  1.
     999902    2    1    2    0    0 -0.93755195745E-02  0.39946017821E-02 -0.21773281663E-01  0.10198897628E+01  0.10196063923E+01 0.  0.
     999903    2    3    3    0    0 -0.10321799733E+00  0.36434528532E-01 -0.72651084197E-01  0.13284562056E+00  0.19706573151E-01 0.  0.
         14    1    1    2    0    0  0.93755195745E-02 -0.39946017821E-02  0.21773281663E-01  0.24040237209E-01  0.00000000000E+00 0.  1.
     999901    1    3    3    0    0  0.93842477751E-01 -0.32439926750E-01  0.50877802534E-01  0.88704414223E+00  0.88000000000E+00 0. -1.
        -11    1    4    4    0    0 -0.70463795719E-01  0.18707464288E-01 -0.56549810359E-01  0.92267317615E-01  0.51100000000E-03 0. -1.
         11    1    4    4    0    0 -0.32754201607E-01  0.17727064244E-01 -0.16101273839E-01  0.40578302944E-01  0.51100000000E-03 0.  1.
</event>
<event>
 8    1  0.1126414E+005  0.1043930E+01  0.7957747E-01            NaN
         13   -1    0    0    0    0  0.00000000000E+00  0.00000000000E+00  0.74505805969E-08  0.10566000000E+00  0.10566000000E+00 0. -1.
     999900   -1    0    0    0    0 -0.00000000000E+00 -0.00000000000E+00 -0.74505805969E-08  0.93827000000E+00  0.93827000000E+00 0.  1.
     999902    2    1    2    0    0  0.74868864579E-03  0.99827238179E-02  0.20309145208E-01  0.10212876351E+01  0.10210366090E+01 0.  0.
     999903    2    3    3    0    0  0.10604839338E+00  0.76326849311E-01  0.54376730081E-02  0.13240590421E+00  0.20729339547E-01 0.  0.
         14    1    1    2    0    0 -0.74868864579E-03 -0.99827238179E-02 -0.20309145208E-01  0.22642364907E-01  0.00000000000E+00 0. -1.
     999901    1    3    3    0    0 -0.10529970474E+00 -0.66344125493E-01  0.14871472200E-01  0.88888173088E+00  0.88000000000E+00 0. -1.
        -11    1    4    4    0    0  0.26387331248E-01  0.13617271016E-01  0.87747621701E-02  0.30967384334E-01  0.51100000000E-03 0. -1.
         11    1    4    4    0    0  0.79661062135E-01  0.62709578295E-01 -0.33370891620E-02  0.10143851988E+00  0.51100000000E-03 0.  1.
</event>
<event>
 8    1  0.1563216E+005  0.1043930E+01  0.7957747E-01            NaN
         13   -1    0    0    0    0  0.00000000000E+00  0.00000000000E+00  0.74505805969E-08  0.10566000000E+00  0.10566000000E+00 0.  1.
     999900   -1    0    0    0    0 -0.00000000000E+00 -0.00000000000E+00 -0.74505805969E-08  0.93827000000E+00  0.93827000000E+00 0.  1.
     999902    2    1    2    0    0  0.32287228374E-02  0.17319229321E-01 -0.16848340040E-01  0.10195528197E+01  0.10192613528E+01 0.  0.
     999903    2    3    3    0    0 -0.17824003460E-01 -0.10769008285E+00 -0.66540339159E-01  0.12908112440E+00  0.17873748858E-01 0.  0.
         14    1    1    2    0    0 -0.32287228374E-02 -0.17319229321E-01  0.16848340040E-01  0.24377180263E-01  0.00000000000E+00 0.  1.
     999901    1    3    3    0    0  0.21052726297E-01  0.12500931217E+00  0.49691999119E-01  0.89047169533E+00  0.88000000000E+00 0. -1.
        -11    1    4    4    0    0 -0.20960206156E-01 -0.78930518370E-01 -0.49748716708E-01  0.95627155701E-01  0.51100000000E-03 0.  1.
         11    1    4    4    0    0  0.31362026965E-02 -0.28759564480E-01 -0.16791622451E-01  0.33453968703E-01  0.51100000000E-03 0. -1.
</event>
<event>
 8    1  0.1126414E+005  0.1043930E+01  0.7957747E-01            NaN
         13   -1    0    0    0    0  0.00000000000E+00  0.00000000000E+00  0.74505805969E-08  0.10566000000E+00  0.10566000000E+00 0. -1.
     999900   -1    0    0    0    0 -0.00000000000E+00 -0.00000000000E+00 -0.74505805969E-08  0.93827000000E+00  0.93827000000E+00 0. -1.
     999902    2    1    2    0    0  0.30620590496E-03 -0.16226230666E-01  0.16378207648E-01  0.10208728968E+01  0.10206124834E+01 0.  0.
     999903    2    3    3    0    0 -0.79462372029E-01 -0.94405392813E-01 -0.42148770167E-01  0.13188447471E+00  0.19757253922E-01 0.  0.
         14    1    1    2    0    0 -0.30620590496E-03  0.16226230666E-01 -0.16378207648E-01  0.23057103232E-01  0.00000000000E+00 0.  1.
     999901    1    3    3    0    0  0.79768577934E-01  0.78179162146E-01  0.58526977816E-01  0.88898842206E+00  0.88000000000E+00 0.  1.
        -11    1    4    4    0    0 -0.73201541432E-01 -0.79152607990E-01 -0.41007565359E-01  0.11534939340E+00  0.51100000000E-03 0. -1.
         11    1    4    4    0    0 -0.62608305969E-02 -0.15252784822E-01 -0.11412048089E-02  0.16535081313E-01  0.51100000000E-03 0.  1.
</event>
<event>
 8    1  0.1126414E+005  0.1043930E+01  0.7957747E-01            NaN
         13   -1    0    0    0    0  0.00000000000E+00  0.00000000000E+00  0.74505805969E-08  0.10566000000E+00  0.10566000000E+00 0. -1.
     999900   -1    0    0    0    0 -0.00000000000E+00 -0.00000000000E+00 -0.74505805969E-08  0.93827000000E+00  0.93827000000E+00 0.  1.
     999902    2    1    2    0    0  0.16209611426E-01  0.33506036216E-02  0.16488903661E-01  0.10205663104E+01  0.10202988444E+01 0.  0.
     999903    2    3    3    0    0  0.10217625749E+00 -0.35238279617E-01  0.75876402341E-01  0.13354531791E+00  0.19884656357E-01 0.  0.
         14    1    1    2    0    0 -0.16209611426E-01 -0.33506036216E-02 -0.16488903661E-01  0.23363689587E-01  0.00000000000E+00 0.  1.
     999901    1    3    3    0    0 -0.85966646062E-01  0.38588883239E-01 -0.59387498680E-01  0.88702099250E+00  0.88000000000E+00 0.  1.
        -11    1    4    4    0    0  0.44628825090E-01 -0.23629901529E-01  0.27693954915E-01  0.57596185073E-01  0.51100000000E-03 0. -1.
         11    1    4    4    0    0  0.57547432397E-01 -0.11608378088E-01  0.48182447426E-01  0.75949132835E-01  0.51100000000E-03 0.  1.
</event>
<event>
 8    1  0.1126414E+005  0.1043930E+01  0.7957747E-01            NaN
         13   -1    0    0    0    0  0.00000000000E+00  0.00000000000E+00  0.74505805969E-08  0.10566000000E+00  0.10566000000E+00 0. -1.
     999900   -1    0    0    0    0 -0.00000000000E+00 -0.00000000000E+00 -0.74505805969E-08  0.93827000000E+00  0.93827000000E+00 0. -1.
     999902    2    1    2    0    0 -0.20149952532E-01 -0.20459887258E-02 -0.12145112009E-01  0.10203141070E+01  0.10200407671E+01 0.  0.
     999903    2    3    3    0    0  0.86649767662E-01  0.87884771223E-01 -0.32144907120E-01  0.12908253572E+00  0.19927135431E-01 0.  0.
         14    1    1    2    0    0  0.20149952532E-01  0.20459887258E-02  0.12145112009E-01  0.23615893009E-01  0.00000000000E+00 0.  1.
     999901    1    3    3    0    0 -0.10679972019E+00 -0.89930759949E-01  0.19999795110E-01  0.89123157127E+00  0.88000000000E+00 0. -1.
        -11    1    4    4    0    0  0.68234003577E-01  0.57100234916E-01 -0.25889684168E-01  0.92665273641E-01  0.51100000000E-03 0. -1.
         11    1    4    4    0    0  0.18415764084E-01  0.30784536307E-01 -0.62552229522E-02  0.36417262083E-01  0.51100000000E-03 0.  1.
</event>
<event>
 8    1  0.1126414E+005  0.1043930E+01  0.7957747E-01            NaN
         13   -1    0    0    0    0  0.00000000000E+00  0.00000000000E+00  0.74505805969E-08  0.10566000000E+00  0.10566000000E+00 0. -1.
     999900   -1    0    0    0    0 -0.00000000000E+00 -0.00000000000E+00 -0.74505805969E-08  0.93827000000E+00  0.93827000000E+00 0. -1.
     999902    2    1    2    0    0  0.78332844920E-03  0.23204669238E-01 -0.33438832518E-02  0.10204725527E+01  0.10202029107E+01 0.  0.
     999903    2    3    3    0    0 -0.35448242327E-01 -0.61692050311E-01  0.10567798732E+00  0.12895365332E+00  0.19967993034E-01 0.  0.
         14    1    1    2    0    0 -0.78332844920E-03 -0.23204669238E-01  0.33438832518E-02  0.23457447285E-01  0.00000000000E+00 0. -1.
     999901    1    3    3    0    0  0.36231570776E-01  0.84896719549E-01 -0.10902187057E+00  0.89151889939E+00  0.88000000000E+00 0. -1.
        -11    1    4    4    0    0 -0.22765992628E-01 -0.46373838273E-01  0.89377988671E-01  0.10323521336E+00  0.51100000000E-03 0. -1.
         11    1    4    4    0    0 -0.12682249698E-01 -0.15318212038E-01  0.16299998648E-01  0.25718439968E-01  0.51100000000E-03 0.  1.
</event>
<event>
 8    1  0.1126414E+005  0.1043930E+01  0.7957747E-01            NaN
         13   -1    0    0    0    0  0.00000000000E+00  0.00000000000E+00  0.74505805969E-08  0.10566000000E+00  0.10566000000E+00 0.  1.
     999900   -1    0    0    0    0 -0.00000000000E+00 -0.00000000000E+00 -0.74505805969E-08  0.93827000000E+00  0.93827000000E+00 0. -1.
     999902    2    1    2    0    0 -0.17792676471E-01 -0.12900315560E-01 -0.76973736488E-02  0.10206438015E+01  0.10203781273E+01 0.  0.
     999903    2    3    3    0    0  0.31677446439E-01  0.38589938574E-01  0.11710581877E+00  0.12897436943E+00  0.20687464971E-01 0.  0.
         14    1    1    2    0    0  0.17792676471E-01  0.12900315560E-01  0.76973736488E-02  0.23286198459E-01  0.00000000000E+00 0.  1.
     999901    1    3    3    0    0 -0.49470122910E-01 -0.51490254135E-01 -0.12480319242E+00  0.89166943212E+00  0.88000000000E+00 0. -1.
        -11    1    4    4    0    0  0.31865757790E-01  0.28223388783E-01  0.82367128393E-01  0.92717803870E-01  0.51100000000E-03 0. -1.
         11    1    4    4    0    0 -0.18831135065E-03  0.10366549791E-01  0.34738690377E-01  0.36256565555E-01  0.51100000000E-03 0.  1.
</event>
<event>
 8    1  0.1126414E+005  0.1043930E+01  0.7957747E-01            NaN
         13   -1    0    0    0    0  0.00000000000E+00  0.00000000000E+00  0.74505805969E-08  0.10566000000E+00  0.10566000000E+00 0. -1.
     999900   -1    0    0    0    0 -0.00000000000E+00 -0.00000000000E+00 -0.74505805969E-08  0.93827000000E+00  0.93827000000E+00 0.  1.
     999902    2    1    2    0    0 -0.10857957172E-02  0.19221973079E-02 -0.23223626792E-01  0.10206016774E+01  0.10203350299E+01 0.  0.
     999903    2    3    3    0    0  0.95917690969E-01 -0.50063428042E-01 -0.73570950151E-01  0.13231848231E+00  0.19721708527E-01 0.  0.
         14    1    1    2    0    0  0.10857957172E-02 -0.19221973079E-02  0.23223626792E-01  0.23328322619E-01  0.00000000000E+00 0. -1.
     999901    1    3    3    0    0 -0.97003486686E-01  0.51985625350E-01  0.50347323358E-01  0.88828319507E+00  0.88000000000E+00 0. -1.
        -11    1    4    4    0    0  0.87747146254E-01 -0.51126718810E-01 -0.69877696977E-01  0.12327472047E+00  0.51100000000E-03 0.  1.
         11    1    4    4    0    0  0.81705447142E-02  0.10632907680E-02 -0.36932531741E-02  0.90437618386E-02  0.51100000000E-03 0. -1.
</event>
<event>
 8    1  0.1126414E+005  0.1043930E+01  0.7957747E-01            NaN
         13   -1    0    0    0    0  0.00000000000E+00  0.00000000000E+00  0.74505805969E-08  0.10566000000E+00  0.10566000000E+00 0.  1.
     999900   -1    0    0    0    0 -0.00000000000E+00 -0.00000000000E+00 -0.74505805969E-08  0.93827000000E+00  0.93827000000E+00 0. -1.
     999902    2    1    2    0    0  0.17941873406E-01 -0.79240180294E-03  0.16724911200E-01  0.10193889858E+01  0.10190935399E+01 0.  0.
     999903    2    3    3    0    0  0.93103057318E-02  0.17267194747E-01  0.12903562108E+00  0.13202527881E+00  0.19890825269E-01 0.  0.
         14    1    1    2    0    0 -0.17941873406E-01  0.79240180294E-03 -0.16724911200E-01  0.24541014172E-01  0.00000000000E+00 0. -1.
     999901    1    3    3    0    0  0.86315676739E-02 -0.18059596550E-01 -0.11231070988E+00  0.88736370702E+00  0.88000000000E+00 0. -1.
        -11    1    4    4    0    0  0.12267902348E-01  0.10197378933E-01  0.11429161437E+00  0.11540070277E+00  0.51100000000E-03 0.  1.
         11    1    4    4    0    0 -0.29575966160E-02  0.70698158143E-02  0.14744006710E-01  0.16624576033E-01  0.51100000000E-03 0. -1.
</event>
<event>
 8    1  0.1126414E+005  0.1043930E+01  0.7957747E-01            NaN
         13   -1    0    0    0    0  0.00000000000E+00  0.00000000000E+00  0.74505805969E-08  0.10566000000E+00  0.10566000000E+00 0. -1.
     999900   -1    0    0    0    0 -0.00000000000E+00 -0.00000000000E+00 -0.74505805969E-08  0.93827000000E+00  0.93827000000E+00 0.  1.
     999902    2    1    2    0    0 -0.11383117981E-01 -0.72445745987E-02 -0.18873938338E-01  0.10207290348E+01  0.10204653241E+01 0.  0.
     999903    2    3    3    0    0  0.85513338519E-01  0.72962021259E-01  0.58972529635E-01  0.12838263692E+00  0.19192566264E-01 0.  0.
         14    1    1    2    0    0  0.11383117981E-01  0.72445745987E-02  0.18873938338E-01  0.23200965163E-01  0.00000000000E+00 0.  1.
     999901    1    3    3    0    0 -0.96896456500E-01 -0.80206595858E-01 -0.77846467974E-01  0.89234639792E+00  0.88000000000E+00 0. -1.
        -11    1    4    4    0    0  0.34902659475E-01  0.23411059068E-01  0.31011634840E-01  0.52232709499E-01  0.51100000000E-03 0. -1.
         11    1    4    4    0    0  0.50610679044E-01  0.49550962191E-01  0.27960894795E-01  0.76149927420E-01  0.51100000000E-03 0.  1.
</event>
<event>
 8    1  0.1126414E+005  0.1043930E+01  0.7957747E-01            NaN
         13   -1    0    0    0    0  0.00000000000E+00  0.00000000000E+00  0.74505805969E-08  0.10566000000E+00  0.10566000000E+00 0. -1.
     999900   -1    0    0    0    0 -0.00000000000E+00 -0.00000000000E+00 -0.74505805969E-08  0.93827000000E+00  0.93827000000E+00 0.  1.
     999902    2    1    2    0    0  0.87449239163E-02  0.21887113684E-01 -0.27939150538E-02  0.10201955229E+01  0.10199193986E+01 0.  0.
     999903    2    3    3    0    0  0.10169292883E+00 -0.51148723776E-01 -0.60405200767E-01  0.13042441451E+00  0.20102136739E-01 0.  0.
         14    1    1    2    0    0 -0.87449239163E-02 -0.21887113684E-01  0.27939150538E-02  0.23734477055E-01  0.00000000000E+00 0.  1.
     999901    1    3    3    0    0 -0.92948004915E-01  0.73035837460E-01  0.57611285713E-01  0.88977110844E+00  0.88000000000E+00 0. -1.
        -11    1    4    4    0    0  0.73798217491E-01 -0.31123809154E-01 -0.33587342934E-01  0.86851822822E-01  0.51100000000E-03 0.  1.
         11    1    4    4    0    0  0.27894711340E-01 -0.20024914622E-01 -0.26817857833E-01  0.43572591685E-01  0.51100000000E-03 0. -1.
</event>
<event>
 8    1  0.1126414E+005  0.1043930E+01  0.7957747E-01            NaN
         13   -1    0    0    0    0  0.00000000000E+00  0.00000000000E+00  0.74505805969E-08  0.10566000000E+00  0.10566000000E+00 0. -1.
     999900   -1    0    0    0    0 -0.00000000000E+00 -0.00000000000E+00 -0.74505805969E-08  0.93827000000E+00  0.93827000000E+00 0. -1.
     999902    2    1    2    0    0 -0.14497322009E-01  0.15170962797E-01  0.11459443507E-01  0.10200208113E+01  0.10197405583E+01 0.  0.
     999903    2    3    3    0    0 -0.13050056084E+00 -0.82923262469E-03  0.87712997329E-02  0.13225959129E+00  0.19610705873E-01 0.  0.
         14    1    1    2    0    0  0.14497322009E-01 -0.15170962797E-01 -0.11459443507E-01  0.23909188675E-01  0.00000000000E+00 0.  1.
     999901    1    3    3    0    0  0.11600323883E+00  0.16000195422E-01  0.26881437738E-02  0.88776122003E+00  0.88000000000E+00 0.  1.
        -11    1    4    4    0    0 -0.60737123688E-01 -0.76099733533E-02 -0.24996111510E-02  0.61265153760E-01  0.51100000000E-03 0.  1.
         11    1    4    4    0    0 -0.69763437150E-01  0.67807407286E-02  0.11270910884E-01  0.70994437535E-01  0.51100000000E-03 0. -1.
</event>
<event>
 8    1  0.1126414E+005  0.1043930E+01  0.7957747E-01            NaN
         13   -1    0    0    0    0  0.00000000000E+00  0.00000000000E+00  0.74505805969E-08  0.10566000000E+00  0.10566000000E+00 0.  1.
     999900   -1    0    0    0    0 -0.00000000000E+00 -0.00000000000E+00 -0.74505805969E-08  0.93827000000E+00  0.93827000000E+00 0.  1.
     999902    2    1    2    0    0  0.21216897874E-01  0.74002119600E-02 -0.10946722874E-01  0.10189349878E+01  0.10186283713E+01 0.  0.
     999903    2    3    3    0    0 -0.42779886081E-01 -0.10635841108E+00  0.51280485641E-01  0.12713409179E+00  0.19777735639E-01 0.  0.
         14    1    1    2    0    0 -0.21216897874E-01 -0.74002119600E-02  0.10946722874E-01  0.24995012185E-01  0.00000000000E+00 0.  1.
     999901    1    3    3    0    0  0.63996783955E-01  0.11375862304E+00 -0.62227208516E-01  0.89180089603E+00  0.88000000000E+00 0.  1.
        -11    1    4    4    0    0 -0.40396337273E-01 -0.83075229504E-01  0.35819963883E-01  0.99079204457E-01  0.51100000000E-03 0. -1.
         11    1    4    4    0    0 -0.23835488080E-02 -0.23283181576E-01  0.15460521758E-01  0.28054887333E-01  0.51100000000E-03 0.  1.
</event>
<event>
 7    1  0.2205971E+005  0.1043930E+01  0.7957747E-01            NaN
         13   -1    0    0    0    0  0.00000000000E+00  0.00000000000E+00  0.74505805969E-08  0.10566000000E+00  0.10566000000E+00 0. -1.
     999900   -1    0    0    0    0 -0.00000000000E+00 -0.00000000000E+00 -0.74505805969E-08  0.93827000000E+00  0.93827000000E+00 0.  1.
     999903    2    1    2    0    0  0.13494563546E-01 -0.92885363665E-01  0.29627255856E-01  0.10050504204E+00  0.20339497477E-01 0.  0.
         14    1    1    2    0    0  0.25774444590E-01  0.14749638598E-01 -0.50793298204E-01  0.58837343372E-01  0.00000000000E+00 0.  1.
     999901    1    1    2    0    0 -0.39269008137E-01  0.78135725067E-01  0.21166042347E-01  0.88458761459E+00  0.88000000000E+00 0.  1.
        -11    1    3    3    0    0  0.10399239330E-01 -0.28108083899E-01  0.16914500259E-01  0.34417582703E-01  0.51100000000E-03 0. -1.
         11    1    3    3    0    0  0.30953242160E-02 -0.64777279766E-01  0.12712755598E-01  0.66087459338E-01  0.51100000000E-03 0.  1.
</event>
<event>
 8    1  0.1126414E+005  0.1043930E+01  0.7957747E-01            NaN
         13   -1    0    0    0    0  0.00000000000E+00  0.00000000000E+00  0.74505805969E-08  0.10566000000E+00  0.10566000000E+00 0.  1.
     999900   -1    0    0    0    0 -0.00000000000E+00 -0.00000000000E+00 -0.74505805969E-08  0.93827000000E+00  0.93827000000E+00 0. -1.
     999902    2    1    2    0    0  0.17985513750E-01 -0.81126937204E-02 -0.13651756465E-01  0.10199369810E+01  0.10196547358E+01 0.  0.
     999903    2    3    3    0    0 -0.85627142538E-01  0.14202135707E-01  0.91191853810E-01  0.12739806493E+00  0.19509088872E-01 0.  0.
         14    1    1    2    0    0 -0.17985513750E-01  0.81126937204E-02  0.13651756465E-01  0.23993018960E-01  0.00000000000E+00 0.  1.
     999901    1    3    3    0    0  0.10361265629E+00 -0.22314829428E-01 -0.10484361027E+00  0.89253891611E+00  0.88000000000E+00 0. -1.
        -11    1    4    4    0    0 -0.54030623240E-01  0.18224287247E-01  0.55841457652E-01  0.79812044248E-01  0.51100000000E-03 0.  1.
         11    1    4    4    0    0 -0.31596519299E-01 -0.40221515402E-02  0.35350396158E-01  0.47586020682E-01  0.51100000000E-03 0. -1.
</event>
<event>
 8    1  0.1126414E+005  0.1043930E+01  0.7957747E-01            NaN
         13   -1    0    0    0    0  0.00000000000E+00  0.00000000000E+00  0.74505805969E-08  0.10566000000E+00  0.10566000000E+00 0.  1.
     999900   -1    0    0    0    0 -0.00000000000E+00 -0.00000000000E+00 -0.74505805969E-08  0.93827000000E+00  0.93827000000E+00 0. -1.
     999902    2    1    2    0    0  0.13450228230E-01 -0.17112259451E-01  0.10959216723E-01  0.10195611163E+01  0.10192698501E+01 0.  0.
     999903    2    3    3    0    0 -0.51412226095E-01 -0.57273840874E-01 -0.10163535114E+00  0.12911312379E+00  0.20419213838E-01 0.  0.
         14    1    1    2    0    0 -0.13450228230E-01  0.17112259451E-01 -0.10959216723E-01  0.24368883728E-01  0.00000000000E+00 0.  1.
     999901    1    3    3    0    0  0.64862454325E-01  0.40161581423E-01  0.11259456786E+00  0.89044799248E+00  0.88000000000E+00 0.  1.
        -11    1    4    4    0    0 -0.19365857448E-01 -0.21919391928E-01 -0.55502809862E-01  0.62740092451E-01  0.51100000000E-03 0. -1.
         11    1    4    4    0    0 -0.32046368647E-01 -0.35354448946E-01 -0.46132541274E-01  0.66373031339E-01  0.51100000000E-03 0.  1.
</event>
<event>
 8    1  0.1126414E+005  0.1043930E+01  0.7957747E-01            NaN
         13   -1    0    0    0    0  0.00000000000E+00  0.00000000000E+00  0.74505805969E-08  0.10566000000E+00  0.10566000000E+00 0. -1.
     999900   -1    0    0    0    0 -0.00000000000E+00 -0.00000000000E+00 -0.74505805969E-08  0.93827000000E+00  0.93827000000E+00 0.  1.
     999902    2    1    2    0    0  0.16915352021E-02  0.18318042592E-01 -0.14109015188E-01  0.10207464652E+01  0.10204831552E+01 0.  0.
     999903    2    3    3    0    0  0.10598474639E+00  0.19514086013E-01 -0.74438524010E-01  0.13253581787E+00  0.20275185332E-01 0.  0.
         14    1    1    2    0    0 -0.16915352021E-02 -0.18318042592E-01  0.14109015188E-01  0.23183534789E-01  0.00000000000E+00 0.  1.
     999901    1    3    3    0    0 -0.10429321119E+00 -0.11960434204E-02  0.60329508822E-01  0.88821064734E+00  0.88000000000E+00 0.  1.
        -11    1    4    4    0    0  0.95577741308E-01  0.22426923922E-01 -0.71087882377E-01  0.12120981681E+00  0.51100000000E-03 0.  1.
         11    1    4    4    0    0  0.10407005084E-01 -0.29128379095E-02 -0.33506416322E-02  0.11326001053E-01  0.51100000000E-03 0. -1.
</event>
<event>
 8    1  0.1126414E+005  0.1043930E+01  0.7957747E-01            NaN
         13   -1    0    0    0    0  0.00000000000E+00  0.00000000000E+00  0.74505805969E-08  0.10566000000E+00  0.10566000000E+00 0.  1.
     999900   -1    0    0    0    0 -0.00000000000E+00 -0.00000000000E+00 -0.74505805969E-08  0.93827000000E+00  0.93827000000E+00 0. -1.
     999902    2    1    2    0    0 -0.10885729977E-01 -0.21327409591E-01  0.30819429586E-02  0.10197875915E+01  0.10195017782E+01 0.  0.
     999903    2    3    3    0    0  0.22904397793E-02 -0.18947204890E-02  0.12882459025E+00  0.13053933918E+00  0.20878408464E-01 0.  0.
         14    1    1    2    0    0  0.10885729977E-01  0.21327409591E-01 -0.30819429586E-02  0.24142408525E-01  0.00000000000E+00 0. -1.
     999901    1    3    3    0    0 -0.13176169756E-01 -0.19432689102E-01 -0.12574264730E+00  0.88924825229E+00  0.88000000000E+00 0. -1.
        -11    1    4    4    0    0  0.29407319742E-02 -0.11249447640E-01  0.76110729772E-01  0.76995469244E-01  0.51100000000E-03 0. -1.
         11    1    4    4    0    0 -0.65029219496E-03  0.93547271514E-02  0.52713860483E-01  0.53543869939E-01  0.51100000000E-03 0.  1.
</event>
<event>
 8    1  0.1126414E+005  0.1043930E+01  0.7957747E-01            NaN
         13   -1    0    0    0    0  0.00000000000E+00  0.00000000000E+00  0.74505805969E-08  0.10566000000E+00  0.10566000000E+00 0.  1.
     999900   -1    0    0    0    0 -0.00000000000E+00 -0.00000000000E+00 -0.74505805969E-08  0.93827000000E+00  0.93827000000E+00 0. -1.
     999902    2    1    2    0    0  0.27493825139E-02 -0.13563377198E-01 -0.19511411870E-01  0.10200088901E+01  0.10197283542E+01 0.  0.
     999903    2    3    3    0    0  0.77731886896E-01 -0.27791567344E-01  0.97041654555E-01  0.12904905114E+00  0.20541602331E-01 0.  0.
         14    1    1    2    0    0 -0.27493825139E-02  0.13563377198E-01  0.19511411870E-01  0.23921109890E-01  0.00000000000E+00 0.  1.
     999901    1    3    3    0    0 -0.74982504382E-01  0.14228190147E-01 -0.11655306643E+00  0.89095983897E+00  0.88000000000E+00 0. -1.
        -11    1    4    4    0    0  0.65670980684E-01 -0.16809314396E-01  0.85236592488E-01  0.10890715575E+00  0.51100000000E-03 0. -1.
         11    1    4    4    0    0  0.12060906212E-01 -0.10982252948E-01  0.11805062067E-01  0.20141895389E-01  0.51100000000E-03 0.  1.
</event>
<event>
 8    1  0.1126414E+005  0.1043930E+01  0.7957747E-01            NaN
         13   -1    0    0    0    0  0.00000000000E+00  0.00000000000E+00  0.74505805969E-08  0.10566000000E+00  0.10566000000E+00 0. -1.
     999900   -1    0    0    0    0 -0.00000000000E+00 -0.00000000000E+00 -0.74505805969E-08  0.93827000000E+00  0.93827000000E+00 0.  1.
     999902    2    1    2    0    0  0.65542674875E-02  0.14208331339E-01 -0.18887982868E-01  0.10194026480E+01  0.10191075349E+01 0.  0.
     999903    2    3    3    0    0 -0.85436990479E-01  0.33433193182E-01  0.86334892237E-01  0.12816539542E+00  0.23566866927E-01 0.  0.
         14    1    1    2    0    0 -0.65542674875E-02 -0.14208331339E-01  0.18887982868E-01  0.24527352050E-01  0.00000000000E+00 0. -1.
     999901    1    3    3    0    0  0.91991257966E-01 -0.19224861842E-01 -0.10522287511E+00  0.89123725253E+00  0.88000000000E+00 0.  1.
        -11    1    4    4    0    0 -0.17900880440E-01  0.16535733993E-01  0.29681041574E-01  0.38406996357E-01  0.51100000000E-03 0. -1.
         11    1    4    4    0    0 -0.67536110038E-01  0.16897459189E-01  0.56653850663E-01  0.89758399062E-01  0.51100000000E-03 0.  1.
</event>
<event>
 8    1  0.1126414E+005  0.1043930E+01  0.7957747E-01            NaN
         13   -1    0    0    0    0  0.00000000000E+00  0.00000000000E+00  0.74505805969E-08  0.10566000000E+00  0.10566000000E+00 0.  1.
     999900   -1    0    0    0    0 -0.00000000000E+00 -0.00000000000E+00 -0.74505805969E-08  0.93827000000E+00  0.93827000000E+00 0. -1.
     999902    2    1    2    0    0 -0.18535399424E-01  0.57658125906E-02 -0.12901899408E-01  0.10206219620E+01  0.10203557834E+01 0.  0.
     999903    2    3    3    0    0  0.81000548943E-01  0.97419906404E-01  0.18621648504E-01  0.12972263436E+00  0.20723633366E-01 0.  0.
         14    1    1    2    0    0  0.18535399424E-01 -0.57658125906E-02  0.12901899408E-01  0.23308037991E-01  0.00000000000E+00 0. -1.
     999901    1    3    3    0    0 -0.99535948367E-01 -0.91654093813E-01 -0.31523547912E-01  0.89089932765E+00  0.88000000000E+00 0. -1.
        -11    1    4    4    0    0  0.60394577049E-01  0.73203429748E-01  0.47316226857E-02  0.95020505356E-01  0.51100000000E-03 0.  1.
         11    1    4    4    0    0  0.20605971895E-01  0.24216476656E-01  0.13890025818E-01  0.34702129006E-01  0.51100000000E-03 0. -1.
</event>
<event>
 8    1  0.1126414E+005  0.1043930E+01  0.7957747E-01            NaN
         13   -1    0    0    0    0  0.00000000000E+00  0.00000000000E+00  0.74505805969E-08  0.10566000000E+00  0.10566000000E+00 0. -1.
     999900   -1    0    0    0    0 -0.00000000000E+00 -0.00000000000E+00 -0.74505805969E-08  0.93827000000E+00  0.93827000000E+00 0. -1.
     999902    2    1    2    0    0  0.18223643063E-01 -0.91770322468E-02 -0.11002006352E-01  0.10207489036E+01  0.10204856495E+01 0.  0.
     999903    2    3    3    0    0 -0.22937731776E-01  0.76184116362E-01 -0.10211565294E+00  0.13098349570E+00  0.19972742588E-01 0.  0.
         14    1    1    2    0    0 -0.18223643063E-01  0.91770322468E-02  0.11002006352E-01  0.23181096418E-01  0.00000000000E+00 0.  1.
     999901    1    3    3    0    0  0.41161374839E-01 -0.85361148609E-01  0.91113646584E-01  0.88976540788E+00  0.88000000000E+00 0.  1.
        -11    1    4    4    0    0 -0.13566758337E-01  0.16219684170E-01 -0.30350169220E-01  0.36993634304E-01  0.51100000000E-03 0. -1.
         11    1    4    4    0    0 -0.93709734386E-02  0.59964432192E-01 -0.71765483716E-01  0.93989861396E-01  0.51100000000E-03 0.  1.
</event>
<event>
 8    1  0.1126414E+005  0.1043930E+01  0.7957747E-01            NaN
         13   -1    0    0    0    0  0.00000000000E+00  0.00000000000E+00  0.74505805969E-08  0.10566000000E+00  0.10566000000E+00 0. -1.
     999900   -1    0    0    0    0 -0.00000000000E+00 -0.00000000000E+00 -0.74505805969E-08  0.93827000000E+00  0.93827000000E+00 0.  1.
     999902    2    1    2    0    0  0.50375388697E-02  0.21139865660E-02  0.22709803435E-01  0.10205723265E+01  0.10203049999E+01 0.  0.
     999903    2    3    3    0    0 -0.12587356838E+00 -0.23448895116E-01 -0.61878789893E-02  0.13005211062E+00  0.21937541604E-01 0.  0.
         14    1    1    2    0    0 -0.50375388697E-02 -0.21139865660E-02 -0.22709803435E-01  0.23357673453E-01  0.00000000000E+00 0.  1.
     999901    1    3    3    0    0  0.13091110725E+00  0.25562881682E-01  0.28897682425E-01  0.89052021592E+00  0.88000000000E+00 0.  1.
        -11    1    4    4    0    0 -0.46853016575E-01 -0.11050366485E-01 -0.12730568661E-01  0.49796026559E-01  0.51100000000E-03 0.  1.
         11    1    4    4    0    0 -0.79020551806E-01 -0.12398528632E-01  0.65426896715E-02  0.80256084063E-01  0.51100000000E-03 0. -1.
</event>
<event>
 8    1  0.1126414E+005  0.1043930E+01  0.7957747E-01            NaN
         13   -1    0    0    0    0  0.00000000000E+00  0.00000000000E+00  0.74505805969E-08  0.10566000000E+00  0.10566000000E+00 0. -1.
     999900   -1    0    0    0    0 -0.00000000000E+00 -0.00000000000E+00 -0.74505805969E-08  0.93827000000E+00  0.93827000000E+00 0. -1.
     999902    2    1    2    0    0 -0.67967528300E-02  0.21045612041E-01  0.12177970474E-01  0.10186828893E+01  0.10183699781E+01 0.  0.
     999903    2    3    3    0    0 -0.42110329798E-01  0.10253433968E+00 -0.66342946899E-01  0.13073413179E+00  0.20086212250E-01 0.  0.
         14    1    1    2    0    0  0.67967528300E-02 -0.21045612041E-01 -0.12177970474E-01  0.25247110727E-01  0.00000000000E+00 0.  1.
     999901    1    3    3    0    0  0.35313576968E-01 -0.81488727637E-01  0.78520917374E-01  0.88794875748E+00  0.88000000000E+00 0. -1.
        -11    1    4    4    0    0 -0.47677317838E-02  0.61653111350E-02  0.19937504329E-03  0.78130147294E-02  0.51100000000E-03 0. -1.
         11    1    4    4    0    0 -0.37342598014E-01  0.96369028543E-01 -0.66542321943E-01  0.12292111706E+00  0.51100000000E-03 0.  1.
</event>
<event>
 8    1  0.1195821E+005  0.1043930E+01  0.7957747E-01            NaN
         13   -1    0    0    0    0  0.00000000000E+00  0.00000000000E+00  0.74505805969E-08  0.10566000000E+00  0.10566000000E+00 0. -1.
     999900   -1    0    0    0    0 -0.00000000000E+00 -0.00000000000E+00 -0.74505805969E-08  0.93827000000E+00  0.93827000000E+00 0. -1.
     999902    2    1    2    0    0  0.13499348068E-01  0.19061337914E-01  0.63789067723E-02  0.10197172461E+01  0.10194297447E+01 0.  0.
     999903    2    3    3    0    0 -0.66630301193E-01 -0.97804361465E-01  0.42727027494E-01  0.12764127494E+00  0.21480363861E-01 0.  0.
         14    1    1    2    0    0 -0.13499348068E-01 -0.19061337914E-01 -0.63789067723E-02  0.24212753932E-01  0.00000000000E+00 0. -1.
     999901    1    3    3    0    0  0.80129649261E-01  0.11686569938E+00 -0.36348120722E-01  0.89207597113E+00  0.88000000000E+00 0.  1.
        -11    1    4    4    0    0 -0.29817850553E-01 -0.41511512025E-01  0.29740923070E-01  0.59136228052E-01  0.51100000000E-03 0.  1.
         11    1    4    4    0    0 -0.36812450640E-01 -0.56292849440E-01  0.12986104424E-01  0.68505046889E-01  0.51100000000E-03 0. -1.
</event>
<event>
 8    1  0.1394465E+005  0.1043930E+01  0.7957747E-01            NaN
         13   -1    0    0    0    0  0.00000000000E+00  0.00000000000E+00  0.74505805969E-08  0.10566000000E+00  0.10566000000E+00 0.  1.
     999900   -1    0    0    0    0 -0.00000000000E+00 -0.00000000000E+00 -0.74505805969E-08  0.93827000000E+00  0.93827000000E+00 0. -1.
     999902    2    1    2    0    0  0.13181552378E-01  0.19883766063E-01  0.11856237342E-02  0.10200443729E+01  0.10197646785E+01 0.  0.
     999903    2    3    3    0    0  0.41347517912E-01  0.18982136682E-01 -0.12120186066E+00  0.13112771157E+00  0.20848188471E-01 0.  0.
         14    1    1    2    0    0 -0.13181552378E-01 -0.19883766063E-01 -0.11856237342E-02  0.23885627051E-01  0.00000000000E+00 0. -1.
     999901    1    3    3    0    0 -0.28165965534E-01  0.90162938111E-03  0.12238748439E+00  0.88891666138E+00  0.88000000000E+00 0.  1.
        -11    1    4    4    0    0  0.28759240487E-01  0.21404488724E-01 -0.74231762739E-01  0.82437016996E-01  0.51100000000E-03 0. -1.
         11    1    4    4    0    0  0.12588277425E-01 -0.24223520417E-02 -0.46970097920E-01  0.48690694569E-01  0.51100000000E-03 0.  1.
</event>
<event>
 8    1  0.1126414E+005  0.1043930E+01  0.7957747E-01            NaN
         13   -1    0    0    0    0  0.00000000000E+00  0.00000000000E+00  0.74505805969E-08  0.10566000000E+00  0.10566000000E+00 0.  1.
     999900   -1    0    0    0    0 -0.00000000000E+00 -0.00000000000E+00 -0.74505805969E-08  0.93827000000E+00  0.93827000000E+00 0.  1.
     999902    2    1    2    0    0 -0.97140164135E-02 -0.24187140251E-02 -0.24347613549E-01  0.10176047540E+01  0.10172641824E+01 0.  0.
     999903    2    3    3    0    0  0.92061838929E-01 -0.45083967653E-01  0.70309918958E-01  0.12567499382E+00  0.18514130870E-01 0.  0.
         14    1    1    2    0    0  0.97140164135E-02  0.24187140251E-02  0.24347613549E-01  0.26325246019E-01  0.00000000000E+00 0.  1.
     999901    1    3    3    0    0 -0.10177585534E+00  0.42665253628E-01 -0.94657532508E-01  0.89192976016E+00  0.88000000000E+00 0.  1.
        -11    1    4    4    0    0  0.21489787196E-01 -0.23191704489E-02  0.15756591341E-01  0.26752958658E-01  0.51100000000E-03 0.  1.
         11    1    4    4    0    0  0.70572051733E-01 -0.42764797204E-01  0.54553327618E-01  0.98922035164E-01  0.51100000000E-03 0. -1.
</event>
<event>
 8    1  0.1126414E+005  0.1043930E+01  0.7957747E-01            NaN
         13   -1    0    0    0    0  0.00000000000E+00  0.00000000000E+00  0.74505805969E-08  0.10566000000E+00  0.10566000000E+00 0. -1.
     999900   -1    0    0    0    0 -0.00000000000E+00 -0.00000000000E+00 -0.74505805969E-08  0.93827000000E+00  0.93827000000E+00 0. -1.
     999902    2    1    2    0    0  0.23224028148E-01  0.26638734345E-02  0.47688641719E-02  0.10200722178E+01  0.10197931829E+01 0.  0.
     999903    2    3    3    0    0 -0.89902046811E-01 -0.57641367636E-01  0.68638267052E-01  0.12849298322E+00  0.19857737794E-01 0.  0.
         14    1    1    2    0    0 -0.23224028148E-01 -0.26638734345E-02 -0.47688641719E-02  0.23857782180E-01  0.00000000000E+00 0.  1.
     999901    1    3    3    0    0  0.11312607496E+00  0.60305241070E-01 -0.63869402880E-01  0.89157923459E+00  0.88000000000E+00 0. -1.
        -11    1    4    4    0    0 -0.40239379012E-01 -0.29251780275E-01  0.43184890400E-01  0.65879208802E-01  0.51100000000E-03 0. -1.
         11    1    4    4    0    0 -0.49662667799E-01 -0.28389587361E-01  0.25453376652E-01  0.62613774423E-01  0.51100000000E-03 0.  1.
</event>
<event>
 8    1  0.1126414E+005  0.1043930E+01  0.7957747E-01            NaN
         13   -1    0    0    0    0  0.00000000000E+00  0.00000000000E+00  0.74505805969E-08  0.10566000000E+00  0.10566000000E+00 0.  1.
     999900   -1    0    0    0    0 -0.00000000000E+00 -0.00000000000E+00 -0.74505805969E-08  0.93827000000E+00  0.93827000000E+00 0.  1.
     999902    2    1    2    0    0  0.23171861897E-01 -0.34465923934E-02 -0.18125631455E-02  0.10204332009E+01  0.10201626429E+01 0.  0.
     999903    2    3    3    0    0 -0.20330707476E-01  0.10972390006E+00  0.63344407927E-01  0.12973377641E+00  0.19122416569E-01 0.  0.
         14    1    1    2    0    0 -0.23171861897E-01  0.34465923934E-02  0.18125631455E-02  0.23496799102E-01  0.00000000000E+00 0.  1.
     999901    1    3    3    0    0  0.43502569373E-01 -0.11317049245E+00 -0.65156971072E-01  0.89069942449E+00  0.88000000000E+00 0.  1.
        -11    1    4    4    0    0 -0.18258020735E-01  0.84354667620E-01  0.39751096575E-01  0.95023555345E-01  0.51100000000E-03 0.  1.
         11    1    4    4    0    0 -0.20726867410E-02  0.25369232438E-01  0.23593311352E-01  0.34710221065E-01  0.51100000000E-03 0. -1.
</event>
<event>
 8    1  0.1126414E+005  0.1043930E+01  0.7957747E-01            NaN
         13   -1    0    0    0    0  0.00000000000E+00  0.00000000000E+00  0.74505805969E-08  0.10566000000E+00  0.10566000000E+00 0.  1.
     999900   -1    0    0    0    0 -0.00000000000E+00 -0.00000000000E+00 -0.74505805969E-08  0.93827000000E+00  0.93827000000E+00 0. -1.
     999902    2    1    2    0    0 -0.12580525645E-01  0.19297383476E-01  0.29266298387E-02  0.10207088072E+01  0.10204446311E+01 0.  0.
     999903    2    3    3    0    0 -0.78217904107E-02  0.72402846392E-01 -0.10843608810E+00  0.13208937754E+00  0.19643469313E-01 0.  0.
         14    1    1    2    0    0  0.12580525645E-01 -0.19297383476E-01 -0.29266298387E-02  0.23221192836E-01  0.00000000000E+00 0.  1.
     999901    1    3    3    0    0 -0.47587352344E-02 -0.53105462916E-01  0.11136271794E+00  0.88861942962E+00  0.88000000000E+00 0. -1.
        -11    1    4    4    0    0  0.13126752851E-02  0.55616427937E-01 -0.72517851380E-01  0.91400273865E-01  0.51100000000E-03 0.  1.
         11    1    4    4    0    0 -0.91344656958E-02  0.16786418455E-01 -0.35918236720E-01  0.40689103678E-01  0.51100000000E-03 0. -1.
</event>
<event>
 8    1  0.1126414E+005  0.1043930E+01  0.7957747E-01            NaN
         13   -1    0    0    0    0  0.00000000000E+00  0.00000000000E+00  0.74505805969E-08  0.10566000000E+00  0.10566000000E+00 0. -1.
     999900   -1    0    0    0    0 -0.00000000000E+00 -0.00000000000E+00 -0.74505805969E-08  0.93827000000E+00  0.93827000000E+00 0.  1.
     999902    2    1    2    0    0 -0.12176040968E-01 -0.19286731482E-02  0.19997241173E-01  0.10204381842E+01  0.10201677423E+01 0.  0.
     999903    2    3    3    0    0 -0.10234889932E-01  0.12692768857E+00  0.22318564222E-01  0.13104900138E+00  0.21455334001E-01 0.  0.
         14    1    1    2    0    0  0.12176040968E-01  0.19286731482E-02 -0.19997241173E-01  0.23491815773E-01  0.00000000000E+00 0.  1.
     999901    1    3    3    0    0 -0.19411510361E-02 -0.12885636172E+00 -0.23213230486E-02  0.88938918285E+00  0.88000000000E+00 0. -1.
        -11    1    4    4    0    0 -0.13509428880E-01  0.10852351082E+00  0.24928632472E-01  0.11216753054E+00  0.51100000000E-03 0. -1.
         11    1    4    4    0    0  0.32745389480E-02  0.18404177752E-01 -0.26100682503E-02  0.18881470846E-01  0.51100000000E-03 0.  1.
</event>
<event>
 8    1  0.1126414E+005  0.1043930E+01  0.7957747E-01            NaN
         13   -1    0    0    0    0  0.00000000000E+00  0.00000000000E+00  0.74505805969E-08  0.10566000000E+00  0.10566000000E+00 0. -1.
     999900   -1    0    0    0    0 -0.00000000000E+00 -0.00000000000E+00 -0.74505805969E-08  0.93827000000E+00  0.93827000000E+00 0.  1.
     999902    2    1    2    0    0 -0.12087756058E-01 -0.16456136148E-01 -0.11883276437E-01  0.10203052138E+01  0.10200316656E+01 0.  0.
     999903    2    3    3    0    0 -0.16359674979E-01 -0.56798955949E-01 -0.11812490092E+00  0.13298730282E+00  0.15439239958E-01 0.  0.
         14    1    1    2    0    0  0.12087756058E-01  0.16456136148E-01  0.11883276437E-01  0.23624786186E-01  0.00000000000E+00 0. -1.
     999901    1    3    3    0    0  0.42719189214E-02  0.40342819801E-01  0.10624162449E+00  0.88731791100E+00  0.88000000000E+00 0. -1.
        -11    1    4    4    0    0 -0.12780008022E-01 -0.19838218928E-01 -0.39122056850E-01  0.45691136870E-01  0.51100000000E-03 0.  1.
         11    1    4    4    0    0 -0.35796669569E-02 -0.36960737021E-01 -0.79002844073E-01  0.87296165948E-01  0.51100000000E-03 0. -1.
</event>
<event>
 8    1  0.1126414E+005  0.1043930E+01  0.7957747E-01            NaN
         13   -1    0    0    0    0  0.00000000000E+00  0.00000000000E+00  0.74505805969E-08  0.10566000000E+00  0.10566000000E+00 0.  1.
     999900   -1    0    0    0    0 -0.00000000000E+00 -0.00000000000E+00 -0.74505805969E-08  0.93827000000E+00  0.93827000000E+00 0. -1.
     999902    2    1    2    0    0 -0.13833766942E-01  0.12905441720E-01  0.13340977823E-01  0.10207803732E+01  0.10205178416E+01 0.  0.
     999903    2    3    3    0    0 -0.12323101286E+00 -0.28738588861E-01  0.35059482293E-01  0.13276366378E+00  0.19627381378E-01 0.  0.
         14    1    1    2    0    0  0.13833766942E-01 -0.12905441720E-01 -0.13340977823E-01  0.23149626845E-01  0.00000000000E+00 0. -1.
     999901    1    3    3    0    0  0.10939724592E+00  0.41644030582E-01 -0.21718504470E-01  0.88801670938E+00  0.88000000000E+00 0.  1.
        -11    1    4    4    0    0 -0.58438950158E-01 -0.14038607861E-01  0.65323022602E-02  0.60457633927E-01  0.51100000000E-03 0. -1.
         11    1    4    4    0    0 -0.64792062705E-01 -0.14699981001E-01  0.28527180033E-01  0.72306029850E-01  0.51100000000E-03 0.  1.
</event>
<event>
 8    1  0.1126414E+005  0.1043930E+01  0.7957747E-01            NaN
         13   -1    0    0    0    0  0.00000000000E+00  0.00000000000E+00  0.74505805969E-08  0.10566000000E+00  0.10566000000E+00 0. -1.
     999900   -1    0    0    0    0 -0.00000000000E+00 -0.00000000000E+00 -0.74505805969E-08  0.93827000000E+00  0.93827000000E+00 0. -1.
     999902    2    1    2    0    0 -0.18119508590E-01  0.13059866581E-01  0.89198958364E-02  0.10198791944E+01  0.10195955718E+01 0.  0.
     999903    2    3    3    0    0 -0.33616678537E-01  0.12351971490E+00 -0.24630694688E-01  0.13220403848E+00  0.22000809667E-01 0.  0.
         14    1    1    2    0    0  0.18119508590E-01 -0.13059866581E-01 -0.89198958364E-02  0.24050805566E-01  0.00000000000E+00 0.  1.
     999901    1    3    3    0    0  0.15497169947E-01 -0.11045984832E+00  0.33550590525E-01  0.88767515595E+00  0.88000000000E+00 0.  1.
        -11    1    4    4    0    0 -0.14135715873E-01  0.87956510433E-01 -0.13104879254E-01  0.90045350641E-01  0.51100000000E-03 0.  1.
         11    1    4    4    0    0 -0.19480962664E-01  0.35563204466E-01 -0.11525815434E-01  0.42158687842E-01  0.51100000000E-03 0. -1.
</event>
<event>
 8    1  0.1126414E+005  0.1043930E+01  0.7957747E-01            NaN
         13   -1    0    0    0    0  0.00000000000E+00  0.00000000000E+00  0.74505805969E-08  0.10566000000E+00  0.10566000000E+00 0. -1.
     999900   -1    0    0    0    0 -0.00000000000E+00 -0.00000000000E+00 -0.74505805969E-08  0.93827000000E+00  0.93827000000E+00 0. -1.
     999902    2    1    2    0    0  0.11266101043E-01  0.20258430683E-01 -0.61659276372E-03  0.10207414418E+01  0.10204780163E+01 0.  0.
     999903    2    3    3    0    0  0.73432089083E-01  0.10426613123E+00  0.35257183167E-01  0.13383173293E+00  0.20103878892E-01 0.  0.
         14    1    1    2    0    0 -0.11266101043E-01 -0.20258430683E-01  0.61659276372E-03  0.23188558237E-01  0.00000000000E+00 0.  1.
     999901    1    3    3    0    0 -0.62165988040E-01 -0.84007700544E-01 -0.35873775931E-01  0.88690970883E+00  0.88000000000E+00 0. -1.
        -11    1    4    4    0    0  0.51610972615E-01  0.56145402433E-01  0.20774628635E-01  0.79043311067E-01  0.51100000000E-03 0.  1.
         11    1    4    4    0    0  0.21821116468E-01  0.48120728794E-01  0.14482554532E-01  0.54788421865E-01  0.51100000000E-03 0. -1.
</event>
<event>
 8    1  0.1126414E+005  0.1043930E+01  0.7957747E-01            NaN
         13   -1    0    0    0    0  0.00000000000E+00  0.00000000000E+00  0.74505805969E-08  0.10566000000E+00  0.10566000000E+00 0.  1.
     999900   -1    0    0    0    0 -0.00000000000E+00 -0.00000000000E+00 -0.74505805969E-08  0.93827000000E+00  0.93827000000E+00 0.  1.
     999902    2    1    2    0    0  0.13491741177E-01 -0.74314728133E-02 -0.16667933363E-01  0.10212347611E+01  0.10209825480E+01 0.  0.
     999903    2    3    3    0    0 -0.98562947636E-01  0.34178583305E-01 -0.72241870832E-01  0.13141673888E+00  0.34185393873E-01 0.  0.
         14    1    1    2    0    0 -0.13491741177E-01  0.74314728133E-02  0.16667933363E-01  0.22695238944E-01  0.00000000000E+00 0.  1.
     999901    1    3    3    0    0  0.11205468881E+00 -0.41610056118E-01  0.55573937470E-01  0.88981802217E+00  0.88000000000E+00 0. -1.
        -11    1    4    4    0    0 -0.47406422824E-01  0.33124907454E-01 -0.46074325966E-01  0.73944121153E-01  0.51100000000E-03 0. -1.
         11    1    4    4    0    0 -0.51156524811E-01  0.10536758509E-02 -0.26167544866E-01  0.57472617731E-01  0.51100000000E-03 0.  1.
</event>
<event>
 8    1  0.1126414E+005  0.1043930E+01  0.7957747E-01            NaN
         13   -1    0    0    0    0  0.00000000000E+00  0.00000000000E+00  0.74505805969E-08  0.10566000000E+00  0.10566000000E+00 0.  1.
     999900   -1    0    0    0    0 -0.00000000000E+00 -0.00000000000E+00 -0.74505805969E-08  0.93827000000E+00  0.93827000000E+00 0. -1.
     999902    2    1    2    0    0 -0.19871879395E-02 -0.56807339074E-02 -0.25810660671E-01  0.10174269840E+01  0.10170817361E+01 0.  0.
     999903    2    3    3    0    0 -0.92654158383E-01  0.83996383323E-01 -0.20052036861E-01  0.12821629656E+00  0.19928598648E-01 0.  0.
         14    1    1    2    0    0  0.19871879395E-02  0.56807339074E-02  0.25810660671E-01  0.26503016015E-01  0.00000000000E+00 0.  1.
     999901    1    3    3    0    0  0.90666970443E-01 -0.89677117230E-01 -0.57586238103E-02  0.88921068743E+00  0.88000000000E+00 0.  1.
        -11    1    4    4    0    0 -0.52596713094E-01  0.49535222418E-01 -0.21402130250E-01  0.75355588967E-01  0.51100000000E-03 0.  1.
         11    1    4    4    0    0 -0.40057445289E-01  0.34461160904E-01  0.13500933894E-02  0.52860707592E-01  0.51100000000E-03 0. -1.
</event>
<event>
 8    1  0.1126414E+005  0.1043930E+01  0.7957747E-01            NaN
         13   -1    0    0    0    0  0.00000000000E+00  0.00000000000E+00  0.74505805969E-08  0.10566000000E+00  0.10566000000E+00 0. -1.
     999900   -1    0    0    0    0 -0.00000000000E+00 -0.00000000000E+00 -0.74505805969E-08  0.93827000000E+00  0.93827000000E+00 0. -1.
     999902    2    1    2    0    0 -0.17713718727E-01  0.12233967629E-01  0.97374706146E-02  0.10203023863E+01  0.10200287718E+01 0.  0.
     999903    2    3    3    0    0  0.93735889531E-01 -0.20258373401E-01 -0.82320987450E-01  0.12791708437E+00  0.19728578752E-01 0.  0.
         14    1    1    2    0    0  0.17713718727E-01 -0.12233967629E-01 -0.97374706146E-02  0.23627613698E-01  0.00000000000E+00 0. -1.
     999901    1    3    3    0    0 -0.11144960826E+00  0.32492341030E-01  0.92058458064E-01  0.89238530193E+00  0.88000000000E+00 0. -1.
        -11    1    4    4    0    0  0.70650729388E-01 -0.17165294005E-01 -0.50694251606E-01  0.88636003679E-01  0.51100000000E-03 0.  1.
         11    1    4    4    0    0  0.23085160143E-01 -0.30930793963E-02 -0.31626735844E-01  0.39281080689E-01  0.51100000000E-03 0. -1.
</event>
<event>
 8    1  0.1126414E+005  0.1043930E+01  0.7957747E-01            NaN
         13   -1    0    0    0    0  0.00000000000E+00  0.00000000000E+00  0.74505805969E-08  0.10566000000E+00  0.10566000000E+00 0.  1.
     999900   -1    0    0    0    0 -0.00000000000E+00 -0.00000000000E+00 -0.74505805969E-08  0.93827000000E+00  0.93827000000E+00 0.  1.
     999902    2    1    2    0    0  0.34640840511E-02 -0.47883296501E-02 -0.24925991951E-01  0.10183129538E+01  0.10179906870E+01 0.  0.
     999903    2    3    3    0    0  0.12471616475E+00  0.24519231256E-01  0.69293064864E-02  0.12894477348E+00  0.20577290118E-01 0.  0.
         14    1    1    2    0    0 -0.34640840511E-02  0.47883296501E-02  0.24925991951E-01  0.25617046159E-01  0.00000000000E+00 0.  1.
     999901    1    3    3    0    0 -0.12125208070E+00 -0.29307560906E-01 -0.31855298437E-01  0.88936818036E+00  0.88000000000E+00 0.  1.
        -11    1    4    4    0    0  0.74620383739E-01  0.89197136956E-02  0.12474825346E-01  0.76181660196E-01  0.51100000000E-03 0. -1.
         11    1    4    4    0    0  0.50095781009E-01  0.15599517561E-01 -0.55455188597E-02  0.52763113285E-01  0.51100000000E-03 0.  1.
</event>
<event>
 8    1  0.1126414E+005  0.1043930E+01  0.7957747E-01            NaN
         13   -1    0    0    0    0  0.00000000000E+00  0.00000000000E+00  0.74505805969E-08  0.10566000000E+00  0.10566000000E+00 0. -1.
     999900   -1    0    0    0    0 -0.00000000000E+00 -0.00000000000E+00 -0.74505805969E-08  0.93827000000E+00  0.93827000000E+00 0. -1.
     999902    2    1    2    0    0  0.13243473484E-01 -0.82184625898E-02 -0.18527616969E-01  0.10197183229E+01  0.10194308475E+01 0.  0.
     999903    2    3    3    0    0  0.18260664449E-01  0.88616701319E-01 -0.92810823709E-01  0.13128137186E+00  0.20846534034E-01 0.  0.
         14    1    1    2    0    0 -0.13243473484E-01  0.82184625898E-02  0.18527616969E-01  0.24211677097E-01  0.00000000000E+00 0. -1.
     999901    1    3    3    0    0 -0.50171909646E-02 -0.96835163909E-01  0.74283206740E-01  0.88843695104E+00  0.88000000000E+00 0.  1.
        -11    1    4    4    0    0  0.90482632156E-02  0.54997257738E-01 -0.42598992693E-01  0.70153437018E-01  0.51100000000E-03 0.  1.
         11    1    4    4    0    0  0.92124012332E-02  0.33619443581E-01 -0.50211831016E-01  0.61127934843E-01  0.51100000000E-03 0. -1.
</event>
<event>
 8    1  0.1126414E+005  0.1043930E+01  0.7957747E-01            NaN
         13   -1    0    0    0    0  0.00000000000E+00  0.00000000000E+00  0.74505805969E-08  0.10566000000E+00  0.10566000000E+00 0. -1.
     999900   -1    0    0    0    0 -0.00000000000E+00 -0.00000000000E+00 -0.74505805969E-08  0.93827000000E+00  0.93827000000E+00 0. -1.
     999902    2    1    2    0    0 -0.15300143644E-01  0.15057702502E-01 -0.10439223372E-01  0.10200593866E+01  0.10197800478E+01 0.  0.
     999903    2    3    3    0    0  0.60888456551E-01 -0.11048367513E+00 -0.24085392369E-02  0.12785434727E+00  0.20661230415E-01 0.  0.
         14    1    1    2    0    0  0.15300143644E-01 -0.15057702502E-01  0.10439223372E-01  0.23870613414E-01  0.00000000000E+00 0. -1.
     999901    1    3    3    0    0 -0.76188600195E-01  0.12554137763E+00 -0.80306841347E-02  0.89220503932E+00  0.88000000000E+00 0. -1.
        -11    1    4    4    0    0  0.34511081834E-01 -0.63961039618E-01  0.87991846878E-02  0.73210082164E-01  0.51100000000E-03 0.  1.
         11    1    4    4    0    0  0.26377374717E-01 -0.46522635514E-01 -0.11207723925E-01  0.54644265103E-01  0.51100000000E-03 0. -1.
</event>
<event>
 8    1  0.1126414E+005  0.1043930E+01  0.7957747E-01            NaN
         13   -1    0    0    0    0  0.00000000000E+00  0.00000000000E+00  0.74505805969E-08  0.10566000000E+00  0.10566000000E+00 0. -1.
     999900   -1    0    0    0    0 -0.00000000000E+00 -0.00000000000E+00 -0.74505805969E-08  0.93827000000E+00  0.93827000000E+00 0.  1.
     999902    2    1    2    0    0  0.12573591208E-01 -0.12734364453E-01  0.15849325833E-01  0.10200247628E+01  0.10197446035E+01 0.  0.
     999903    2    3    3    0    0 -0.21834122199E-01  0.98193819561E-01 -0.75432981370E-01  0.12771236668E+00  0.22395509196E-01 0.  0.
         14    1    1    2    0    0 -0.12573591208E-01  0.12734364453E-01 -0.15849325833E-01  0.23905237151E-01  0.00000000000E+00 0. -1.
     999901    1    3    3    0    0  0.34407713407E-01 -0.11092818401E+00  0.91282307203E-01  0.89231239617E+00  0.88000000000E+00 0. -1.
        -11    1    4    4    0    0 -0.13757402175E-01  0.28143236078E-01 -0.14525256448E-01  0.34533346890E-01  0.51100000000E-03 0. -1.
         11    1    4    4    0    0 -0.80767200242E-02  0.70050583483E-01 -0.60907724921E-01  0.93179019788E-01  0.51100000000E-03 0.  1.
</event>
<event>
 8    1  0.1126414E+005  0.1043930E+01  0.7957747E-01            NaN
         13   -1    0    0    0    0  0.00000000000E+00  0.00000000000E+00  0.74505805969E-08  0.10566000000E+00  0.10566000000E+00 0. -1.
     999900   -1    0    0    0    0 -0.00000000000E+00 -0.00000000000E+00 -0.74505805969E-08  0.93827000000E+00  0.93827000000E+00 0. -1.
     999902    2    1    2    0    0 -0.26696629469E-02 -0.12690376012E-01  0.20345050396E-01  0.10198033794E+01  0.10195179444E+01 0.  0.
     999903    2    3    3    0    0  0.21925277903E-01  0.11949499367E+00  0.39767713341E-01  0.12937925415E+00  0.19943647021E-01 0.  0.
         14    1    1    2    0    0  0.26696629469E-02  0.12690376012E-01 -0.20345050396E-01  0.24126620550E-01  0.00000000000E+00 0.  1.
     999901    1    3    3    0    0 -0.24594940850E-01 -0.13218536969E+00 -0.19422662945E-01  0.89042412530E+00  0.88000000000E+00 0.  1.
        -11    1    4    4    0    0 -0.37186939978E-02  0.17177788477E-01  0.69795966762E-02  0.18917742804E-01  0.51100000000E-03 0.  1.
         11    1    4    4    0    0  0.25643971901E-01  0.10231720520E+00  0.32788116665E-01  0.11046151135E+00  0.51100000000E-03 0. -1.
</event>
<event>
 8    1  0.1126414E+005  0.1043930E+01  0.7957747E-01            NaN
         13   -1    0    0    0    0  0.00000000000E+00  0.00000000000E+00  0.74505805969E-08  0.10566000000E+00  0.10566000000E+00 0. -1.
     999900   -1    0    0    0    0 -0.00000000000E+00 -0.00000000000E+00 -0.74505805969E-08  0.93827000000E+00  0.93827000000E+00 0. -1.
     999902    2    1    2    0    0  0.52619528939E-02 -0.20505655904E-01 -0.10322014268E-01  0.10203776317E+01  0.10201057775E+01 0.  0.
     999903    2    3    3    0    0 -0.34361090961E-01 -0.25919403494E-01 -0.12341608263E+00  0.13223937529E+00  0.20080410225E-01 0.  0.
         14    1    1    2    0    0 -0.52619528939E-02  0.20505655904E-01  0.10322014268E-01  0.23552368264E-01  0.00000000000E+00 0. -1.
     999901    1    3    3    0    0  0.39623043855E-01  0.54137475900E-02  0.11309406836E+00  0.88813825645E+00  0.88000000000E+00 0.  1.
        -11    1    4    4    0    0 -0.30244581303E-01 -0.11387995757E-01 -0.80915956832E-01  0.87132510216E-01  0.51100000000E-03 0. -1.
         11    1    4    4    0    0 -0.41165096585E-02 -0.14531407737E-01 -0.42500125800E-01  0.45106865072E-01  0.51100000000E-03 0.  1.
</event>
<event>
 8    1  0.1126414E+005  0.1043930E+01  0.7957747E-01            NaN
         13   -1    0    0    0    0  0.00000000000E+00  0.00000000000E+00  0.74505805969E-08  0.10566000000E+00  0.10566000000E+00 0. -1.
     999900   -1    0    0    0    0 -0.00000000000E+00 -0.00000000000E+00 -0.74505805969E-08  0.93827000000E+00  0.93827000000E+00 0.  1.
     999902    2    1    2    0    0 -0.24752465017E-01 -0.15843274068E-01 -0.82936230722E-02  0.10133934966E+01  0.10129333151E+01 0.  0.
     999903    2    3    3    0    0 -0.37502864738E-01  0.45727293125E-01  0.10556314039E+00  0.12383356604E+00  0.26338664880E-01 0.  0.
         14    1    1    2    0    0  0.24752465017E-01  0.15843274068E-01  0.82936230722E-02  0.30536503423E-01  0.00000000000E+00 0. -1.
     999901    1    3    3    0    0  0.12750399721E-01 -0.61570567193E-01 -0.11385676346E+00  0.88955993054E+00  0.88000000000E+00 0.  1.
        -11    1    4    4    0    0  0.26020337466E-02  0.10356545533E-01  0.24369781264E-01  0.26611575955E-01  0.51100000000E-03 0.  1.
         11    1    4    4    0    0 -0.40104898485E-01  0.35370747592E-01  0.81193359129E-01  0.97221990081E-01  0.51100000000E-03 0. -1.
</event>
<event>
 8    1  0.1126414E+005  0.1043930E+01  0.7957747E-01            NaN
         13   -1    0    0    0    0  0.00000000000E+00  0.00000000000E+00  0.74505805969E-08  0.10566000000E+00  0.10566000000E+00 0. -1.
     999900   -1    0    0    0    0 -0.00000000000E+00 -0.00000000000E+00 -0.74505805969E-08  0.93827000000E+00  0.93827000000E+00 0. -1.
     999902    2    1    2    0    0  0.19027362833E-01 -0.76960143971E-03 -0.14635862000E-01  0.10199124797E+01  0.10196296509E+01 0.  0.
     999903    2    3    3    0    0 -0.17485193188E-01  0.30731645936E-02  0.12517665396E+00  0.12811907698E+00  0.20739500184E-01 0.  0.
         14    1    1    2    0    0 -0.19027362833E-01  0.76960143971E-03  0.14635862000E-01  0.24017520255E-01  0.00000000000E+00 0. -1.
     999901    1    3    3    0    0  0.36512556021E-01 -0.38427660333E-02 -0.13981251596E+00  0.89179340277E+00  0.88000000000E+00 0. -1.
        -11    1    4    4    0    0 -0.22101606354E-01  0.85200845429E-03  0.10373514115E+00  0.10606812694E+00  0.51100000000E-03 0.  1.
         11    1    4    4    0    0  0.46164131653E-02  0.22211561393E-02  0.21441512805E-01  0.22050950036E-01  0.51100000000E-03 0. -1.
</event>
<event>
 8    1  0.1126414E+005  0.1043930E+01  0.7957747E-01            NaN
         13   -1    0    0    0    0  0.00000000000E+00  0.00000000000E+00  0.74505805969E-08  0.10566000000E+00  0.10566000000E+00 0.  1.
     999900   -1    0    0    0    0 -0.00000000000E+00 -0.00000000000E+00 -0.74505805969E-08  0.93827000000E+00  0.93827000000E+00 0. -1.
     999902    2    1    2    0    0 -0.11596515170E-01  0.21937787032E-01  0.21583544227E-01  0.10110423877E+01  0.10105073550E+01 0.  0.
     999903    2    3    3    0    0  0.36098784345E-01 -0.49766912759E-01  0.10471889944E+00  0.12293885042E+00  0.19184504358E-01 0.  0.
         14    1    1    2    0    0  0.11596515170E-01 -0.21937787032E-01 -0.21583544227E-01  0.32887612338E-01  0.00000000000E+00 0. -1.
     999901    1    3    3    0    0 -0.47695299515E-01  0.71704699791E-01 -0.83135355210E-01  0.88810353724E+00  0.88000000000E+00 0. -1.
        -11    1    4    4    0    0  0.29858175824E-01 -0.28332721970E-01  0.77300486865E-01  0.87577852156E-01  0.51100000000E-03 0. -1.
         11    1    4    4    0    0  0.62406085211E-02 -0.21434190789E-01  0.27418412572E-01  0.35360998267E-01  0.51100000000E-03 0.  1.
</event>
<event>
 8    1  0.1126414E+005  0.1043930E+01  0.7957747E-01            NaN
         13   -1    0    0    0    0  0.00000000000E+00  0.00000000000E+00  0.74505805969E-08  0.10566000000E+00  0.10566000000E+00 0. -1.
     999900   -1    0    0    0    0 -0.00000000000E+00 -0.00000000000E+00 -0.74505805969E-08  0.93827000000E+00  0.93827000000E+00 0. -1.
     999902    2    1    2    0    0  0.20147855984E-01  0.16373069177E-02 -0.11289338049E-01  0.10207769002E+01  0.10205142890E+01 0.  0.
     999903    2    3    3    0    0 -0.11194461808E+00 -0.55741254562E-01 -0.17845792103E-01  0.12904616280E+00  0.26377165500E-01 0.  0.
         14    1    1    2    0    0 -0.20147855984E-01 -0.16373069177E-02  0.11289338049E-01  0.23153099756E-01  0.00000000000E+00 0.  1.
     999901    1    3    3    0    0  0.13209247406E+00  0.57378561480E-01  0.65564540538E-02  0.89173073745E+00  0.88000000000E+00 0.  1.
        -11    1    4    4    0    0 -0.75101393017E-01 -0.39691109081E-01  0.30531955795E-03  0.84946793431E-01  0.51100000000E-03 0. -1.
         11    1    4    4    0    0 -0.36843225060E-01 -0.16050145481E-01 -0.18151111661E-01  0.44099369364E-01  0.51100000000E-03 0.  1.
</event>
<event>
 7    1  0.1126414E+005  0.1043930E+01  0.7957747E-01            NaN
         13   -1    0    0    0    0  0.00000000000E+00  0.00000000000E+00  0.74505805969E-08  0.10566000000E+00  0.10566000000E+00 0.  1.
     999900   -1    0    0    0    0 -0.00000000000E+00 -0.00000000000E+00 -0.74505805969E-08  0.93827000000E+00  0.93827000000E+00 0.  1.
     999903    2    1    2    0    0 -0.33952295951E-01  0.50385841045E-01 -0.76434511633E-01  0.99572326567E-01  0.19517230113E-01 0.  0.
         14    1    1    2    0    0  0.52910273589E-01 -0.26501825728E-01  0.18173698100E-01  0.61904176926E-01  0.00000000000E+00 0. -1.
     999901    1    1    2    0    0 -0.18957977639E-01 -0.23884015317E-01  0.58260813533E-01  0.88245349651E+00  0.88000000000E+00 0. -1.
        -11    1    3    3    0    0 -0.69549849108E-02  0.19191688445E-01 -0.14076446701E-01  0.24801213543E-01  0.51100000000E-03 0. -1.
         11    1    3    3    0    0 -0.26997311040E-01  0.31194152600E-01 -0.62358064932E-01  0.74771113024E-01  0.51100000000E-03 0.  1.
</event>
<event>
 8    1  0.1126414E+005  0.1043930E+01  0.7957747E-01            NaN
         13   -1    0    0    0    0  0.00000000000E+00  0.00000000000E+00  0.74505805969E-08  0.10566000000E+00  0.10566000000E+00 0. -1.
     999900   -1    0    0    0    0 -0.00000000000E+00 -0.00000000000E+00 -0.74505805969E-08  0.93827000000E+00  0.93827000000E+00 0. -1.
     999902    2    1    2    0    0 -0.15704222673E-02  0.18291741130E-01  0.14893030014E-01  0.10202898570E+01  0.10200159488E+01 0.  0.
     999903    2    3    3    0    0  0.30546038977E-01  0.94857704950E-01 -0.83128639842E-01  0.13096311068E+00  0.17604570754E-01 0.  0.
         14    1    1    2    0    0  0.15704222673E-02 -0.18291741130E-01 -0.14893030014E-01  0.23640143034E-01  0.00000000000E+00 0.  1.
     999901    1    3    3    0    0 -0.32116461244E-01 -0.76565963820E-01  0.98021669856E-01  0.88932674629E+00  0.88000000000E+00 0.  1.
        -11    1    4    4    0    0  0.20671568118E-01  0.36292020736E-01 -0.32663006473E-01  0.53024122911E-01  0.51100000000E-03 0.  1.
         11    1    4    4    0    0  0.98744708582E-02  0.58565684215E-01 -0.50465633369E-01  0.77938987770E-01  0.51100000000E-03 0. -1.
</event>
<event>
 8    1  0.1126414E+005  0.1043930E+01  0.7957747E-01            NaN
         13   -1    0    0    0    0  0.00000000000E+00  0.00000000000E+00  0.74505805969E-08  0.10566000000E+00  0.10566000000E+00 0.  1.
     999900   -1    0    0    0    0 -0.00000000000E+00 -0.00000000000E+00 -0.74505805969E-08  0.93827000000E+00  0.93827000000E+00 0. -1.
     999902    2    1    2    0    0  0.24539866730E-02  0.21092362304E-01 -0.11608633220E-01  0.10197293768E+01  0.10194421669E+01 0.  0.
     999903    2    3    3    0    0 -0.23548040686E-01  0.12909163414E+00 -0.22209039179E-02  0.13269607550E+00  0.19599893227E-01 0.  0.
         14    1    1    2    0    0 -0.24539866730E-02 -0.21092362304E-01  0.11608633220E-01  0.24200623202E-01  0.00000000000E+00 0. -1.
     999901    1    3    3    0    0  0.26002027359E-01 -0.10799927184E+00 -0.93877293019E-02  0.88703330129E+00  0.88000000000E+00 0. -1.
        -11    1    4    4    0    0 -0.25138835254E-01  0.10213719224E+00 -0.63401993344E-02  0.10537754185E+00  0.51100000000E-03 0. -1.
         11    1    4    4    0    0  0.15907945685E-02  0.26954441897E-01  0.41192954165E-02  0.27318533656E-01  0.51100000000E-03 0.  1.
</event>
<event>
 8    1  0.1126414E+005  0.1043930E+01  0.7957747E-01            NaN
         13   -1    0    0    0    0  0.00000000000E+00  0.00000000000E+00  0.74505805969E-08  0.10566000000E+00  0.10566000000E+00 0.  1.
     999900   -1    0    0    0    0 -0.00000000000E+00 -0.00000000000E+00 -0.74505805969E-08  0.93827000000E+00  0.93827000000E+00 0.  1.
     999902    2    1    2    0    0 -0.21809188985E-01  0.10888505349E-01 -0.80802924508E-03  0.10195403878E+01  0.10192486199E+01 0.  0.
     999903    2    3    3    0    0 -0.81935661475E-01  0.55603727624E-01 -0.85244383440E-01  0.13232894641E+00  0.20955142614E-01 0.  0.
         14    1    1    2    0    0  0.21809188985E-01 -0.10888505349E-01  0.80802924508E-03  0.24389612219E-01  0.00000000000E+00 0.  1.
     999901    1    3    3    0    0  0.60126472490E-01 -0.44715222274E-01  0.84436354195E-01  0.88721144138E+00  0.88000000000E+00 0. -1.
        -11    1    4    4    0    0 -0.65698509312E-01  0.33873307260E-01 -0.58951087025E-01  0.94547273112E-01  0.51100000000E-03 0.  1.
         11    1    4    4    0    0 -0.16237152164E-01  0.21730420363E-01 -0.26293296415E-01  0.37781673294E-01  0.51100000000E-03 0. -1.
</event>
<event>
 8    1  0.1126414E+005  0.1043930E+01  0.7957747E-01            NaN
         13   -1    0    0    0    0  0.00000000000E+00  0.00000000000E+00  0.74505805969E-08  0.10566000000E+00  0.10566000000E+00 0. -1.
     999900   -1    0    0    0    0 -0.00000000000E+00 -0.00000000000E+00 -0.74505805969E-08  0.93827000000E+00  0.93827000000E+00 0.  1.
     999902    2    1    2    0    0  0.16316009049E-01  0.41544177258E-02  0.18348985705E-01  0.10190270561E+01  0.10187227221E+01 0.  0.
     999903    2    3    3    0    0  0.11477787150E+00 -0.59850219836E-01  0.16474501199E-02  0.13106856988E+00  0.20499934585E-01 0.  0.
         14    1    1    2    0    0 -0.16316009049E-01 -0.41544177258E-02 -0.18348985705E-01  0.24902943889E-01  0.00000000000E+00 0.  1.
     999901    1    3    3    0    0 -0.98461862446E-01  0.64004637562E-01  0.16701535585E-01  0.88795848623E+00  0.88000000000E+00 0. -1.
        -11    1    4    4    0    0  0.18242214528E-01 -0.43087873316E-02 -0.52759508140E-02  0.19479240671E-01  0.51100000000E-03 0.  1.
         11    1    4    4    0    0  0.96535656968E-01 -0.55541432505E-01  0.69234009339E-02  0.11158932920E+00  0.51100000000E-03 0. -1.
</event>
<event>
 8    1  0.1126414E+005  0.1043930E+01  0.7957747E-01            NaN
         13   -1    0    0    0    0  0.00000000000E+00  0.00000000000E+00  0.74505805969E-08  0.10566000000E+00  0.10566000000E+00 0.  1.
     999900   -1    0    0    0    0 -0.00000000000E+00 -0.00000000000E+00 -0.74505805969E-08  0.93827000000E+00  0.93827000000E+00 0.  1.
     999902    2    1    2    0    0 -0.16543127543E-02 -0.17974422543E-01  0.15850106864E-01  0.10199082910E+01  0.10196253623E+01 0.  0.
     999903    2    3    3    0    0 -0.12706952686E+00 -0.10395722241E-01 -0.18250644772E-01  0.13033014720E+00  0.19953083429E-01 0.  0.
         14    1    1    2    0    0  0.16543127543E-02  0.17974422543E-01 -0.15850106864E-01  0.24021709016E-01  0.00000000000E+00 0. -1.
     999901    1    3    3    0    0  0.12541521411E+00 -0.75787003024E-02  0.34100751636E-01  0.88957814378E+00  0.88000000000E+00 0. -1.
        -11    1    4    4    0    0 -0.10451424838E+00 -0.20170978500E-02 -0.19020054204E-01  0.10625121355E+00  0.51100000000E-03 0.  1.
         11    1    4    4    0    0 -0.22555278484E-01 -0.83786243909E-02  0.76940943228E-03  0.24078933657E-01  0.51100000000E-03 0. -1.
</event>
<event>
 8    1  0.1126414E+005  0.1043930E+01  0.7957747E-01            NaN
         13   -1    0    0    0    0  0.00000000000E+00  0.00000000000E+00  0.74505805969E-08  0.10566000000E+00  0.10566000000E+00 0. -1.
     999900   -1    0    0    0    0 -0.00000000000E+00 -0.00000000000E+00 -0.74505805969E-08  0.93827000000E+00  0.93827000000E+00 0.  1.
     999902    2    1    2    0    0  0.91234252934E-02  0.18591533261E-01 -0.11797724049E-01  0.10200958168E+01  0.10198173401E+01 0.  0.
     999903    2    3    3    0    0  0.60730588018E-01 -0.83080993170E-01  0.74248429245E-01  0.12857770568E+00  0.20706071732E-01 0.  0.
         14    1    1    2    0    0 -0.91234252934E-02 -0.18591533261E-01  0.11797724049E-01  0.23834183242E-01  0.00000000000E+00 0. -1.
     999901    1    3    3    0    0 -0.51607162725E-01  0.10167252643E+00 -0.86046153294E-01  0.89151811107E+00  0.88000000000E+00 0.  1.
        -11    1    4    4    0    0  0.46962182899E-01 -0.75125285137E-01  0.58350917682E-01  0.10608650152E+00  0.51100000000E-03 0. -1.
         11    1    4    4    0    0  0.13768405120E-01 -0.79557080327E-02  0.15897511563E-01  0.22491204164E-01  0.51100000000E-03 0.  1.
</event>
<event>
 8    1  0.1126414E+005  0.1043930E+01  0.7957747E-01            NaN
         13   -1    0    0    0    0  0.00000000000E+00  0.00000000000E+00  0.74505805969E-08  0.10566000000E+00  0.10566000000E+00 0. -1.
     999900   -1    0    0    0    0 -0.00000000000E+00 -0.00000000000E+00 -0.74505805969E-08  0.93827000000E+00  0.93827000000E+00 0. -1.
     999902    2    1    2    0    0 -0.24025096550E-01  0.45168628349E-03  0.25579845277E-02  0.10197648894E+01  0.10194785320E+01 0.  0.
     999903    2    3    3    0    0 -0.36247968100E-01 -0.11777844125E+00 -0.39164580870E-01  0.13079439828E+00  0.19688418239E-01 0.  0.
         14    1    1    2    0    0  0.24025096550E-01 -0.45168628349E-03 -0.25579845277E-02  0.24165110585E-01  0.00000000000E+00 0. -1.
     999901    1    3    3    0    0  0.12222871549E-01  0.11823012753E+00  0.41722565398E-01  0.88897049113E+00  0.88000000000E+00 0.  1.
        -11    1    4    4    0    0 -0.27454115906E-01 -0.70249507122E-01 -0.15614980102E-01  0.77024739245E-01  0.51100000000E-03 0. -1.
         11    1    4    4    0    0 -0.87938521933E-02 -0.47528934125E-01 -0.23549600768E-01  0.53769659035E-01  0.51100000000E-03 0.  1.
</event>
<event>
 8    1  0.1126414E+005  0.1043930E+01  0.7957747E-01            NaN
         13   -1    0    0    0    0  0.00000000000E+00  0.00000000000E+00  0.74505805969E-08  0.10566000000E+00  0.10566000000E+00 0. -1.
     999900   -1    0    0    0    0 -0.00000000000E+00 -0.00000000000E+00 -0.74505805969E-08  0.93827000000E+00  0.93827000000E+00 0. -1.
     999902    2    1    2    0    0  0.16164732269E-01 -0.26186533255E-02  0.17910110966E-01  0.10196621614E+01  0.10193733347E+01 0.  0.
     999903    2    3    3    0    0  0.65762866487E-01  0.20750127738E-01 -0.10734140588E+00  0.12910389981E+00  0.19756445018E-01 0.  0.
         14    1    1    2    0    0 -0.16164732269E-01  0.26186533255E-02 -0.17910110966E-01  0.24267838581E-01  0.00000000000E+00 0.  1.
     999901    1    3    3    0    0 -0.49598134218E-01 -0.23368781064E-01  0.12525151685E+00  0.89055826161E+00  0.88000000000E+00 0.  1.
        -11    1    4    4    0    0  0.23207185963E-01  0.40488709568E-02 -0.21747515609E-01  0.32065283291E-01  0.51100000000E-03 0. -1.
         11    1    4    4    0    0  0.42555680524E-01  0.16701256781E-01 -0.85593890274E-01  0.97038616520E-01  0.51100000000E-03 0.  1.
</event>
<event>
 8    1  0.1126414E+005  0.1043930E+01  0.7957747E-01            NaN
         13   -1    0    0    0    0  0.00000000000E+00  0.00000000000E+00  0.74505805969E-08  0.10566000000E+00  0.10566000000E+00 0. -1.
     999900   -1    0    0    0    0 -0.00000000000E+00 -0.00000000000E+00 -0.74505805969E-08  0.93827000000E+00  0.93827000000E+00 0. -1.
     999902    2    1    2    0    0  0.89403475910E-02  0.20871769976E-01 -0.83513379483E-02  0.10197369133E+01  0.10194498845E+01 0.  0.
     999903    2    3    3    0    0  0.22970207869E-01 -0.46812305063E-01  0.11549767610E+00  0.12838033526E+00  0.20561491721E-01 0.  0.
         14    1    1    2    0    0 -0.89403475910E-02 -0.20871769976E-01  0.83513379483E-02  0.24193086668E-01  0.00000000000E+00 0. -1.
     999901    1    3    3    0    0 -0.14029860278E-01  0.67684075039E-01 -0.12384901405E+00  0.89135657807E+00  0.88000000000E+00 0. -1.
        -11    1    4    4    0    0  0.42090514471E-02 -0.28953871310E-01  0.49828424005E-01  0.57785601474E-01  0.51100000000E-03 0. -1.
         11    1    4    4    0    0  0.18761156422E-01 -0.17858433753E-01  0.65669252095E-01  0.70594733785E-01  0.51100000000E-03 0.  1.
</event>
<event>
 8    1  0.1126414E+005  0.1043930E+01  0.7957747E-01            NaN
         13   -1    0    0    0    0  0.00000000000E+00  0.00000000000E+00  0.74505805969E-08  0.10566000000E+00  0.10566000000E+00 0.  1.
     999900   -1    0    0    0    0 -0.00000000000E+00 -0.00000000000E+00 -0.74505805969E-08  0.93827000000E+00  0.93827000000E+00 0.  1.
     999902    2    1    2    0    0  0.83864995421E-02  0.21389103023E-01  0.64424841569E-02  0.10200693063E+01  0.10197902024E+01 0.  0.
     999903    2    3    3    0    0 -0.11730726774E+00 -0.40957965370E-01  0.27076603272E-01  0.12871536595E+00  0.19898567663E-01 0.  0.
         14    1    1    2    0    0 -0.83864995421E-02 -0.21389103023E-01 -0.64424841569E-02  0.23860693721E-01  0.00000000000E+00 0. -1.
     999901    1    3    3    0    0  0.12569376728E+00  0.62347068393E-01 -0.20634119115E-01  0.89135394033E+00  0.88000000000E+00 0.  1.
        -11    1    4    4    0    0 -0.71867487535E-01 -0.32337960740E-01  0.10140714656E-01  0.79459264307E-01  0.51100000000E-03 0. -1.
         11    1    4    4    0    0 -0.45439780204E-01 -0.86200046298E-02  0.16935888616E-01  0.49256101642E-01  0.51100000000E-03 0.  1.
</event>
<event>
 8    1  0.1126414E+005  0.1043930E+01  0.7957747E-01            NaN
         13   -1    0    0    0    0  0.00000000000E+00  0.00000000000E+00  0.74505805969E-08  0.10566000000E+00  0.10566000000E+00 0. -1.
     999900   -1    0    0    0    0 -0.00000000000E+00 -0.00000000000E+00 -0.74505805969E-08  0.93827000000E+00  0.93827000000E+00 0.  1.
     999902    2    1    2    0    0  0.12521948437E-01  0.76240882448E-02  0.17530551164E-01  0.10210772947E+01  0.10208215298E+01 0.  0.
     999903    2    3    3    0    0  0.42567224819E-01  0.67999456456E-01  0.10586511065E+00  0.13408749878E+00  0.18334147585E-01 0.  0.
         14    1    1    2    0    0 -0.12521948437E-01 -0.76240882448E-02 -0.17530551164E-01  0.22852705274E-01  0.00000000000E+00 0.  1.
     999901    1    3    3    0    0 -0.30045276382E-01 -0.60375368212E-01 -0.88334559486E-01  0.88698979595E+00  0.88000000000E+00 0.  1.
        -11    1    4    4    0    0  0.25424711609E-01  0.55554394950E-01  0.77981959593E-01  0.99066411571E-01  0.51100000000E-03 0.  1.
         11    1    4    4    0    0  0.17142513211E-01  0.12445061507E-01  0.27883151058E-01  0.35021087205E-01  0.51100000000E-03 0. -1.
</event>
<event>
 8    1  0.1126414E+005  0.1043930E+01  0.7957747E-01            NaN
         13   -1    0    0    0    0  0.00000000000E+00  0.00000000000E+00  0.74505805969E-08  0.10566000000E+00  0.10566000000E+00 0.  1.
     999900   -1    0    0    0    0 -0.00000000000E+00 -0.00000000000E+00 -0.74505805969E-08  0.93827000000E+00  0.93827000000E+00 0.  1.
     999902    2    1    2    0    0 -0.21900333237E-01  0.12548956257E-01 -0.16278110496E-01  0.10138953903E+01  0.10134504352E+01 0.  0.
     999903    2    3    3    0    0  0.64091593480E-01 -0.97565261761E-01  0.28508138760E-01  0.12174878766E+00  0.19579087386E-01 0.  0.
         14    1    1    2    0    0  0.21900333237E-01 -0.12548956257E-01  0.16278110496E-01  0.30034609709E-01  0.00000000000E+00 0.  1.
     999901    1    3    3    0    0 -0.85991926717E-01  0.11011421802E+00 -0.44786249256E-01  0.89214660263E+00  0.88000000000E+00 0.  1.
        -11    1    4    4    0    0  0.59091027793E-01 -0.80815491891E-01  0.29074040823E-01  0.10425187896E+00  0.51100000000E-03 0. -1.
         11    1    4    4    0    0  0.50005656874E-02 -0.16749769871E-01 -0.56590206297E-03  0.17496908700E-01  0.51100000000E-03 0.  1.
</event>
<event>
 8    1  0.1126414E+005  0.1043930E+01  0.7957747E-01            NaN
         13   -1    0    0    0    0  0.00000000000E+00  0.00000000000E+00  0.74505805969E-08  0.10566000000E+00  0.10566000000E+00 0. -1.
     999900   -1    0    0    0    0 -0.00000000000E+00 -0.00000000000E+00 -0.74505805969E-08  0.93827000000E+00  0.93827000000E+00 0. -1.
     999902    2    1    2    0    0  0.18165266215E-01 -0.11899772859E-01  0.10404822449E-01  0.10198500951E+01  0.10195657775E+01 0.  0.
     999903    2    3    3    0    0 -0.99934536461E-01 -0.26278513904E-01 -0.72517089845E-01  0.12798107155E+00  0.21046483935E-01 0.  0.
         14    1    1    2    0    0 -0.18165266215E-01  0.11899772859E-01 -0.10404822449E-01  0.24079904920E-01  0.00000000000E+00 0.  1.
     999901    1    3    3    0    0  0.11809980268E+00  0.14378741045E-01  0.82921912294E-01  0.89186902353E+00  0.88000000000E+00 0.  1.
        -11    1    4    4    0    0 -0.57105645391E-01 -0.25646305179E-01 -0.42010684002E-01  0.75391951800E-01  0.51100000000E-03 0.  1.
         11    1    4    4    0    0 -0.42828891070E-01 -0.63220872515E-03 -0.30506405843E-01  0.52589119755E-01  0.51100000000E-03 0. -1.
</event>
<event>
 8    1  0.1126414E+005  0.1043930E+01  0.7957747E-01            NaN
         13   -1    0    0    0    0  0.00000000000E+00  0.00000000000E+00  0.74505805969E-08  0.10566000000E+00  0.10566000000E+00 0. -1.
     999900   -1    0    0    0    0 -0.00000000000E+00 -0.00000000000E+00 -0.74505805969E-08  0.93827000000E+00  0.93827000000E+00 0. -1.
     999902    2    1    2    0    0  0.18335747221E-01 -0.50225253025E-02 -0.13292903908E-01  0.10207324424E+01  0.10204688100E+01 0.  0.
     999903    2    3    3    0    0 -0.56766642066E-01  0.26332089874E-01  0.11028226171E+00  0.12837920381E+00  0.20080142339E-01 0.  0.
         14    1    1    2    0    0 -0.18335747221E-01  0.50225253025E-02  0.13292903908E-01  0.23197557649E-01  0.00000000000E+00 0. -1.
     999901    1    3    3    0    0  0.75102389287E-01 -0.31354615176E-01 -0.12357516561E+00  0.89235323854E+00  0.88000000000E+00 0. -1.
        -11    1    4    4    0    0 -0.13936077901E-02 -0.27168032772E-02  0.67851891933E-02  0.74580879660E-02  0.51100000000E-03 0. -1.
         11    1    4    4    0    0 -0.55373034276E-01  0.29048893151E-01  0.10349707251E+00  0.12092111585E+00  0.51100000000E-03 0.  1.
</event>
<event>
 8    1  0.1126414E+005  0.1043930E+01  0.7957747E-01            NaN
         13   -1    0    0    0    0  0.00000000000E+00  0.00000000000E+00  0.74505805969E-08  0.10566000000E+00  0.10566000000E+00 0.  1.
     999900   -1    0    0    0    0 -0.00000000000E+00 -0.00000000000E+00 -0.74505805969E-08  0.93827000000E+00  0.93827000000E+00 0.  1.
     999902    2    1    2    0    0 -0.89636047535E-02  0.11911037736E-01 -0.18429779888E-01  0.10202260801E+01  0.10199506747E+01 0.  0.
     999903    2    3    3    0    0  0.41583179150E-01  0.65066178341E-01  0.10084521969E+00  0.12915539166E+00  0.23421966390E-01 0.  0.
         14    1    1    2    0    0  0.89636047535E-02 -0.11911037736E-01  0.18429779888E-01  0.23703919863E-01  0.00000000000E+00 0.  1.
     999901    1    3    3    0    0 -0.50546783904E-01 -0.53155140604E-01 -0.11927499958E+00  0.89107068848E+00  0.88000000000E+00 0.  1.
        -11    1    4    4    0    0  0.31923690196E-01  0.43959173231E-01  0.52634305393E-01  0.75644974268E-01  0.51100000000E-03 0.  1.
         11    1    4    4    0    0  0.96594889543E-02  0.21107005110E-01  0.48210914295E-01  0.53510417394E-01  0.51100000000E-03 0. -1.
</event>
<event>
 8    1  0.1126414E+005  0.1043930E+01  0.7957747E-01            NaN
         13   -1    0    0    0    0  0.00000000000E+00  0.00000000000E+00  0.74505805969E-08  0.10566000000E+00  0.10566000000E+00 0. -1.
     999900   -1    0    0    0    0 -0.00000000000E+00 -0.00000000000E+00 -0.74505805969E-08  0.93827000000E+00  0.93827000000E+00 0.  1.
     999902    2    1    2    0    0 -0.16932852609E-01  0.82477562571E-02  0.12768709667E-01  0.10211750681E+01  0.10209215115E+01 0.  0.
     999903    2    3    3    0    0  0.88425532387E-01  0.24028459649E-01 -0.88529361128E-01  0.12898074000E+00  0.20053474959E-01 0.  0.
         14    1    1    2    0    0  0.16932852609E-01 -0.82477562571E-02 -0.12768709667E-01  0.22754931934E-01  0.00000000000E+00 0.  1.
     999901    1    3    3    0    0 -0.10535838500E+00 -0.15780703392E-01  0.10129807079E+00  0.89219432807E+00  0.88000000000E+00 0.  1.
        -11    1    4    4    0    0  0.34415177126E-01  0.10227527766E-01 -0.48522158259E-01  0.60362800663E-01  0.51100000000E-03 0.  1.
         11    1    4    4    0    0  0.54010355261E-01  0.13800931883E-01 -0.40007202869E-01  0.68617939336E-01  0.51100000000E-03 0. -1.
</event>
